Title
82322
    1SAPS     N    1   1.208   0.576  11.049  0.1524 -0.7506  0.2470
    1SAPS   HN1    2   1.254   0.616  10.966  0.8788 -1.7176  0.1698
    1SAPS   HN2    3   1.144   0.498  11.023 -1.1782 -0.5039  2.5053
    1SAPS   HN3    4   1.149   0.657  11.077  1.2169  0.0464  0.2114
    1SAPS   C12    5   1.301   0.543  11.165 -0.7910 -0.2303  0.3122
    1SAPS  H12A    6   1.351   0.638  11.179 -1.4004  0.8745 -3.7067
    1SAPS   C13    7   1.244   0.482  11.302  0.8985 -1.1079 -0.5817
    1SAPS  O13A    8   1.120   0.481  11.317 -0.2437 -0.0341 -0.8597
    1SAPS  O13B    9   1.321   0.472  11.399  0.1784  0.7222  0.3143
    1SAPS   C11   10   1.406   0.441  11.112 -0.2926  0.0190  0.1300
    1SAPS  H11A   11   1.363   0.341  11.092  1.3867 -0.5083 -1.0704
    1SAPS  H11B   12   1.480   0.422  11.193 -1.1138  0.1866  0.9233
    1SAPS     P   13   1.582   0.412  10.906 -0.2126  0.0642 -0.0641
    1SAPS   O13   14   1.666   0.507  10.833  0.3246  0.1791 -0.2668
    1SAPS   O14   15   1.654   0.331  11.009  0.3328 -0.5680 -0.2136
    1SAPS   O12   16   1.468   0.497  10.989  0.3905 -0.1661 -0.5497
    1SAPS   O11   17   1.505   0.312  10.813 -0.2480 -0.0681 -1.2313
    1SAPS    C1   18   1.422   0.369  10.712 -0.4960 -0.4941 -0.4576
    1SAPS    HA   19   1.336   0.424  10.756  0.8074  2.2175 -1.1183
    1SAPS    HB   20   1.484   0.433  10.645 -0.3742  0.8272  0.8523
    1SAPS    C2   21   1.360   0.261  10.618  0.3067  0.2287  0.3216
    1SAPS    HS   22   1.287   0.201  10.675  1.0550 -0.9165  0.0966
    1SAPS   O21   23   1.473   0.193  10.565 -0.1381 -0.0622 -0.2421
    1SAPS   C21   24   1.489   0.077  10.623  0.0430  0.9033 -0.3089
    1SAPS   O22   25   1.423   0.025  10.714 -0.9711 -0.1890  0.5676
    1SAPS   C22   26   1.609   0.015  10.557  0.1312  0.2202  0.1256
    1SAPS   H2R   27   1.564  -0.056  10.484  0.6657  1.5831 -1.6172
    1SAPS   H2S   28   1.660   0.085  10.488  1.7719 -1.1979 -0.1661
    1SAPS    C3   29   1.287   0.330  10.506 -0.2183 -0.4354  0.2533
    1SAPS    HX   30   1.363   0.373  10.437  1.6231 -1.0083  1.8191
    1SAPS    HY   31   1.234   0.415  10.553 -0.8485 -0.7480  0.1106
    1SAPS   O31   32   1.194   0.236  10.450  0.4726 -0.2324  0.0751
    1SAPS   C31   33   1.098   0.294  10.385  0.0898 -0.1306  0.0616
    1SAPS   O32   34   1.084   0.412  10.365  0.1205  0.3606  0.1157
    1SAPS   C32   35   0.995   0.189  10.349 -0.3160  0.1820  0.1120
    1SAPS   H2X   36   0.917   0.182  10.428 -1.6404 -0.6881 -1.2205
    1SAPS   H2Y   37   1.038   0.086  10.345 -0.8667 -0.3740  4.2331
    1SAPS   C23   38   1.706  -0.069  10.643 -0.6787 -0.0904  0.3092
    1SAPS   H3R   39   1.654  -0.159  10.682  1.6510 -1.4257  0.5076
    1SAPS   H3S   40   1.742  -0.004  10.726  0.3591  1.6441 -1.3980
    1SAPS   C24   41   1.825  -0.125  10.560  0.6606 -0.2131 -0.3969
    1SAPS   H4R   42   1.782  -0.192  10.483 -2.2464  1.8073 -0.6875
    1SAPS   H4S   43   1.892  -0.191  10.619  0.7387  0.2572  0.0538
    1SAPS   C25   44   1.913  -0.021  10.495  1.1393  0.3386 -0.2838
    1SAPS   H5R   45   1.992   0.013  10.565  0.7794  0.7585 -0.0743
    1SAPS   C26   46   1.899   0.023  10.373  0.1691 -0.4621  0.0561
    1SAPS   H6R   47   1.964   0.100  10.329  0.2813 -0.4689  0.2096
    1SAPS   C27   48   1.801  -0.022  10.265 -0.5432 -0.9469 -0.0310
    1SAPS   H7R   49   1.775   0.066  10.202  2.2021 -0.6209 -0.8521
    1SAPS   H7S   50   1.713  -0.077  10.304 -1.0260 -1.1692 -1.3663
    1SAPS   C28   51   1.870  -0.125  10.180  0.0101  0.8689  0.3305
    1SAPS   H8R   52   1.910  -0.213  10.234  1.3275 -0.1516 -2.1388
    1SAPS   C29   53   1.888  -0.146  10.048 -0.2913  0.5121  0.2140
    1SAPS   H9R   54   1.941  -0.236  10.014 -0.1496  0.7725 -0.2720
    1SAPS  C210   55   1.831  -0.052   9.949  0.0002 -0.1962  0.7848
    1SAPS  H10R   56   1.883   0.046   9.958 -1.0738  0.6650 -1.7135
    1SAPS  H10S   57   1.725  -0.041   9.981 -0.3411 -2.1142  0.4004
    1SAPS  C211   58   1.839  -0.102   9.803 -0.1828 -0.5392 -0.4003
    1SAPS  H11R   59   1.938  -0.136   9.769 -0.1843  0.2660 -1.2553
    1SAPS  C212   60   1.739  -0.119   9.717  0.2184 -0.1332 -0.1192
    1SAPS  H12R   61   1.755  -0.163   9.617  3.4968 -0.7017  0.5560
    1SAPS  C213   62   1.590  -0.093   9.747 -0.0139 -0.7600 -0.0738
    1SAPS  H13R   63   1.573  -0.122   9.853 -1.0228 -0.7730 -0.2240
    1SAPS  H13S   64   1.530  -0.165   9.687 -0.9518 -0.5240  0.5612
    1SAPS  C214   65   1.530   0.047   9.715  0.0536  0.1314 -0.2270
    1SAPS  H14R   66   1.556   0.130   9.781  0.8843 -0.7477  0.5862
    1SAPS  C215   67   1.460   0.080   9.605  0.1627 -0.1259  0.1875
    1SAPS  H15R   68   1.428   0.184   9.588 -0.2127 -0.3366 -0.3899
    1SAPS  C216   69   1.417   0.000   9.492  0.1019  0.3849  0.9186
    1SAPS  H16R   70   1.307   0.010   9.479 -0.1489  0.6189  2.9284
    1SAPS  H16S   71   1.433  -0.110   9.498 -1.3775 -0.0043 -1.0633
    1SAPS  C217   72   1.486   0.037   9.361 -0.4349  0.3299  0.0273
    1SAPS  H17R   73   1.593   0.022   9.387 -0.7776  0.2145  1.5094
    1SAPS  H17S   74   1.476   0.148   9.353 -0.0865  0.3207 -0.5555
    1SAPS  C218   75   1.441  -0.047   9.247  0.2491  0.1592  0.7743
    1SAPS  H18R   76   1.449  -0.155   9.273 -1.8540  0.0216  1.0199
    1SAPS  H18S   77   1.513  -0.021   9.167 -1.1516  0.9804 -0.2876
    1SAPS  C219   78   1.301  -0.016   9.207  0.0905 -0.5082  0.1143
    1SAPS  H19R   79   1.297   0.095   9.206  0.2059 -0.5030  0.2169
    1SAPS  H19S   80   1.232  -0.050   9.288  0.8229 -0.2966  0.8357
    1SAPS  C220   81   1.257  -0.092   9.080  0.1111 -0.4809  0.2057
    1SAPS  H20R   82   1.295  -0.032   8.994 -1.4517  0.1108 -0.1269
    1SAPS  H20S   83   1.146  -0.088   9.066  0.1518  0.7890  0.1379
    1SAPS  H20T   84   1.290  -0.198   9.087 -0.2926 -0.6512 -0.3397
    1SAPS   C33   85   0.920   0.208  10.209  0.3332 -0.1506  0.0274
    1SAPS   H3X   86   0.879   0.312  10.204  0.5056  0.1258  2.7367
    1SAPS   H3Y   87   0.828   0.146  10.217  0.5396 -0.5295 -0.5398
    1SAPS   C34   88   0.994   0.166  10.081 -0.0409 -0.0192 -0.3753
    1SAPS   H4X   89   1.063   0.080  10.090 -0.2222 -0.0861  0.5068
    1SAPS   H4Y   90   1.067   0.248  10.067 -1.3225  1.1183 -0.6696
    1SAPS   C35   91   0.916   0.183   9.952 -0.0485 -0.0153  0.0950
    1SAPS   H5X   92   0.848   0.270   9.956 -1.2705 -0.9019 -0.8806
    1SAPS   H5Y   93   0.853   0.092   9.944 -1.2603  0.7804  0.4387
    1SAPS   C36   94   1.002   0.182   9.822 -0.7657  0.3440 -0.3565
    1SAPS   H6X   95   1.061   0.089   9.814 -1.6319 -0.2888  0.3996
    1SAPS   H6Y   96   1.075   0.265   9.823  2.1780 -1.8375 -4.5058
    1SAPS   C37   97   0.918   0.181   9.696  0.3445 -0.3749  0.1959
    1SAPS   H7X   98   0.841   0.261   9.700  0.0373 -0.6675  0.1899
    1SAPS   H7Y   99   0.858   0.089   9.709 -0.4129 -0.5426 -3.3228
    1SAPS   C38  100   0.993   0.179   9.564 -0.3142 -0.2144  0.6000
    1SAPS   H8X  101   0.919   0.167   9.481  2.1396 -0.6305 -1.6493
    1SAPS   H8Y  102   1.056   0.087   9.561  0.2902  0.1816  1.1590
    1SAPS   C39  103   1.061   0.308   9.526 -0.8742  0.5846 -0.1282
    1SAPS   H9X  104   1.142   0.341   9.595  2.9578 -1.7198 -3.1583
    1SAPS   H9Y  105   0.982   0.387   9.523 -1.5352 -0.0464  0.2303
    1SAPS  C310  106   1.142   0.289   9.394 -0.1208  0.7214 -0.0867
    1SAPS  H10X  107   1.068   0.248   9.322 -2.0865  1.0038  1.6673
    1SAPS  H10Y  108   1.228   0.221   9.406 -2.3225 -2.5434 -1.1917
    1SAPS  C311  109   1.195   0.421   9.333  0.4734  0.3582 -0.6865
    1SAPS  H11X  110   1.246   0.476   9.415 -1.2259  1.2697 -0.1976
    1SAPS  H11Y  111   1.109   0.485   9.305 -0.7134 -0.2640  1.3653
    1SAPS  C312  112   1.292   0.391   9.219  0.0398 -0.2129  1.1064
    1SAPS  H12X  113   1.247   0.320   9.147 -0.3660  1.4293 -0.3172
    1SAPS  H12Y  114   1.382   0.337   9.257 -1.1914 -2.3016  1.2214
    1SAPS  C313  115   1.333   0.520   9.151  0.2782 -0.6220 -0.0507
    1SAPS  H13X  116   1.362   0.596   9.227  1.3433  1.0769 -2.0413
    1SAPS  H13Y  117   1.250   0.550   9.084  0.0008 -1.7934 -0.2424
    1SAPS  C314  118   1.449   0.507   9.058 -0.0681  0.5984 -0.4720
    1SAPS  H14X  119   1.418   0.423   8.992 -1.4992  0.8385 -0.1299
    1SAPS  H14Y  120   1.530   0.456   9.115 -1.7686 -0.4169  1.1385
    1SAPS  C315  121   1.481   0.630   8.980  0.3827 -0.5237  0.2255
    1SAPS  H15X  122   1.486   0.712   9.054  0.1497 -1.6922  1.5745
    1SAPS  H15Y  123   1.394   0.654   8.915  0.2578  0.0048  0.5857
    1SAPS  C316  124   1.621   0.623   8.914 -0.0303 -0.5395  0.1601
    1SAPS  H16X  125   1.693   0.630   8.998 -2.8348  0.9072  2.6647
    1SAPS  H16Y  126   1.636   0.720   8.861  2.3638  0.3277  2.2395
    1SAPS  C317  127   1.641   0.506   8.826 -0.2279  0.0117 -0.3355
    1SAPS  H17X  128   1.699   0.528   8.735  1.5901 -1.1668  0.4736
    1SAPS  H17Y  129   1.549   0.456   8.788 -0.2191  0.9305 -1.6160
    1SAPS  C318  130   1.718   0.387   8.898  0.1215  0.5229 -0.5103
    1SAPS  H18X  131   1.763   0.324   8.818 -1.4967 -0.3627 -0.7763
    1SAPS  H18Y  132   1.646   0.316   8.944  3.6988 -2.3872  1.1058
    1SAPS  H18Z  133   1.797   0.427   8.965  0.2670  0.1080 -0.4334
    2SAPS     N  134   1.149   1.822  10.418  0.0396 -0.0724 -0.2179
    2SAPS   HN1  135   1.087   1.902  10.396 -0.0229 -0.1913 -0.4830
    2SAPS   HN2  136   1.242   1.846  10.377  0.1149  2.2057  1.1411
    2SAPS   HN3  137   1.104   1.747  10.362  0.2580  0.0344 -0.5417
    2SAPS   C12  138   1.152   1.785  10.559  0.0605 -0.4600 -0.4290
    2SAPS  H12A  139   1.052   1.755  10.589 -0.9970  0.8942 -2.3862
    2SAPS   C13  140   1.247   1.663  10.590 -0.4298 -0.0379 -0.1557
    2SAPS  O13A  141   1.293   1.592  10.494 -0.0744  0.4865 -0.8224
    2SAPS  O13B  142   1.246   1.625  10.708 -0.3468  0.0881 -0.9061
    2SAPS   C11  143   1.226   1.905  10.639 -0.2996  0.4226  0.2267
    2SAPS  H11A  144   1.324   1.916  10.589 -1.5098  4.7797 -1.6288
    2SAPS  H11B  145   1.249   1.882  10.745  0.1748  1.9329  0.4791
    2SAPS     P  146   1.017   2.068  10.687 -0.0216  0.3161  0.0456
    2SAPS   O13  147   0.936   1.943  10.702 -0.1025 -0.4401 -0.1496
    2SAPS   O14  148   1.049   2.157  10.807 -0.3264  0.1260  0.2685
    2SAPS   O12  149   1.158   2.033  10.614  0.6844  0.0340  0.5421
    2SAPS   O11  150   0.946   2.150  10.581 -0.6178 -0.3920 -0.2531
    2SAPS    C1  151   0.986   2.274  10.528 -0.3869 -0.2509 -0.1593
    2SAPS    HA  152   1.025   2.331  10.614  0.8026 -0.6131 -0.4442
    2SAPS    HB  153   1.064   2.255  10.452 -0.3001 -0.7159  0.0445
    2SAPS    C2  154   0.861   2.343  10.461  0.3607  0.5933  0.2626
    2SAPS    HS  155   0.772   2.341  10.527  0.6803  0.7878  0.7012
    2SAPS   O21  156   0.839   2.280  10.341 -0.3557  0.3276  0.0557
    2SAPS   C21  157   0.717   2.294  10.288  0.8307 -0.0929  0.2198
    2SAPS   O22  158   0.628   2.342  10.352  0.2801 -0.0820 -0.0699
    2SAPS   C22  159   0.711   2.247  10.143 -0.4284 -0.5905  0.0238
    2SAPS   H2R  160   0.803   2.278  10.089 -0.0264 -3.3073 -0.9933
    2SAPS   H2S  161   0.711   2.136  10.137 -0.8474 -0.5416 -0.9141
    2SAPS    C3  162   0.892   2.496  10.430  0.2476  0.2088  0.3308
    2SAPS    HX  163   0.903   2.536  10.533 -1.7565  0.0722  0.6495
    2SAPS    HY  164   0.805   2.552  10.387  1.2369  3.2380  1.9410
    2SAPS   O31  165   1.011   2.526  10.359 -0.3539  0.7463 -0.5838
    2SAPS   C31  166   1.004   2.542  10.229 -0.5041  0.1380  0.2322
    2SAPS   O32  167   0.902   2.529  10.158 -0.5141 -0.3162  0.6644
    2SAPS   C32  168   1.143   2.561  10.181 -1.2248 -0.1577  0.1738
    2SAPS   H2X  169   1.159   2.494  10.094  1.9456  0.8234 -0.1112
    2SAPS   H2Y  170   1.216   2.521  10.254 -0.5260 -0.8212 -0.8713
    2SAPS   C23  171   0.594   2.309  10.070  0.0759 -0.1825  0.0273
    2SAPS   H3R  172   0.595   2.419  10.060 -0.1372 -0.3064 -1.6124
    2SAPS   H3S  173   0.502   2.278  10.124 -1.8932  1.0170 -2.4631
    2SAPS   C24  174   0.573   2.255   9.928 -0.6110  0.1002  0.4840
    2SAPS   H4R  175   0.477   2.296   9.890 -0.8998 -1.9459 -1.1809
    2SAPS   H4S  176   0.551   2.146   9.929  1.3244 -0.4826 -2.9401
    2SAPS   C25  177   0.678   2.298   9.829 -0.3065 -1.1350  0.4974
    2SAPS   H5R  178   0.768   2.236   9.845  2.2270  2.0903 -0.1632
    2SAPS   C26  179   0.673   2.391   9.732  0.1560  0.4453 -0.4115
    2SAPS   H6R  180   0.760   2.398   9.665 -0.4416  1.2711 -1.1339
    2SAPS   C27  181   0.548   2.469   9.693  0.0442  0.2619  0.3382
    2SAPS   H7R  182   0.503   2.520   9.782 -3.5253 -0.0273 -1.1211
    2SAPS   H7S  183   0.475   2.392   9.659  0.6827 -0.9099  1.4892
    2SAPS   C28  184   0.575   2.576   9.594 -0.0348 -0.4310  0.1471
    2SAPS   H8R  185   0.634   2.661   9.631  1.8231 -1.7220  0.2631
    2SAPS   C29  186   0.521   2.576   9.461 -0.5811  0.3982 -0.3409
    2SAPS   H9R  187   0.544   2.652   9.385  1.1530  1.4300  1.1204
    2SAPS  C210  188   0.422   2.475   9.399 -0.0595  1.0721  0.1821
    2SAPS  H10R  189   0.353   2.537   9.338  0.0369  1.3640  0.3690
    2SAPS  H10S  190   0.368   2.421   9.479 -0.5330  1.6916  0.2890
    2SAPS  C211  191   0.498   2.372   9.325 -0.1633 -0.6771 -0.4828
    2SAPS  H11R  192   0.600   2.354   9.363  0.1319 -0.1354 -0.9958
    2SAPS  C212  193   0.462   2.319   9.210  0.1665  0.7919 -0.6051
    2SAPS  H12R  194   0.529   2.240   9.172  2.2258  2.1549 -0.0154
    2SAPS  C213  195   0.332   2.346   9.140  0.0755 -1.1225  0.8598
    2SAPS  H13R  196   0.357   2.419   9.059 -0.0008 -1.6521  0.3489
    2SAPS  H13S  197   0.256   2.407   9.194  1.0429  1.3864 -0.4281
    2SAPS  C214  198   0.272   2.227   9.074  0.6947 -0.2483  0.4829
    2SAPS  H14R  199   0.345   2.149   9.050 -0.8001 -1.3340 -0.7262
    2SAPS  C215  200   0.140   2.208   9.067  0.1768 -0.8872 -0.0186
    2SAPS  H15R  201   0.111   2.108   9.031 -2.2550 -0.0145 -0.6359
    2SAPS  C216  202   0.032   2.298   9.104  0.2305  0.5068 -0.8635
    2SAPS  H16R  203   0.061   2.403   9.125  2.3533 -0.7219  3.5522
    2SAPS  H16S  204   0.005   2.263   9.206  1.5732 -0.1816 -0.7244
    2SAPS  C217  205  -0.084   2.303   9.004  0.1223 -0.0137  0.5983
    2SAPS  H17R  206  -0.096   2.199   8.967  1.7668 -0.8932  2.3691
    2SAPS  H17S  207  -0.061   2.367   8.916 -3.9081  0.7122 -0.0948
    2SAPS  C218  208  -0.221   2.349   9.063  0.4421 -0.0788 -0.4045
    2SAPS  H18R  209  -0.248   2.294   9.155  1.5818 -1.2835 -0.7503
    2SAPS  H18S  210  -0.296   2.324   8.986  0.1475 -0.8628  0.1283
    2SAPS  C219  211  -0.221   2.505   9.080  0.0626 -0.4392  0.1658
    2SAPS  H19R  212  -0.205   2.555   8.982 -2.9831  2.7025  1.0918
    2SAPS  H19S  213  -0.138   2.545   9.142 -0.0124  1.8136 -1.0736
    2SAPS  C220  214  -0.353   2.570   9.125 -0.5729 -0.2522  0.1090
    2SAPS  H20R  215  -0.346   2.546   9.233  1.4900  0.8363  0.2616
    2SAPS  H20S  216  -0.439   2.507   9.093 -0.9713  1.5864 -2.7847
    2SAPS  H20T  217  -0.385   2.673   9.098  0.1596  0.3817  1.5730
    2SAPS   C33  218   1.170   2.702  10.110  0.3700 -0.9310 -0.0531
    2SAPS   H3X  219   1.183   2.789  10.178  0.3613 -0.5471 -0.5352
    2SAPS   H3Y  220   1.071   2.730  10.069  0.2775  2.3835  2.0847
    2SAPS   C34  221   1.276   2.707   9.999  0.0991  0.0429  0.1310
    2SAPS   H4X  222   1.373   2.673  10.040  1.1986  1.8794 -0.8508
    2SAPS   H4Y  223   1.289   2.814   9.973  1.3790 -0.5125 -1.6885
    2SAPS   C35  224   1.247   2.637   9.863 -0.3564  0.2471  0.5162
    2SAPS   H5X  225   1.143   2.638   9.824 -0.1744  0.4635  0.0256
    2SAPS   H5Y  226   1.260   2.529   9.886  1.9604 -0.2697 -2.6232
    2SAPS   C36  227   1.341   2.691   9.754 -0.8136 -0.5074 -0.5804
    2SAPS   H6X  228   1.444   2.664   9.784 -0.5338  0.7524 -0.3512
    2SAPS   H6Y  229   1.340   2.802   9.763 -0.2333 -0.4410 -1.2434
    2SAPS   C37  230   1.297   2.641   9.610 -0.4080  1.0327 -0.2734
    2SAPS   H7X  231   1.191   2.670   9.596 -0.2740  1.8709  0.3076
    2SAPS   H7Y  232   1.303   2.531   9.601  1.8187  0.9604  1.2473
    2SAPS   C38  233   1.379   2.700   9.506 -0.0425 -0.1129 -0.3089
    2SAPS   H8X  234   1.488   2.686   9.521 -0.0770  1.2092  1.4196
    2SAPS   H8Y  235   1.364   2.810   9.509 -0.0136 -0.1216  0.3317
    2SAPS   C39  236   1.339   2.647   9.370  0.2039  0.0169  0.3905
    2SAPS   H9X  237   1.236   2.684   9.355  0.6493  0.7541 -1.0425
    2SAPS   H9Y  238   1.345   2.537   9.354 -1.2418  0.0349 -0.4544
    2SAPS  C310  239   1.426   2.707   9.261  0.0617  0.1366  0.7216
    2SAPS  H10X  240   1.528   2.665   9.266 -0.0550 -0.6093 -1.6596
    2SAPS  H10Y  241   1.448   2.816   9.252 -0.7056  0.1413 -3.6763
    2SAPS  C311  242   1.356   2.677   9.125 -0.0552  0.3043  0.1273
    2SAPS  H11X  243   1.252   2.715   9.125  0.2806  1.2462  0.7124
    2SAPS  H11Y  244   1.352   2.567   9.111 -0.7856  0.3100  0.3021
    2SAPS  C312  245   1.414   2.736   8.995 -0.2022 -0.1900  0.0302
    2SAPS  H12X  246   1.525   2.729   8.990 -0.1630 -0.0731  0.6529
    2SAPS  H12Y  247   1.386   2.843   8.991  1.2825  0.2399  0.2917
    2SAPS  C313  248   1.364   2.662   8.867  0.7300 -0.2059  0.6605
    2SAPS  H13X  249   1.254   2.658   8.859  0.3322  5.2015 -0.6563
    2SAPS  H13Y  250   1.408   2.560   8.861  0.2301 -0.4433  1.0363
    2SAPS  C314  251   1.419   2.727   8.743  0.4304 -0.6117  0.3715
    2SAPS  H14X  252   1.528   2.748   8.754 -0.0089  1.4709  1.3905
    2SAPS  H14Y  253   1.357   2.819   8.747 -1.0788 -1.5548 -0.5432
    2SAPS  C315  254   1.374   2.653   8.615 -0.0030 -0.3515 -0.6899
    2SAPS  H15X  255   1.386   2.732   8.538 -1.7939  0.3610 -0.2768
    2SAPS  H15Y  256   1.265   2.628   8.616  0.0650 -0.6249  0.0252
    2SAPS  C316  257   1.465   2.530   8.587  0.0486  1.5359 -0.2143
    2SAPS  H16X  258   1.428   2.442   8.643 -1.1306 -0.3016 -3.5589
    2SAPS  H16Y  259   1.572   2.553   8.607  0.7345 -0.8093 -0.8715
    2SAPS  C317  260   1.454   2.488   8.443  0.3993  0.3969  0.0171
    2SAPS  H17X  261   1.508   2.555   8.371  1.4630  0.0054  0.4265
    2SAPS  H17Y  262   1.351   2.473   8.405 -0.9351  3.7010  1.9747
    2SAPS  C318  263   1.534   2.359   8.416 -0.4322  0.1379 -0.5151
    2SAPS  H18X  264   1.521   2.278   8.490 -1.6595  0.5077 -0.3092
    2SAPS  H18Y  265   1.643   2.376   8.402 -0.1354 -0.2777  1.1337
    2SAPS  H18Z  266   1.503   2.318   8.317 -2.4781  2.6265 -1.0133
    3SAPS     N  267   2.478   4.176  11.243 -0.3505  0.5665  0.7041
    3SAPS   HN1  268   2.422   4.094  11.274  1.0925  0.2466  2.6339
    3SAPS   HN2  269   2.483   4.237  11.327 -0.0852  0.6653  0.6147
    3SAPS   HN3  270   2.420   4.228  11.174  0.5612  1.0263  0.2799
    3SAPS   C12  271   2.608   4.146  11.187  0.4776 -0.2377  0.2570
    3SAPS  H12A  272   2.632   4.227  11.119  0.8085  1.0451  1.8270
    3SAPS   C13  273   2.720   4.137  11.300  0.3456  0.2412 -0.6369
    3SAPS  O13A  274   2.701   4.195  11.413 -0.1824 -0.1669 -0.4002
    3SAPS  O13B  275   2.833   4.116  11.251 -0.3889 -0.5808 -0.5032
    3SAPS   C11  276   2.612   4.018  11.102  0.4209  0.8907 -1.2967
    3SAPS  H11A  277   2.600   3.929  11.168  1.1715  1.1509 -0.7896
    3SAPS  H11B  278   2.716   4.010  11.063  0.0012 -2.3557 -2.0236
    3SAPS     P  279   2.561   4.019  10.853 -0.2052  0.5111 -0.4538
    3SAPS   O13  280   2.656   3.908  10.837  0.5031 -0.9634  0.4123
    3SAPS   O14  281   2.440   4.017  10.763 -0.0957 -0.5105  0.1779
    3SAPS   O12  282   2.513   4.024  11.002  0.6469 -0.0683 -0.2081
    3SAPS   O11  283   2.629   4.159  10.841  0.3471  0.6045 -0.5025
    3SAPS    C1  284   2.568   4.284  10.823  0.2000 -0.3915  0.2706
    3SAPS    HA  285   2.483   4.286  10.751 -0.0496  1.6921  0.5468
    3SAPS    HB  286   2.530   4.313  10.923  1.9549 -0.2726  0.9429
    3SAPS    C2  287   2.679   4.389  10.797  1.0447 -0.2657 -0.1909
    3SAPS    HS  288   2.621   4.485  10.797  1.8517  0.2285 -0.3171
    3SAPS   O21  289   2.746   4.363  10.668  0.0563  0.4184  0.1493
    3SAPS   C21  290   2.680   4.392  10.561  0.4716  0.0329  0.1322
    3SAPS   O22  291   2.565   4.441  10.564 -0.5553 -0.3894  0.1274
    3SAPS   C22  292   2.777   4.361  10.442  0.1942  0.2085 -0.0980
    3SAPS   H2R  293   2.876   4.410  10.459  2.1088 -3.1996 -0.5043
    3SAPS   H2S  294   2.792   4.251  10.435  0.8135  0.1407  1.7449
    3SAPS    C3  295   2.787   4.396  10.909  0.8116 -0.3177 -0.0390
    3SAPS    HX  296   2.854   4.309  10.895  2.8135  1.2998 -1.0319
    3SAPS    HY  297   2.728   4.390  11.003  1.2260  2.6131  0.5100
    3SAPS   O31  298   2.858   4.523  10.912  0.2514  0.2098  0.4605
    3SAPS   C31  299   2.972   4.524  10.843 -0.1446  0.2510 -0.0669
    3SAPS   O32  300   3.037   4.425  10.807  0.6435 -0.4249 -0.8089
    3SAPS   C32  301   3.020   4.668  10.824  0.1317  0.3336  0.6737
    3SAPS   H2X  302   3.093   4.687  10.905  0.4457  1.6774  0.0985
    3SAPS   H2Y  303   2.937   4.741  10.824  1.6096  2.2083 -2.2483
    3SAPS   C23  304   2.713   4.406  10.312  0.1719  0.8315 -0.8355
    3SAPS   H3R  305   2.789   4.414  10.230 -1.3331  0.8808 -2.2791
    3SAPS   H3S  306   2.678   4.511  10.316  1.5574  1.3467 -1.5462
    3SAPS   C24  307   2.606   4.313  10.254  0.3928 -0.4140  0.2418
    3SAPS   H4R  308   2.550   4.290  10.347  1.3001 -0.3744  0.8182
    3SAPS   H4S  309   2.658   4.225  10.211 -0.3358 -0.0531 -1.4406
    3SAPS   C25  310   2.523   4.386  10.157  0.4382 -0.7685 -1.0022
    3SAPS   H5R  311   2.491   4.487  10.185  2.7751  0.2458 -1.7894
    3SAPS   C26  312   2.502   4.341  10.037  0.3170 -0.5108  0.2325
    3SAPS   H6R  313   2.438   4.401   9.971 -1.0925 -0.9365  1.1473
    3SAPS   C27  314   2.533   4.206   9.972 -0.2048  1.0343  0.0602
    3SAPS   H7R  315   2.602   4.133  10.020 -0.8139 -1.0968 -2.1220
    3SAPS   H7S  316   2.578   4.223   9.872 -2.0421  1.0493 -0.7988
    3SAPS   C28  317   2.400   4.140   9.951  0.7175 -0.7654 -0.1505
    3SAPS   H8R  318   2.331   4.129  10.036 -0.7256  3.2789 -0.5557
    3SAPS   C29  319   2.343   4.104   9.832 -0.2840  0.5337  0.1236
    3SAPS   H9R  320   2.248   4.051   9.846  0.8108 -1.7799 -0.6117
    3SAPS  C210  321   2.381   4.097   9.689 -0.5180  0.0071  0.5331
    3SAPS  H10R  322   2.484   4.135   9.672 -1.1813  0.3474 -3.8946
    3SAPS  H10S  323   2.309   4.167   9.640 -0.6392 -0.1427  0.4959
    3SAPS  C211  324   2.370   3.957   9.619  0.7300 -0.1774  0.2297
    3SAPS  H11R  325   2.322   3.877   9.676  0.9801 -1.6369 -1.5338
    3SAPS  C212  326   2.406   3.925   9.493 -0.7610  0.0344 -0.4426
    3SAPS  H12R  327   2.387   3.826   9.448  0.0707 -0.2393 -0.2059
    3SAPS  C213  328   2.467   4.022   9.397  0.5574  0.6604 -0.3137
    3SAPS  H13R  329   2.545   3.963   9.345 -0.6158 -0.1883 -1.1740
    3SAPS  H13S  330   2.520   4.107   9.443 -1.1112  2.3525 -1.3628
    3SAPS  C214  331   2.363   4.068   9.296 -0.5343 -0.0136  0.1437
    3SAPS  H14R  332   2.278   4.114   9.349  0.2091 -0.2819  1.6245
    3SAPS  C215  333   2.366   4.056   9.162  0.1895  0.5941 -0.3757
    3SAPS  H15R  334   2.282   4.079   9.095 -0.1777  0.1347 -0.0755
    3SAPS  C216  335   2.484   3.997   9.090  0.0513 -0.0303 -0.4521
    3SAPS  H16R  336   2.456   3.890   9.080 -1.6777  0.3651 -0.0395
    3SAPS  H16S  337   2.573   4.007   9.157 -0.0152  1.5409 -0.5745
    3SAPS  C217  338   2.510   4.048   8.951 -0.3789  0.6965 -0.4801
    3SAPS  H17R  339   2.414   4.027   8.900  0.3399  1.0449 -2.0297
    3SAPS  H17S  340   2.593   3.988   8.906 -0.3200  1.1348 -0.9564
    3SAPS  C218  341   2.534   4.200   8.954  0.2636 -0.3230 -0.8162
    3SAPS  H18R  342   2.626   4.225   9.012  1.1279 -1.7567 -1.5172
    3SAPS  H18S  343   2.441   4.236   9.003  0.9167  0.4909 -0.1348
    3SAPS  C219  344   2.533   4.269   8.813 -0.7924 -0.2705  0.1247
    3SAPS  H19R  345   2.547   4.379   8.819 -1.6784 -0.0354 -1.6563
    3SAPS  H19S  346   2.443   4.252   8.751  0.3407 -0.9558 -1.3946
    3SAPS  C220  347   2.648   4.219   8.722  0.0105 -0.4073 -0.8194
    3SAPS  H20R  348   2.657   4.108   8.726 -0.1786 -0.4195 -0.7393
    3SAPS  H20S  349   2.748   4.266   8.728  1.4838 -3.2664 -0.8899
    3SAPS  H20T  350   2.619   4.242   8.617  0.1897 -0.3908 -0.8665
    3SAPS   C33  351   3.101   4.693  10.687 -0.2128 -0.7413  0.1435
    3SAPS   H3X  352   3.190   4.626  10.679  2.5693  2.5242  1.1547
    3SAPS   H3Y  353   3.133   4.799  10.685  0.9827 -1.0867 -1.0713
    3SAPS   C34  354   3.013   4.679  10.567  0.1576 -0.8191  0.0328
    3SAPS   H4X  355   2.930   4.753  10.559 -0.4269 -1.5467 -0.9041
    3SAPS   H4Y  356   2.962   4.581  10.578 -0.2624 -0.7760 -1.2918
    3SAPS   C35  357   3.080   4.682  10.433 -0.1561 -0.5335  0.6965
    3SAPS   H5X  358   3.130   4.584  10.420 -0.4112 -0.9084  2.2805
    3SAPS   H5Y  359   3.155   4.764  10.432 -1.8784  1.1431  0.4398
    3SAPS   C36  360   2.986   4.697  10.312  0.5646 -0.2158  0.0166
    3SAPS   H6X  361   2.914   4.777  10.340  1.5004  0.6306  0.0559
    3SAPS   H6Y  362   2.932   4.600  10.301 -0.2691  0.0429  1.5755
    3SAPS   C37  363   3.074   4.708  10.192  0.5844  0.1697 -0.0695
    3SAPS   H7X  364   3.162   4.640  10.192  1.4435  1.2270  0.8854
    3SAPS   H7Y  365   3.119   4.810  10.202 -2.3858  1.3828  2.1344
    3SAPS   C38  366   2.994   4.715  10.065  0.3573  0.5948  0.7781
    3SAPS   H8X  367   2.913   4.791  10.072 -1.7529 -1.4072 -0.4900
    3SAPS   H8Y  368   2.937   4.620  10.059 -0.4792  1.1341 -0.0998
    3SAPS   C39  369   3.086   4.710   9.943 -0.3980  0.4754 -0.3630
    3SAPS   H9X  370   3.095   4.602   9.922 -0.1692  0.2231  0.9537
    3SAPS   H9Y  371   3.181   4.754   9.980  0.1990 -1.9321  1.1370
    3SAPS  C310  372   3.041   4.796   9.829  0.3738 -0.0314  0.1695
    3SAPS  H10X  373   3.073   4.901   9.844  0.5355  0.2145 -1.6983
    3SAPS  H10Y  374   2.931   4.781   9.818  0.4069 -1.2395  1.2389
    3SAPS  C311  375   3.092   4.739   9.698  0.0659 -0.1900  0.6676
    3SAPS  H11X  376   3.082   4.628   9.701 -1.3429 -0.2092 -1.8979
    3SAPS  H11Y  377   3.193   4.767   9.663  0.8037 -1.5692  1.6239
    3SAPS  C312  378   2.993   4.781   9.582 -0.2783  0.0934  0.1029
    3SAPS  H12X  379   2.990   4.889   9.555  0.8163 -0.1452 -1.1265
    3SAPS  H12Y  380   2.891   4.754   9.615 -0.2774  1.7625  1.5986
    3SAPS  C313  381   3.015   4.696   9.451  0.2218 -0.2958 -0.2481
    3SAPS  H13X  382   3.007   4.588   9.478 -5.3942  0.1598  1.2834
    3SAPS  H13Y  383   3.116   4.719   9.413 -0.1442  0.4022 -0.7953
    3SAPS  C314  384   2.908   4.736   9.348 -0.1882  0.6097  0.7187
    3SAPS  H14X  385   2.915   4.847   9.335 -1.4113  0.7787  1.3497
    3SAPS  H14Y  386   2.804   4.709   9.377 -0.0239 -0.8619  0.0231
    3SAPS  C315  387   2.962   4.673   9.217 -0.9061  0.2116  0.6689
    3SAPS  H15X  388   2.956   4.562   9.217  0.1932  0.1098 -1.4190
    3SAPS  H15Y  389   3.068   4.702   9.207 -0.6248 -0.7025  0.9399
    3SAPS  C316  390   2.876   4.733   9.100 -0.8144 -0.2887  0.2781
    3SAPS  H16X  391   2.911   4.837   9.088 -1.3598 -0.2257 -0.8395
    3SAPS  H16Y  392   2.770   4.730   9.132 -0.2239 -1.2031  2.3761
    3SAPS  C317  393   2.909   4.654   8.973 -0.4686 -0.6583  0.1890
    3SAPS  H17X  394   2.880   4.550   8.997 -0.4819 -0.3722  1.4982
    3SAPS  H17Y  395   3.016   4.651   8.941 -0.7095  0.1245 -0.7542
    3SAPS  C318  396   2.830   4.712   8.855 -0.2426  0.3315  0.1988
    3SAPS  H18X  397   2.895   4.726   8.766  0.9789 -0.9818  0.8339
    3SAPS  H18Y  398   2.772   4.804   8.878  0.2938  1.0499 -1.2042
    3SAPS  H18Z  399   2.755   4.638   8.822  0.1726 -0.4703  1.0132
    4SAPS     N  400   4.422   3.929  10.635 -0.0395 -0.4185  0.4955
    4SAPS   HN1  401   4.456   4.011  10.580  2.8386 -1.1095  1.0482
    4SAPS   HN2  402   4.487   3.855  10.602  1.7004  1.4969 -0.6071
    4SAPS   HN3  403   4.326   3.911  10.601  0.5643 -0.5297 -1.2642
    4SAPS   C12  404   4.434   3.961  10.778  0.6772 -0.5528  0.5439
    4SAPS  H12A  405   4.358   4.035  10.800  0.8493 -1.0599  3.1861
    4SAPS   C13  406   4.422   3.839  10.877  0.2447 -0.9661  0.3359
    4SAPS  O13A  407   4.409   3.719  10.851 -0.1487  0.2845  0.5746
    4SAPS  O13B  408   4.447   3.872  10.994 -0.4299 -0.6011 -0.5068
    4SAPS   C11  409   4.565   4.023  10.810 -0.1443 -0.2540 -0.0239
    4SAPS  H11A  410   4.568   4.067  10.912 -1.6461  0.5703 -0.3070
    4SAPS  H11B  411   4.553   4.118  10.754 -3.3372 -0.0568  0.7898
    4SAPS     P  412   4.823   3.996  10.776 -0.2537 -0.3290 -0.3904
    4SAPS   O13  413   4.824   4.144  10.792  0.5090  0.0798 -0.1318
    4SAPS   O14  414   4.895   3.909  10.874  0.9471 -0.2600 -0.2867
    4SAPS   O12  415   4.677   3.942  10.762  0.7461  0.5653 -0.2693
    4SAPS   O11  416   4.899   3.968  10.636 -0.1288  0.7431 -0.4482
    4SAPS    C1  417   4.886   3.848  10.562 -0.3596  0.2656 -0.9459
    4SAPS    HA  418   4.967   3.778  10.593 -0.8702  0.4561  0.9559
    4SAPS    HB  419   4.789   3.800  10.588 -0.0557 -0.9099 -1.8942
    4SAPS    C2  420   4.870   3.859  10.406  0.6731 -0.5342 -0.0335
    4SAPS    HS  421   4.844   3.757  10.372  1.8772 -0.7127 -0.4398
    4SAPS   O21  422   4.997   3.901  10.350 -0.1204 -0.1658  0.0239
    4SAPS   C21  423   5.086   3.813  10.334  0.2469 -0.3904 -0.6500
    4SAPS   O22  424   5.064   3.692  10.355 -0.2682  0.2095  0.0651
    4SAPS   C22  425   5.205   3.884  10.278 -0.1404 -0.1455 -0.3351
    4SAPS   H2R  426   5.183   3.931  10.180 -0.0467  0.8766  0.1154
    4SAPS   H2S  427   5.232   3.970  10.343  1.2773  1.8638 -3.3442
    4SAPS    C3  428   4.756   3.958  10.368 -0.1850  0.3408 -0.1277
    4SAPS    HX  429   4.790   4.042  10.431  2.0785 -1.5897  1.4099
    4SAPS    HY  430   4.655   3.921  10.396  0.3028 -1.1868 -0.2925
    4SAPS   O31  431   4.755   3.999  10.225 -0.1771  0.8710 -0.6590
    4SAPS   C31  432   4.697   3.912  10.142 -0.7890 -0.4470  0.1763
    4SAPS   O32  433   4.656   3.802  10.168  0.2335 -0.0738 -0.2827
    4SAPS   C32  434   4.702   3.977  10.003 -0.1332  0.7786 -0.2304
    4SAPS   H2X  435   4.806   4.008   9.980  0.2245  0.1383  0.4766
    4SAPS   H2Y  436   4.638   4.067  10.014  1.6032  1.7548  3.2055
    4SAPS   C23  437   5.319   3.787  10.261 -0.3895 -0.3538  0.1930
    4SAPS   H3R  438   5.297   3.745  10.161 -1.6656  0.1460  0.2321
    4SAPS   H3S  439   5.312   3.709  10.340 -0.0492  0.0668  0.6429
    4SAPS   C24  440   5.464   3.857  10.268 -0.9600  0.5064 -0.6304
    4SAPS   H4R  441   5.481   3.919  10.358 -1.4242 -1.5591  0.9682
    4SAPS   H4S  442   5.469   3.918  10.175 -1.2401  0.9165 -0.3773
    4SAPS   C25  443   5.566   3.745  10.261 -0.7198 -0.2496  0.0009
    4SAPS   H5R  444   5.566   3.676  10.346 -1.0435 -0.4642 -0.1717
    4SAPS   C26  445   5.649   3.728  10.154  0.1235 -0.0150 -0.1335
    4SAPS   H6R  446   5.722   3.646  10.152  0.0592 -0.0883  0.4046
    4SAPS   C27  447   5.651   3.810  10.031 -0.1311  0.3019 -0.0102
    4SAPS   H7R  448   5.750   3.805   9.981 -0.0015  1.3482  0.1128
    4SAPS   H7S  449   5.652   3.917  10.061  1.5213  0.5224 -0.7345
    4SAPS   C28  450   5.543   3.776   9.932  0.0569 -0.2449 -0.0860
    4SAPS   H8R  451   5.442   3.809   9.960  1.1196  0.6905  3.0778
    4SAPS   C29  452   5.560   3.723   9.808  0.0692 -0.3019 -0.1905
    4SAPS   H9R  453   5.470   3.690   9.752  0.3252 -0.3855 -0.5579
    4SAPS  C210  454   5.682   3.682   9.734 -0.1255 -0.5164 -0.4084
    4SAPS  H10R  455   5.766   3.669   9.806 -1.0473  0.5997  0.9256
    4SAPS  H10S  456   5.720   3.753   9.658  0.5186  1.0575  1.3230
    4SAPS  C211  457   5.658   3.550   9.674  0.2106 -0.5602 -0.1162
    4SAPS  H11R  458   5.641   3.479   9.756  0.0805  0.4191  0.7255
    4SAPS  C212  459   5.639   3.513   9.544 -0.7733 -0.1595  0.3481
    4SAPS  H12R  460   5.634   3.408   9.512  0.4742  0.8809 -3.9378
    4SAPS  C213  461   5.640   3.599   9.421  0.0599  0.1352 -0.9265
    4SAPS  H13R  462   5.612   3.703   9.448 -1.6504 -0.6226  0.4072
    4SAPS  H13S  463   5.562   3.560   9.352 -1.2868 -1.9926  1.5826
    4SAPS  C214  464   5.777   3.600   9.347  0.5555  0.0844  0.2105
    4SAPS  H14R  465   5.858   3.535   9.382 -0.3006 -1.0303  0.1836
    4SAPS  C215  466   5.797   3.673   9.235  0.1892  0.2574  0.0168
    4SAPS  H15R  467   5.898   3.669   9.190  1.8559 -1.7308  3.5217
    4SAPS  C216  468   5.697   3.764   9.170 -0.0525 -0.6871 -0.0623
    4SAPS  H16R  469   5.750   3.860   9.152 -1.7934 -0.1939 -3.1117
    4SAPS  H16S  470   5.614   3.791   9.239  0.7958  1.5735  0.1621
    4SAPS  C217  471   5.648   3.727   9.025 -0.6897  0.0835 -0.8571
    4SAPS  H17R  472   5.743   3.703   8.972 -0.3450 -1.7672  0.4756
    4SAPS  H17S  473   5.591   3.811   8.980 -2.3458 -0.6087 -0.1149
    4SAPS  C218  474   5.567   3.602   9.030  0.2896  0.1912  0.2027
    4SAPS  H18R  475   5.486   3.630   9.100  0.2954 -1.3760  0.8776
    4SAPS  H18S  476   5.635   3.525   9.071  0.6912 -0.1884 -1.1096
    4SAPS  C219  477   5.483   3.572   8.900  0.4496 -0.4776 -0.5729
    4SAPS  H19R  478   5.481   3.665   8.840 -0.8376  0.2205  0.4995
    4SAPS  H19S  479   5.380   3.540   8.926  0.2895 -1.9119 -2.7456
    4SAPS  C220  480   5.531   3.450   8.825 -0.6175  0.3640  0.2966
    4SAPS  H20R  481   5.470   3.440   8.732 -0.4935  1.9104  0.0084
    4SAPS  H20S  482   5.507   3.365   8.891  0.2823  0.0241  0.1899
    4SAPS  H20T  483   5.639   3.439   8.802 -1.0106 -1.1145 -0.9693
    4SAPS   C33  484   4.640   3.889   9.890  0.1761  0.7145 -0.6508
    4SAPS   H3X  485   4.610   3.940   9.796  3.9213  2.2517 -1.1659
    4SAPS   H3Y  486   4.561   3.821   9.929 -0.5777  0.8997 -1.8107
    4SAPS   C34  487   4.732   3.772   9.839  0.0171 -0.3712 -0.0678
    4SAPS   H4X  488   4.776   3.711   9.922 -2.7888 -0.9108  1.1553
    4SAPS   H4Y  489   4.820   3.807   9.782  0.7241 -0.9272  0.6543
    4SAPS   C35  490   4.666   3.684   9.725 -0.1422 -0.1167 -0.3755
    4SAPS   H5X  491   4.622   3.747   9.645  0.7989  1.3548  0.2200
    4SAPS   H5Y  492   4.586   3.628   9.779  0.8812 -0.2535  1.0665
    4SAPS   C36  493   4.773   3.599   9.660  0.0644  0.3445  0.0909
    4SAPS   H6X  494   4.793   3.519   9.735 -0.4852 -0.9199 -1.0536
    4SAPS   H6Y  495   4.867   3.651   9.635 -0.1486  0.6660 -0.0398
    4SAPS   C37  496   4.724   3.534   9.531 -0.5092 -0.7205 -0.0320
    4SAPS   H7X  497   4.711   3.616   9.458  1.6643  2.5967  2.9615
    4SAPS   H7Y  498   4.621   3.500   9.559 -0.6649 -1.0001 -0.9221
    4SAPS   C38  499   4.807   3.415   9.493  0.0231 -0.1619 -1.0981
    4SAPS   H8X  500   4.800   3.348   9.581 -1.8191  1.9051  0.4076
    4SAPS   H8Y  501   4.913   3.442   9.475 -0.2806  2.2619  0.3375
    4SAPS   C39  502   4.739   3.346   9.368 -0.5956 -0.2405 -0.1867
    4SAPS   H9X  503   4.722   3.431   9.298  0.4367 -0.2358 -0.4597
    4SAPS   H9Y  504   4.648   3.302   9.414 -1.7293  1.4462 -0.7294
    4SAPS  C310  505   4.821   3.227   9.304  0.3790 -0.5120 -0.6392
    4SAPS  H10X  506   4.847   3.157   9.387 -1.3801 -0.8921 -0.3611
    4SAPS  H10Y  507   4.907   3.273   9.251  0.8170 -0.5424  0.0253
    4SAPS  C311  508   4.747   3.163   9.187 -0.4637  0.3639 -0.2012
    4SAPS  H11X  509   4.732   3.235   9.104 -0.2002 -1.2527 -1.6859
    4SAPS  H11Y  510   4.648   3.124   9.219  0.3240 -1.5672  0.0236
    4SAPS  C312  511   4.835   3.059   9.113  0.4428 -0.3687 -0.0702
    4SAPS  H12X  512   4.848   2.972   9.181 -0.2567  0.9118  1.7596
    4SAPS  H12Y  513   4.940   3.084   9.087  0.6219 -0.3741  0.6531
    4SAPS  C313  514   4.768   3.016   8.986  0.6446  0.8670 -0.3502
    4SAPS  H13X  515   4.749   3.102   8.918 -1.0321  0.4755 -0.4151
    4SAPS  H13Y  516   4.669   2.972   9.006  0.6260  1.3803  0.8189
    4SAPS  C314  517   4.869   2.933   8.895  0.1157  0.1876 -0.3899
    4SAPS  H14X  518   4.960   2.994   8.878  0.1425 -0.0166 -1.0236
    4SAPS  H14Y  519   4.812   2.902   8.805 -0.0483  1.2963 -0.6773
    4SAPS  C315  520   4.921   2.801   8.963 -0.1958  0.4115  0.3778
    4SAPS  H15X  521   4.835   2.738   8.995 -0.3342  0.3135 -0.1941
    4SAPS  H15Y  522   4.975   2.824   9.058  1.2281 -2.0112  0.2344
    4SAPS  C316  523   5.022   2.721   8.875  0.8618  0.0721  0.3761
    4SAPS  H16X  524   5.061   2.651   8.952  0.0993  0.8018  1.4745
    4SAPS  H16Y  525   5.103   2.794   8.854  0.6359  0.2456  0.0961
    4SAPS  C317  526   4.959   2.665   8.751  0.1025  0.0352 -0.0422
    4SAPS  H17X  527   4.926   2.737   8.674 -2.7305 -0.6102  0.4645
    4SAPS  H17Y  528   4.875   2.600   8.783  0.6987 -0.8885 -0.3141
    4SAPS  C318  529   5.052   2.557   8.682  0.0395 -0.4770  0.0030
    4SAPS  H18X  530   5.064   2.466   8.745 -1.9001  0.4505  1.8192
    4SAPS  H18Y  531   5.152   2.595   8.651  0.8705 -1.8492  0.8594
    4SAPS  H18Z  532   4.997   2.514   8.596 -1.3416 -1.4083  1.3026
    5SAPS     N  533   0.693   2.621  11.024 -0.2827  0.0159 -0.2757
    5SAPS   HN1  534   0.700   2.722  11.045 -2.4420 -0.1128  1.3804
    5SAPS   HN2  535   0.777   2.574  11.063  0.7022  0.2664 -1.9772
    5SAPS   HN3  536   0.682   2.595  10.923 -1.7228  0.8801 -0.3572
    5SAPS   C12  537   0.562   2.584  11.093  0.1902 -0.1649 -0.0684
    5SAPS  H12A  538   0.543   2.481  11.068  1.6832 -0.4410 -0.1582
    5SAPS   C13  539   0.577   2.569  11.246  0.2387  0.5341 -0.0507
    5SAPS  O13A  540   0.687   2.531  11.296 -0.3140 -0.3970  0.1139
    5SAPS  O13B  541   0.469   2.554  11.312 -0.7061  0.3690 -0.3596
    5SAPS   C11  542   0.448   2.679  11.045 -0.1592 -0.6915 -0.0717
    5SAPS  H11A  543   0.363   2.672  11.116 -0.5747  0.1065 -0.4853
    5SAPS  H11B  544   0.398   2.651  10.949  1.5230  0.2100 -1.2682
    5SAPS     P  545   0.398   2.937  11.029  0.0734  0.1356  0.3356
    5SAPS   O13  546   0.279   2.904  11.105 -0.6166 -0.4562  0.2429
    5SAPS   O14  547   0.471   3.055  11.067 -0.2665 -0.8310 -0.1971
    5SAPS   O12  548   0.488   2.815  11.037 -0.1719 -0.2113 -0.3695
    5SAPS   O11  549   0.385   2.948  10.873  0.9007 -0.2954  0.0962
    5SAPS    C1  550   0.497   2.984  10.788  0.1380 -0.1948 -0.1540
    5SAPS    HA  551   0.498   3.094  10.772  0.1185 -0.3156 -1.0513
    5SAPS    HB  552   0.591   2.954  10.840  0.4126 -1.6977 -1.4608
    5SAPS    C2  553   0.489   2.913  10.651  0.2760 -0.1871  0.0359
    5SAPS    HS  554   0.518   2.808  10.675  0.7283 -0.0656  0.0261
    5SAPS   O21  555   0.583   2.973  10.567 -0.5095  0.3915  0.3909
    5SAPS   C21  556   0.701   2.902  10.547 -0.3758  0.4662  0.5286
    5SAPS   O22  557   0.724   2.790  10.594 -0.0383 -0.0618 -0.0389
    5SAPS   C22  558   0.753   2.965  10.414  0.2393 -0.1080  0.3292
    5SAPS   H2R  559   0.711   2.903  10.332  1.5518 -0.6375  0.0247
    5SAPS   H2S  560   0.723   3.071  10.403  0.0653 -0.2501 -0.6092
    5SAPS    C3  561   0.348   2.911  10.593  0.0133  0.4785 -0.2388
    5SAPS    HX  562   0.300   3.010  10.604 -0.8142  0.0908 -0.3425
    5SAPS    HY  563   0.286   2.849  10.661  1.6263 -1.0825 -0.0988
    5SAPS   O31  564   0.351   2.857  10.461 -0.0461  0.0786  0.2237
    5SAPS   C31  565   0.358   2.723  10.441  0.4514  0.7732  0.1138
    5SAPS   O32  566   0.389   2.643  10.526 -0.2610  0.2260  0.5485
    5SAPS   C32  567   0.310   2.697  10.304 -0.1394 -0.0571 -0.1645
    5SAPS   H2X  568   0.247   2.782  10.272 -0.5443  0.5428  2.0249
    5SAPS   H2Y  569   0.242   2.610  10.316  1.4390 -1.2639  0.5557
    5SAPS   C23  570   0.913   2.958  10.395 -0.2888 -0.0353 -0.5835
    5SAPS   H3R  571   0.950   2.859  10.431 -3.0635 -0.3535  1.6733
    5SAPS   H3S  572   0.966   3.033  10.458  0.0180 -1.1637  0.5492
    5SAPS   C24  573   0.947   2.965  10.248 -0.5358 -0.0401  0.6556
    5SAPS   H4R  574   0.943   2.862  10.207  0.8987  0.1364 -0.0089
    5SAPS   H4S  575   1.056   2.979  10.264 -0.0166 -2.3396 -0.4329
    5SAPS   C25  576   0.893   3.077  10.160 -0.5430  0.3303  0.4030
    5SAPS   H5R  577   0.805   3.124  10.207  0.3890 -0.1662  2.8083
    5SAPS   C26  578   0.932   3.108  10.031  0.3235 -0.3550  0.2205
    5SAPS   H6R  579   0.891   3.198   9.983  2.2406 -1.0181 -2.9275
    5SAPS   C27  580   1.045   3.029   9.967  0.4109 -0.2314  0.0559
    5SAPS   H7R  581   0.996   2.973   9.885 -1.4931 -0.7006  1.4684
    5SAPS   H7S  582   1.084   2.950  10.035 -2.0736 -0.3678  1.4217
    5SAPS   C28  583   1.160   3.119   9.925 -0.0342 -0.7563  0.5460
    5SAPS   H8R  584   1.223   3.154  10.008  0.8176 -0.5245 -0.1904
    5SAPS   C29  585   1.185   3.168   9.805  0.1651  0.0988 -0.2249
    5SAPS   H9R  586   1.278   3.225   9.790  0.0808 -0.1522 -1.8321
    5SAPS  C210  587   1.107   3.141   9.680 -0.4524 -0.3106  0.6381
    5SAPS  H10R  588   1.100   3.235   9.622  1.4452 -1.3046 -1.3610
    5SAPS  H10S  589   1.008   3.100   9.712  0.4979 -2.8196  0.6519
    5SAPS  C211  590   1.178   3.041   9.590 -0.9598  0.4239 -0.4471
    5SAPS  H11R  591   1.210   2.948   9.640 -0.5245  0.4947 -0.5895
    5SAPS  C212  592   1.204   3.051   9.457  0.1371  0.7066 -0.2747
    5SAPS  H12R  593   1.253   2.965   9.411 -3.2104 -2.0967  0.9626
    5SAPS  C213  594   1.160   3.159   9.360  0.3797 -0.4881  0.3372
    5SAPS  H13R  595   1.249   3.198   9.306 -1.2182  1.3232 -1.1688
    5SAPS  H13S  596   1.121   3.246   9.418 -0.9472 -0.9892  0.2250
    5SAPS  C214  597   1.043   3.115   9.269 -0.0834 -0.2007 -0.0474
    5SAPS  H14R  598   0.945   3.111   9.318  0.4986 -1.1485  1.1035
    5SAPS  C215  599   1.051   3.085   9.140  0.9295  0.0669  0.2089
    5SAPS  H15R  600   0.958   3.058   9.088  0.5115  0.6522  0.6378
    5SAPS  C216  601   1.159   3.077   9.047 -0.4500 -0.6721  0.3760
    5SAPS  H16R  602   1.253   3.060   9.104 -0.8771  0.2265  1.3810
    5SAPS  H16S  603   1.167   3.172   8.991  0.9857  0.4415  2.3191
    5SAPS  C217  604   1.128   2.964   8.945 -0.3091  0.2487  0.4030
    5SAPS  H17R  605   1.107   2.866   8.991 -1.3818  0.7488  1.0044
    5SAPS  H17S  606   1.224   2.945   8.892 -0.8341  0.7285 -0.7446
    5SAPS  C218  607   1.010   2.986   8.841  0.8233 -0.3141  0.7207
    5SAPS  H18R  608   0.922   3.009   8.906  0.2777  0.2910 -0.2070
    5SAPS  H18S  609   1.034   3.074   8.778 -0.2728 -0.4220  0.1253
    5SAPS  C219  610   0.976   2.865   8.753 -0.1832  0.0428 -0.3780
    5SAPS  H19R  611   0.874   2.867   8.708 -1.0794 -1.2864  1.4484
    5SAPS  H19S  612   0.972   2.768   8.807 -0.2406  0.5826  0.6126
    5SAPS  C220  613   1.077   2.841   8.639  0.2624  1.3666 -0.4627
    5SAPS  H20R  614   1.180   2.835   8.679  0.3481 -1.3752 -0.8884
    5SAPS  H20S  615   1.076   2.934   8.578  0.7181  1.0167 -1.0041
    5SAPS  H20T  616   1.048   2.753   8.578 -1.9827 -1.1346  3.6950
    5SAPS   C33  617   0.421   2.645  10.212  0.1272 -0.7580  0.1240
    5SAPS   H3X  618   0.369   2.597  10.127 -2.7367  1.5222  0.4340
    5SAPS   H3Y  619   0.497   2.578  10.258 -0.4629 -1.6376 -0.1498
    5SAPS   C34  620   0.490   2.760  10.141  0.5322 -0.4125  0.6677
    5SAPS   H4X  621   0.511   2.840  10.215  0.3014  2.4676 -2.1642
    5SAPS   H4Y  622   0.425   2.816  10.070 -1.3273 -1.6245  1.3391
    5SAPS   C35  623   0.620   2.709  10.066 -0.5110  0.0452  0.1050
    5SAPS   H5X  624   0.607   2.604  10.033 -1.9665  0.6289 -1.3629
    5SAPS   H5Y  625   0.700   2.706  10.143  0.2697 -0.4101 -0.7046
    5SAPS   C36  626   0.659   2.804   9.955  0.0001 -0.3969  0.0017
    5SAPS   H6X  627   0.663   2.903  10.005 -0.7112 -0.4133  0.1076
    5SAPS   H6Y  628   0.579   2.799   9.878  2.5919  0.5728 -2.9704
    5SAPS   C37  629   0.794   2.768   9.886  0.2143  0.4482 -1.0272
    5SAPS   H7X  630   0.792   2.659   9.864 -0.1083  0.2028  0.1506
    5SAPS   H7Y  631   0.878   2.802   9.950 -0.7071  0.3976  0.2429
    5SAPS   C38  632   0.809   2.847   9.750  0.0571 -0.6551 -0.8567
    5SAPS   H8X  633   0.835   2.954   9.767 -0.1410 -0.6293 -0.7097
    5SAPS   H8Y  634   0.714   2.850   9.692  1.3326  1.0473 -3.0189
    5SAPS   C39  635   0.908   2.775   9.661  0.0928  0.0671  0.3177
    5SAPS   H9X  636   0.894   2.665   9.653  1.7072 -0.1218 -0.2452
    5SAPS   H9Y  637   1.007   2.790   9.708  0.5558  2.1781 -1.1434
    5SAPS  C310  638   0.925   2.823   9.521  0.3682 -0.6026 -0.1133
    5SAPS  H10X  639   1.029   2.820   9.483  0.1022 -2.0864 -0.7786
    5SAPS  H10Y  640   0.891   2.929   9.520  2.3165  0.0526 -0.0982
    5SAPS  C311  641   0.833   2.761   9.421 -0.5702 -0.6476 -0.2009
    5SAPS  H11X  642   0.727   2.791   9.439 -0.2306  0.1374  0.5691
    5SAPS  H11Y  643   0.843   2.651   9.433  2.2740 -0.3313  1.1905
    5SAPS  C312  644   0.869   2.802   9.279  0.1677  0.3313  0.2581
    5SAPS  H12X  645   0.975   2.778   9.257 -0.5389 -1.1186 -1.9659
    5SAPS  H12Y  646   0.857   2.911   9.262  2.2985  0.3735 -1.4186
    5SAPS  C313  647   0.773   2.734   9.188  1.2005 -0.0648  0.6934
    5SAPS  H13X  648   0.671   2.766   9.219  0.1285 -1.9006 -0.7474
    5SAPS  H13Y  649   0.761   2.624   9.186 -1.3560  0.1614 -0.2262
    5SAPS  C314  650   0.807   2.771   9.041  0.0808 -0.3716  0.3685
    5SAPS  H14X  651   0.912   2.741   9.020 -0.1483 -1.0922  0.1948
    5SAPS  H14Y  652   0.790   2.880   9.030 -0.7388 -0.5568 -0.3379
    5SAPS  C315  653   0.715   2.686   8.947 -0.4133  0.0396  0.6515
    5SAPS  H15X  654   0.745   2.581   8.968  1.6974  0.6282  0.8531
    5SAPS  H15Y  655   0.740   2.707   8.840  3.1150  0.7471  1.4667
    5SAPS  C316  656   0.557   2.704   8.959 -0.0107  0.3834 -0.1845
    5SAPS  H16X  657   0.535   2.690   9.067 -2.2370  2.2659 -0.3164
    5SAPS  H16Y  658   0.500   2.628   8.902 -2.5196  2.3264 -0.4089
    5SAPS  C317  659   0.508   2.841   8.914 -0.4536  0.7073  0.1358
    5SAPS  H17X  660   0.517   2.839   8.803 -0.1406 -2.5296  0.1401
    5SAPS  H17Y  661   0.587   2.905   8.960  1.0539  1.1606 -2.8138
    5SAPS  C318  662   0.366   2.850   8.961  0.3130 -1.0399  0.7093
    5SAPS  H18X  663   0.304   2.797   8.885  0.7805  1.0655 -1.2425
    5SAPS  H18Y  664   0.324   2.952   8.951  0.5329 -0.8996  1.1891
    5SAPS  H18Z  665   0.357   2.818   9.067 -2.3392 -0.2577  0.7986
    6SAPS     N  666   0.052   1.260  11.065  0.6021 -0.4748 -0.2215
    6SAPS   HN1  667  -0.001   1.176  11.032 -0.2423 -0.3046  0.6240
    6SAPS   HN2  668   0.136   1.222  11.114  0.1670 -0.3006  0.6947
    6SAPS   HN3  669  -0.014   1.302  11.134  1.3467 -0.9595  0.8301
    6SAPS   C12  670   0.084   1.350  10.953 -0.3616  0.3480 -0.0570
    6SAPS  H12A  671  -0.006   1.408  10.938  0.7921  1.5301 -3.4138
    6SAPS   C13  672   0.199   1.453  10.974 -0.7933 -0.3971 -0.1746
    6SAPS  O13A  673   0.241   1.473  11.093  0.6921  0.2124 -0.6585
    6SAPS  O13B  674   0.237   1.536  10.882  0.2132  0.3929 -0.3450
    6SAPS   C11  675   0.124   1.258  10.826  0.1027  0.8289  0.2195
    6SAPS  H11A  676   0.222   1.206  10.839 -0.1808  0.3938  0.6627
    6SAPS  H11B  677   0.140   1.319  10.735  1.5728  0.3948  0.1567
    6SAPS     P  678  -0.003   1.093  10.667 -0.1213  0.1885 -0.2923
    6SAPS   O13  679   0.111   1.025  10.611  0.0571 -0.3851 -0.4089
    6SAPS   O14  680  -0.128   1.014  10.667  0.0357  0.4626 -0.3085
    6SAPS   O12  681   0.030   1.150  10.807 -0.2461  0.1172 -0.0985
    6SAPS   O11  682  -0.028   1.222  10.582  0.2160 -0.2784  0.4824
    6SAPS    C1  683  -0.150   1.296  10.616  0.0167 -0.5020 -0.3607
    6SAPS    HA  684  -0.219   1.248  10.689 -1.0568  1.6220  0.0917
    6SAPS    HB  685  -0.109   1.383  10.672  0.9766 -0.5011 -1.0491
    6SAPS    C2  686  -0.227   1.355  10.493 -0.5167 -0.4975 -0.2163
    6SAPS    HS  687  -0.280   1.269  10.448  2.0391 -2.3788  0.1167
    6SAPS   O21  688  -0.137   1.399  10.395 -0.1302 -0.7916 -0.4070
    6SAPS   C21  689  -0.178   1.419  10.270  0.1585 -0.0559 -0.1073
    6SAPS   O22  690  -0.275   1.369  10.217 -0.8810  0.4967 -0.4254
    6SAPS   C22  691  -0.088   1.520  10.203 -0.2296  0.0870 -0.0520
    6SAPS   H2R  692  -0.090   1.613  10.265 -1.0796  0.9116 -1.2607
    6SAPS   H2S  693   0.015   1.481  10.216 -0.7174 -0.7833  1.4102
    6SAPS    C3  694  -0.307   1.477  10.531  0.1400  0.0949 -0.6047
    6SAPS    HX  695  -0.240   1.561  10.558 -0.4549 -0.0438  1.4479
    6SAPS    HY  696  -0.355   1.443  10.625  1.5014  1.8890  0.8139
    6SAPS   O31  697  -0.416   1.508  10.439  0.6413  0.6547  0.0787
    6SAPS   C31  698  -0.419   1.628  10.382 -0.5747 -0.1716  0.1075
    6SAPS   O32  699  -0.335   1.716  10.402 -0.2798  0.2006  0.3450
    6SAPS   C32  700  -0.546   1.649  10.295  0.2768  0.3548 -0.2040
    6SAPS   H2X  701  -0.623   1.688  10.365  1.6079  0.7166  1.0949
    6SAPS   H2Y  702  -0.576   1.546  10.266  2.6899 -0.6878  0.7642
    6SAPS   C23  703  -0.127   1.541  10.055 -0.0647 -0.2289 -0.0927
    6SAPS   H3R  704  -0.064   1.622  10.012  1.0455 -1.3958 -0.7344
    6SAPS   H3S  705  -0.232   1.577  10.059  0.2599  1.1103 -1.9879
    6SAPS   C24  706  -0.118   1.423   9.958 -0.2205 -0.2898  0.0886
    6SAPS   H4R  707  -0.170   1.437   9.860  2.1218 -0.7191 -1.2826
    6SAPS   H4S  708  -0.163   1.333  10.007 -0.1340 -0.5992 -0.3896
    6SAPS   C25  709   0.022   1.393   9.946  0.0436 -0.1804 -0.1157
    6SAPS   H5R  710   0.060   1.355  10.042 -0.5125 -1.9240 -0.5386
    6SAPS   C26  711   0.102   1.397   9.839 -0.3306  0.8945  0.3341
    6SAPS   H6R  712   0.206   1.368   9.861 -0.8983 -0.4278  1.4337
    6SAPS   C27  713   0.075   1.431   9.690  0.1549  0.6055 -0.5662
    6SAPS   H7R  714  -0.025   1.478   9.686  0.1594  0.6283 -0.4029
    6SAPS   H7S  715   0.076   1.341   9.624  0.1490  0.0774  0.1423
    6SAPS   C28  716   0.186   1.526   9.653 -0.9595  0.3205  1.1519
    6SAPS   H8R  717   0.278   1.525   9.714  0.0163 -1.2449 -0.2453
    6SAPS   C29  718   0.173   1.604   9.543  0.1376 -0.4647 -0.1530
    6SAPS   H9R  719   0.255   1.669   9.510  2.4320 -3.3150 -0.5255
    6SAPS  C210  720   0.059   1.597   9.440  0.3335 -0.0520  0.0555
    6SAPS  H10R  721   0.036   1.693   9.390 -0.0806 -0.4514 -0.5385
    6SAPS  H10S  722  -0.033   1.572   9.499 -0.1526 -1.1344 -1.1120
    6SAPS  C211  723   0.079   1.495   9.326  0.3271 -0.6783  0.2582
    6SAPS  H11R  724   0.180   1.473   9.289 -0.0145  0.4014 -1.4445
    6SAPS  C212  725  -0.020   1.420   9.277  0.7774  0.4352  0.0263
    6SAPS  H12R  726  -0.007   1.358   9.187 -1.2211 -0.4417  0.2947
    6SAPS  C213  727  -0.167   1.429   9.324 -0.1897 -0.2521  0.5479
    6SAPS  H13R  728  -0.157   1.421   9.434  1.9396  2.2334  0.6214
    6SAPS  H13S  729  -0.216   1.336   9.286  0.2014  0.1149 -0.9109
    6SAPS  C214  730  -0.244   1.556   9.291 -0.2136 -0.3226  0.1235
    6SAPS  H14R  731  -0.209   1.627   9.215 -2.8257  1.9660  0.8534
    6SAPS  C215  732  -0.341   1.605   9.362 -0.7951 -0.1981 -0.0747
    6SAPS  H15R  733  -0.388   1.702   9.341 -1.5527 -1.0900 -2.9018
    6SAPS  C216  734  -0.399   1.537   9.483  0.4035 -0.3929 -0.1007
    6SAPS  H16R  735  -0.404   1.427   9.474 -2.0643 -0.3506 -0.0972
    6SAPS  H16S  736  -0.498   1.581   9.508  0.5375 -1.3473  2.3984
    6SAPS  C217  737  -0.313   1.561   9.610 -0.4565 -0.2706 -0.1615
    6SAPS  H17R  738  -0.218   1.504   9.603 -0.1998  0.1128  0.2395
    6SAPS  H17S  739  -0.373   1.511   9.689 -0.1548 -1.7563 -0.8334
    6SAPS  C218  740  -0.299   1.709   9.662  0.3218  0.1683  0.1411
    6SAPS  H18R  741  -0.398   1.743   9.699  0.6226  2.4373 -0.9558
    6SAPS  H18S  742  -0.268   1.777   9.579  0.6450  0.5952  0.6083
    6SAPS  C219  743  -0.195   1.739   9.774 -0.5824 -0.5982  0.1695
    6SAPS  H19R  744  -0.097   1.696   9.743  1.5744  1.6924  3.2572
    6SAPS  H19S  745  -0.227   1.679   9.862 -0.4416 -1.9287 -0.6592
    6SAPS  C220  746  -0.171   1.889   9.801  0.5344  0.3724 -0.4397
    6SAPS  H20R  747  -0.106   1.902   9.890 -1.0905 -1.9796  1.2096
    6SAPS  H20S  748  -0.266   1.935   9.835  0.8431 -0.4592  1.6686
    6SAPS  H20T  749  -0.134   1.951   9.716 -2.1374  2.4863 -0.2085
    6SAPS   C33  750  -0.512   1.740  10.171 -0.6697  0.1241  0.1654
    6SAPS   H3X  751  -0.434   1.697  10.106  0.6750  1.0747  1.0765
    6SAPS   H3Y  752  -0.477   1.842  10.200 -1.6506  0.3342  0.6632
    6SAPS   C34  753  -0.641   1.757  10.084 -0.1366 -0.0208 -0.0104
    6SAPS   H4X  754  -0.723   1.803  10.144 -0.0893 -0.2002  0.1933
    6SAPS   H4Y  755  -0.689   1.658  10.066 -1.3358  0.8161 -1.7608
    6SAPS   C35  756  -0.618   1.818   9.944 -0.0595 -0.2219 -0.3712
    6SAPS   H5X  757  -0.657   1.744   9.871 -0.9793  0.0636 -0.1851
    6SAPS   H5Y  758  -0.509   1.838   9.929 -0.4406  1.4147 -1.2759
    6SAPS   C36  759  -0.685   1.959   9.912 -0.1110 -0.1769 -1.3073
    6SAPS   H6X  760  -0.663   2.029   9.996  0.4089 -0.7281 -0.9804
    6SAPS   H6Y  761  -0.793   1.932   9.921  0.4481 -2.0056  0.5578
    6SAPS   C37  762  -0.661   2.016   9.772 -0.3070  0.4837 -0.7828
    6SAPS   H7X  763  -0.555   2.042   9.753  0.1717  0.7300  1.8669
    6SAPS   H7Y  764  -0.724   2.108   9.764 -0.0268  0.7575  0.0610
    6SAPS   C38  765  -0.719   1.922   9.664 -0.2597 -0.0152 -0.2572
    6SAPS   H8X  766  -0.824   1.889   9.680 -0.2667 -0.1251 -0.5190
    6SAPS   H8Y  767  -0.668   1.824   9.662 -2.4329 -1.2758  1.5463
    6SAPS   C39  768  -0.708   1.967   9.513  0.8897 -0.4088  0.1905
    6SAPS   H9X  769  -0.611   2.019   9.502 -0.8186  2.9400 -0.1987
    6SAPS   H9Y  770  -0.775   2.050   9.481  1.1144 -0.3943 -0.2543
    6SAPS  C310  771  -0.712   1.845   9.417 -0.4231 -0.2147 -0.4963
    6SAPS  H10X  772  -0.791   1.780   9.460  1.3881 -0.7831  2.2655
    6SAPS  H10Y  773  -0.613   1.795   9.420  0.8540  2.2328  0.7432
    6SAPS  C311  774  -0.758   1.878   9.283  0.5961 -0.2541 -1.6484
    6SAPS  H11X  775  -0.687   1.936   9.220  1.2291  1.7782  0.7644
    6SAPS  H11Y  776  -0.852   1.938   9.283  1.7252  1.6676  0.3368
    6SAPS  C312  777  -0.789   1.752   9.202 -0.5081 -0.3209  0.1858
    6SAPS  H12X  778  -0.836   1.797   9.112 -0.7994  0.9212  0.9200
    6SAPS  H12Y  779  -0.868   1.693   9.253 -0.9267  0.3053  0.2725
    6SAPS  C313  780  -0.670   1.673   9.153 -0.3974 -0.6597  0.4869
    6SAPS  H13X  781  -0.657   1.586   9.221 -2.0279 -0.3771  1.1964
    6SAPS  H13Y  782  -0.576   1.732   9.158 -1.3031  0.7680  1.6685
    6SAPS  C314  783  -0.690   1.623   9.012 -0.0621  0.0806  0.6103
    6SAPS  H14X  784  -0.704   1.717   8.954 -1.3435  0.0556  0.8596
    6SAPS  H14Y  785  -0.776   1.554   9.005  1.5976 -1.9126 -1.9456
    6SAPS  C315  786  -0.558   1.553   8.963  0.4613 -0.6296 -0.1479
    6SAPS  H15X  787  -0.538   1.461   9.022  0.6851 -0.6706 -0.2877
    6SAPS  H15Y  788  -0.467   1.613   8.984  1.4534 -2.6013  1.5078
    6SAPS  C316  789  -0.561   1.517   8.810 -0.2890 -0.0312  0.4664
    6SAPS  H16X  790  -0.465   1.516   8.752 -2.1083  0.1361 -2.8015
    6SAPS  H16Y  791  -0.618   1.598   8.760  0.4839  0.9353  1.1138
    6SAPS  C317  792  -0.636   1.386   8.782 -0.1066 -0.3663  0.1092
    6SAPS  H17X  793  -0.734   1.398   8.832  0.9513  3.3664  1.5762
    6SAPS  H17Y  794  -0.586   1.295   8.821  0.2024 -0.7690 -1.1566
    6SAPS  C318  795  -0.669   1.351   8.641  0.5551 -0.7301  0.1185
    6SAPS  H18X  796  -0.575   1.350   8.581  0.0672 -1.7934 -0.6659
    6SAPS  H18Y  797  -0.733   1.428   8.593  1.2609  0.0227  0.3541
    6SAPS  H18Z  798  -0.716   1.251   8.631  0.1482 -0.8223  2.4556
    7SAPS     N  799   3.269   4.326  10.901  0.1965 -0.9579  0.0420
    7SAPS   HN1  800   3.305   4.244  10.848 -0.3322 -1.6513  0.7220
    7SAPS   HN2  801   3.241   4.301  10.999 -0.3819  0.9636  0.4053
    7SAPS   HN3  802   3.182   4.360  10.855  0.7577  0.9894  0.3148
    7SAPS   C12  803   3.371   4.434  10.908 -0.0221  0.0229 -0.4801
    7SAPS  H12A  804   3.379   4.481  10.811  0.1391  0.6729 -0.1516
    7SAPS   C13  805   3.341   4.534  11.023  0.1943  0.3118 -0.5063
    7SAPS  O13A  806   3.232   4.529  11.093  0.5973 -0.5311  0.5363
    7SAPS  O13B  807   3.428   4.616  11.055 -0.4122  0.2570  0.1387
    7SAPS   C11  808   3.513   4.376  10.942  0.9812 -0.2743  0.2460
    7SAPS  H11A  809   3.526   4.345  11.048 -0.9963 -1.5314  0.1744
    7SAPS  H11B  810   3.583   4.457  10.912  0.8825 -0.2356  0.1200
    7SAPS     P  811   3.640   4.266  10.744 -0.0359 -0.2145  0.3415
    7SAPS   O13  812   3.770   4.317  10.792  0.2987 -0.1669  0.0267
    7SAPS   O14  813   3.642   4.130  10.681  0.1482 -0.3872  0.1336
    7SAPS   O12  814   3.538   4.260  10.868  0.1602 -0.2521  0.0872
    7SAPS   O11  815   3.564   4.384  10.663  0.0625 -0.2206  0.0606
    7SAPS    C1  816   3.447   4.353  10.588  0.5774  0.2676  0.2091
    7SAPS    HA  817   3.385   4.277  10.640 -1.5500  0.7067 -1.5862
    7SAPS    HB  818   3.382   4.443  10.587  0.2831  0.0951  1.5001
    7SAPS    C2  819   3.477   4.309  10.440  0.0217 -0.1696  0.0641
    7SAPS    HS  820   3.549   4.225  10.438  1.6012  1.1552 -0.7532
    7SAPS   O21  821   3.542   4.417  10.366 -0.5452  0.2219 -0.4575
    7SAPS   C21  822   3.670   4.414  10.364  0.0742  0.1297  0.5537
    7SAPS   O22  823   3.744   4.331  10.407  0.8962  0.4936  0.8177
    7SAPS   C22  824   3.725   4.531  10.274 -0.8618 -0.4391  0.0817
    7SAPS   H2R  825   3.778   4.604  10.338  0.5277  0.0079 -1.5168
    7SAPS   H2S  826   3.795   4.482  10.203  0.8643  1.9120  0.0851
    7SAPS    C3  827   3.351   4.264  10.363 -0.1490  0.4858 -0.0486
    7SAPS    HX  828   3.273   4.342  10.376  1.0629  2.0741 -1.7338
    7SAPS    HY  829   3.324   4.166  10.407  0.7431  0.1493 -0.2290
    7SAPS   O31  830   3.371   4.257  10.220 -0.2612 -0.4420 -0.1372
    7SAPS   C31  831   3.407   4.140  10.179  0.5333  1.0080  0.6526
    7SAPS   O32  832   3.413   4.037  10.245 -0.1836 -0.0783 -0.2799
    7SAPS   C32  833   3.453   4.141  10.035  0.2971 -0.7587 -0.1947
    7SAPS   H2X  834   3.563   4.153  10.045  0.4594 -0.6377 -1.8161
    7SAPS   H2Y  835   3.412   4.225   9.975  0.9506  0.5931  1.1988
    7SAPS   C23  836   3.617   4.606  10.187 -0.0839 -0.3370 -0.3266
    7SAPS   H3R  837   3.658   4.695  10.136 -1.3517  0.4340 -0.0495
    7SAPS   H3S  838   3.540   4.653  10.252 -0.3744 -0.1679 -0.7878
    7SAPS   C24  839   3.548   4.523  10.083  0.1405 -0.1173 -0.1346
    7SAPS   H4R  840   3.509   4.433  10.135  0.6238  0.7154  1.7824
    7SAPS   H4S  841   3.618   4.474  10.012  2.4495  2.4719  0.1554
    7SAPS   C25  842   3.444   4.609  10.018 -0.6474  0.4819 -0.7667
    7SAPS   H5R  843   3.356   4.617  10.083  0.3900  2.5188  0.4814
    7SAPS   C26  844   3.449   4.665   9.898  0.1984  0.1289  0.3312
    7SAPS   H6R  845   3.356   4.718   9.870 -0.2081 -0.1732  1.0577
    7SAPS   C27  846   3.562   4.663   9.796 -0.3626 -0.1376  0.2882
    7SAPS   H7R  847   3.660   4.676   9.847  0.0653  2.7323 -1.1040
    7SAPS   H7S  848   3.551   4.764   9.752  2.0911 -0.5123 -1.3638
    7SAPS   C28  849   3.571   4.556   9.696  0.3205 -0.6865  0.0290
    7SAPS   H8R  850   3.609   4.457   9.724 -0.1239 -1.2749 -1.3846
    7SAPS   C29  851   3.534   4.569   9.569 -0.0009 -0.0560 -0.3280
    7SAPS   H9R  852   3.544   4.486   9.498  2.5765  0.7738 -1.0336
    7SAPS  C210  853   3.470   4.699   9.516 -0.3255  0.1305  0.0052
    7SAPS  H10R  854   3.415   4.755   9.596 -2.0835 -1.4969  0.0025
    7SAPS  H10S  855   3.406   4.671   9.430  1.3334 -0.1386 -1.1874
    7SAPS  C211  856   3.578   4.782   9.466  0.2589  0.2491 -0.2482
    7SAPS  H11R  857   3.663   4.779   9.535 -0.0279  0.5284  0.1166
    7SAPS  C212  858   3.572   4.859   9.353 -0.3340 -0.2435 -0.7021
    7SAPS  H12R  859   3.666   4.903   9.315  0.9017 -1.4636  0.8523
    7SAPS  C213  860   3.449   4.891   9.267  0.2935  0.1377 -0.2272
    7SAPS  H13R  861   3.449   4.999   9.239  1.0696 -0.1704 -1.5427
    7SAPS  H13S  862   3.359   4.869   9.328 -0.6634  1.2882 -1.1754
    7SAPS  C214  863   3.446   4.794   9.151  0.1994  0.4454  0.5539
    7SAPS  H14R  864   3.437   4.686   9.167 -1.0514  0.6269  1.2502
    7SAPS  C215  865   3.438   4.835   9.023 -0.5848 -0.2406 -0.5352
    7SAPS  H15R  866   3.440   4.751   8.952  0.3304 -1.5456  0.9572
    7SAPS  C216  867   3.435   4.975   8.974  0.1494 -0.1058 -0.3359
    7SAPS  H16R  868   3.542   5.002   8.959  0.6234 -1.1743  0.9095
    7SAPS  H16S  869   3.391   5.044   9.048 -2.3501 -0.2394 -1.5899
    7SAPS  C217  870   3.365   5.018   8.843 -0.0730  0.2064 -0.3860
    7SAPS  H17R  871   3.325   5.119   8.866  1.1976  0.6314  0.0674
    7SAPS  H17S  872   3.275   4.963   8.809 -0.6356  0.7264  0.2271
    7SAPS  C218  873   3.465   5.053   8.731  0.4447  0.1757 -0.0320
    7SAPS  H18R  874   3.519   4.958   8.710  1.6298  0.8524 -0.1017
    7SAPS  H18S  875   3.539   5.129   8.764  0.7842 -0.0178 -0.3371
    7SAPS  C219  876   3.399   5.094   8.600  0.3214 -0.8955 -0.9061
    7SAPS  H19R  877   3.431   5.193   8.561  0.1903  0.4389  2.0867
    7SAPS  H19S  878   3.289   5.106   8.613  0.8993  2.4949  2.7493
    7SAPS  C220  879   3.418   4.985   8.494 -0.0010 -0.7837 -0.4948
    7SAPS  H20R  880   3.363   4.891   8.514  1.9193 -1.9002 -0.1862
    7SAPS  H20S  881   3.528   4.967   8.493 -0.0134 -1.0042  0.5702
    7SAPS  H20T  882   3.390   5.007   8.389 -2.0483 -3.2143 -0.5380
    7SAPS   C33  883   3.429   4.008   9.965 -0.3403  0.2929 -0.0155
    7SAPS   H3X  884   3.322   3.981   9.977 -0.6152  2.2489  3.1180
    7SAPS   H3Y  885   3.493   3.931  10.013  0.5613  1.6485  1.0509
    7SAPS   C34  886   3.478   3.990   9.822 -0.0933  0.1500  0.2534
    7SAPS   H4X  887   3.452   3.884   9.801 -0.8193  0.4996 -0.6504
    7SAPS   H4Y  888   3.588   3.996   9.809 -0.2661 -1.1182 -2.3490
    7SAPS   C35  889   3.411   4.097   9.732  0.3344  0.0422 -0.0992
    7SAPS   H5X  890   3.453   4.196   9.762  2.5636 -0.8517 -0.0701
    7SAPS   H5Y  891   3.303   4.081   9.750  0.2199 -0.0295 -0.7984
    7SAPS   C36  892   3.430   4.083   9.584 -0.6042 -0.3520  0.0753
    7SAPS   H6X  893   3.536   4.099   9.555 -0.7368 -3.1407 -2.2964
    7SAPS   H6Y  894   3.383   4.165   9.526 -1.8828 -1.8002 -0.9693
    7SAPS   C37  895   3.404   3.944   9.523  0.4650 -0.4792  0.3283
    7SAPS   H7X  896   3.298   3.925   9.552  0.0047 -0.6788 -1.3897
    7SAPS   H7Y  897   3.466   3.857   9.555  2.6216  0.9734  0.3098
    7SAPS   C38  898   3.418   3.940   9.368 -0.4255  0.7436  0.6361
    7SAPS   H8X  899   3.345   4.007   9.319 -1.6829 -1.1392 -0.1592
    7SAPS   H8Y  900   3.385   3.838   9.337  1.9021  0.2168 -0.3091
    7SAPS   C39  901   3.554   3.956   9.306  0.1490 -0.5577  0.2044
    7SAPS   H9X  902   3.627   3.892   9.360 -0.2362 -0.5501  0.7476
    7SAPS   H9Y  903   3.581   4.059   9.338  2.2746 -1.4713  1.5820
    7SAPS  C310  904   3.564   3.929   9.156  0.4414 -0.6160  0.2180
    7SAPS  H10X  905   3.667   3.949   9.120 -0.0413 -0.4470 -1.1145
    7SAPS  H10Y  906   3.497   4.002   9.106  1.7533  1.4025  1.2766
    7SAPS  C311  907   3.542   3.783   9.127  0.7040  0.7348  0.5546
    7SAPS  H11X  908   3.437   3.768   9.160  0.9005 -0.6251  0.6099
    7SAPS  H11Y  909   3.615   3.724   9.186  1.2239  1.6560  0.8563
    7SAPS  C312  910   3.544   3.758   8.975  0.1400  0.0529  0.3284
    7SAPS  H12X  911   3.571   3.650   8.966  0.3512 -0.0204  1.6395
    7SAPS  H12Y  912   3.637   3.802   8.933 -0.5139  1.2547  0.1056
    7SAPS  C313  913   3.417   3.807   8.902 -0.5930 -0.2745 -0.3129
    7SAPS  H13X  914   3.402   3.916   8.922 -0.3455 -0.4605  0.9928
    7SAPS  H13Y  915   3.327   3.759   8.946 -0.3898 -0.6630 -0.3183
    7SAPS  C314  916   3.424   3.810   8.745  0.5439  0.3974 -0.2306
    7SAPS  H14X  917   3.524   3.844   8.710  0.0579 -0.3158 -2.4096
    7SAPS  H14Y  918   3.347   3.884   8.715  0.9399 -0.3511 -3.3562
    7SAPS  C315  919   3.393   3.670   8.684 -0.6921 -0.6873 -0.0186
    7SAPS  H15X  920   3.345   3.687   8.586 -0.3965 -2.2839 -0.4677
    7SAPS  H15Y  921   3.312   3.618   8.740 -0.4957  1.2950  2.3161
    7SAPS  C316  922   3.515   3.587   8.663  0.5050 -0.2880  0.6304
    7SAPS  H16X  923   3.540   3.531   8.755 -1.1128 -3.4210 -0.6833
    7SAPS  H16Y  924   3.602   3.644   8.622 -1.4163  1.8026 -0.8288
    7SAPS  C317  925   3.487   3.476   8.561 -0.5174  0.9410  0.1713
    7SAPS  H17X  926   3.416   3.403   8.605 -0.0874  0.5426  0.2150
    7SAPS  H17Y  927   3.579   3.413   8.557 -1.3988 -0.5505  1.9605
    7SAPS  C318  928   3.467   3.503   8.409 -0.2604  0.0315  0.1569
    7SAPS  H18X  929   3.358   3.519   8.392 -0.5573 -2.7455 -1.1956
    7SAPS  H18Y  930   3.488   3.406   8.358  1.7946 -0.2708  1.4875
    7SAPS  H18Z  931   3.531   3.585   8.369 -0.8044  0.5211  0.2864
    8SAPS     N  932   0.953   3.798  11.225 -0.1675 -0.1255  0.4034
    8SAPS   HN1  933   0.979   3.701  11.197 -1.1265 -0.4369  0.5367
    8SAPS   HN2  934   1.007   3.866  11.169  0.0879 -1.5986 -1.2479
    8SAPS   HN3  935   0.981   3.805  11.325  1.3970 -2.7260  0.2360
    8SAPS   C12  936   0.808   3.818  11.195 -1.4173 -0.3848 -0.2908
    8SAPS  H12A  937   0.751   3.779  11.278 -1.4544 -0.8076 -0.5132
    8SAPS   C13  938   0.773   3.965  11.192 -0.8013 -0.0607  0.5333
    8SAPS  O13A  939   0.859   4.050  11.205 -0.7704 -0.2868 -0.3779
    8SAPS  O13B  940   0.649   3.989  11.207  0.0336  0.9171 -0.2233
    8SAPS   C11  941   0.777   3.749  11.068  0.1770 -0.2766  0.5555
    8SAPS  H11A  942   0.838   3.796  10.988 -0.5124  0.5497  0.4931
    8SAPS  H11B  943   0.669   3.756  11.042  0.2019 -0.4660  0.4045
    8SAPS     P  944   0.797   3.502  10.964 -0.0507  0.3320 -0.1139
    8SAPS   O13  945   0.930   3.432  10.948 -0.0573 -0.5638  0.1599
    8SAPS   O14  946   0.676   3.419  10.984  0.5321  1.1401  0.4711
    8SAPS   O12  947   0.811   3.606  11.081  0.9072  0.0164 -0.5022
    8SAPS   O11  948   0.775   3.592  10.828  0.6664  0.4612  0.3250
    8SAPS    C1  949   0.656   3.562  10.747  0.1936 -0.3610  0.2852
    8SAPS    HA  950   0.561   3.565  10.805 -0.7043  1.3925 -1.1347
    8SAPS    HB  951   0.638   3.644  10.673 -0.3101  0.7576  1.5904
    8SAPS    C2  952   0.665   3.427  10.664 -0.1878 -0.3066  0.4482
    8SAPS    HS  953   0.682   3.346  10.739  1.2834 -1.6338 -1.2276
    8SAPS   O21  954   0.776   3.445  10.579  0.1238 -0.5365  0.9590
    8SAPS   C21  955   0.869   3.353  10.572 -0.4856  0.1562 -0.0599
    8SAPS   O22  956   0.866   3.251  10.631  0.4857  0.7101  0.0918
    8SAPS   C22  957   0.978   3.408  10.481  0.1167  0.2017 -0.7402
    8SAPS   H2R  958   0.949   3.371  10.380 -1.1469 -2.4974  0.5199
    8SAPS   H2S  959   0.968   3.519  10.477  0.0257  0.2246  0.0505
    8SAPS    C3  960   0.542   3.397  10.578  0.6457  0.0158 -0.7341
    8SAPS    HX  961   0.511   3.483  10.515  2.0435  0.7813 -0.4265
    8SAPS    HY  962   0.461   3.370  10.649  1.4859 -0.5989  0.0185
    8SAPS   O31  963   0.554   3.290  10.484  0.2826  0.3596  0.0802
    8SAPS   C31  964   0.438   3.243  10.433  0.3538  0.4673 -0.2592
    8SAPS   O32  965   0.328   3.269  10.472 -0.7742 -0.3200  0.4507
    8SAPS   C32  966   0.475   3.159  10.308 -0.1844  0.9211 -0.1584
    8SAPS   H2X  967   0.464   3.053  10.338  1.8054  0.8504  0.4626
    8SAPS   H2Y  968   0.576   3.194  10.276  0.2934  0.2350  0.5548
    8SAPS   C23  969   1.121   3.360  10.514  0.2079 -0.0944 -0.2809
    8SAPS   H3R  970   1.124   3.252  10.491  1.2594  0.0208 -0.7243
    8SAPS   H3S  971   1.136   3.372  10.623 -3.3600  1.5196  0.1848
    8SAPS   C24  972   1.235   3.430  10.441 -0.3755 -0.4734 -0.3596
    8SAPS   H4R  973   1.233   3.535  10.477  0.9880  0.2906 -2.3943
    8SAPS   H4S  974   1.209   3.447  10.335 -0.9667  1.2900  0.0312
    8SAPS   C25  975   1.371   3.373  10.476  0.2544 -0.1472 -0.1088
    8SAPS   H5R  976   1.412   3.405  10.573  2.3676 -0.3843 -0.8752
    8SAPS   C26  977   1.437   3.283  10.397 -0.5879 -0.1334  0.2197
    8SAPS   H6R  978   1.531   3.242  10.438  0.2334  0.7624 -0.7190
    8SAPS   C27  979   1.393   3.233  10.260 -0.2179  0.5873 -0.1126
    8SAPS   H7R  980   1.356   3.319  10.200  0.0090  0.4604 -0.4353
    8SAPS   H7S  981   1.306   3.166  10.276  0.6108 -0.6004 -0.4097
    8SAPS   C28  982   1.487   3.147  10.179 -0.0099 -0.1410 -0.0047
    8SAPS   H8R  983   1.491   3.044  10.216 -1.5758 -0.4735 -0.6645
    8SAPS   C29  984   1.566   3.188  10.075  0.8773  0.3109  0.4233
    8SAPS   H9R  985   1.648   3.118  10.054  1.0809  0.8100 -0.5083
    8SAPS  C210  986   1.579   3.326  10.010 -0.2346  0.1713 -0.0732
    8SAPS  H10R  987   1.662   3.376  10.065 -0.9973 -1.5571  2.8566
    8SAPS  H10S  988   1.481   3.377  10.015 -1.7660 -2.6389  0.5895
    8SAPS  C211  989   1.631   3.333   9.876  0.6373  0.3521  0.6795
    8SAPS  H11R  990   1.699   3.250   9.851 -0.5627  0.2615 -2.7792
    8SAPS  C212  991   1.579   3.408   9.774 -0.6980  0.3300  0.0301
    8SAPS  H12R  992   1.615   3.404   9.670 -3.1792 -2.3696 -0.8518
    8SAPS  C213  993   1.474   3.512   9.781  0.3973  0.6760 -0.8586
    8SAPS  H13R  994   1.381   3.458   9.808  0.0264  0.3033 -2.7630
    8SAPS  H13S  995   1.446   3.551   9.681  1.7277  1.5165 -0.9274
    8SAPS  C214  996   1.494   3.623   9.875 -0.3469 -0.2270  0.6943
    8SAPS  H14R  997   1.590   3.613   9.929  0.9721  0.0631 -1.4760
    8SAPS  C215  998   1.401   3.704   9.918  0.5411 -0.1797  0.2126
    8SAPS  H15R  999   1.421   3.777   9.997  0.1751 -0.0761  0.2137
    8SAPS  C216 1000   1.261   3.694   9.866 -0.1322  0.4977 -0.2505
    8SAPS  H16R 1001   1.206   3.620   9.928 -1.6625  2.2252  0.5181
    8SAPS  H16S 1002   1.271   3.648   9.766 -0.2470  0.3330 -0.1864
    8SAPS  C217 1003   1.172   3.819   9.856  0.5187  0.0095  0.7740
    8SAPS  H17R 1004   1.070   3.796   9.820  0.1946  1.0996  0.9441
    8SAPS  H17S 1005   1.218   3.886   9.780 -0.1075 -3.4172 -2.9321
    8SAPS  C218 1006   1.143   3.890   9.992 -1.4042  0.6797 -0.9117
    8SAPS  H18R 1007   1.236   3.892  10.053 -1.7760 -0.3918 -0.2827
    8SAPS  H18S 1008   1.087   3.815  10.052  0.9779 -0.7839 -0.3788
    8SAPS  C219 1009   1.079   4.024   9.990  0.1898  0.3802 -0.3633
    8SAPS  H19R 1010   1.019   4.054  10.079  2.2717  1.6653  0.6943
    8SAPS  H19S 1011   0.995   4.016   9.918 -0.3950  2.2688  0.0309
    8SAPS  C220 1012   1.174   4.135   9.943 -0.1448 -0.1855  0.0302
    8SAPS  H20R 1013   1.257   4.098   9.879 -0.0471 -0.9340  0.5859
    8SAPS  H20S 1014   1.214   4.194  10.028 -0.9905 -2.3306  1.9948
    8SAPS  H20T 1015   1.116   4.213   9.888 -1.1895 -0.6894  0.3860
    8SAPS   C33 1016   0.386   3.186  10.194 -0.2906 -0.1691 -0.0891
    8SAPS   H3X 1017   0.282   3.156  10.223  0.4176 -0.8021  2.0216
    8SAPS   H3Y 1018   0.409   3.122  10.106  1.0306 -2.3650  1.7414
    8SAPS   C34 1019   0.407   3.333  10.157  0.3791 -0.5198  0.3012
    8SAPS   H4X 1020   0.517   3.346  10.157  0.2854  0.3407 -0.4775
    8SAPS   H4Y 1021   0.368   3.397  10.238  1.3027  0.1155  0.2439
    8SAPS   C35 1022   0.347   3.379  10.033  0.4763 -1.4536  0.1642
    8SAPS   H5X 1023   0.238   3.355  10.032  0.1224 -0.0074 -0.9687
    8SAPS   H5Y 1024   0.396   3.346   9.938  1.2415 -1.8238  0.6770
    8SAPS   C36 1025   0.355   3.535  10.018 -0.7490 -0.5159 -0.2719
    8SAPS   H6X 1026   0.456   3.577  10.033 -0.9092 -0.8694  2.1304
    8SAPS   H6Y 1027   0.294   3.572  10.104 -0.5707 -0.2226 -0.2715
    8SAPS   C37 1028   0.297   3.598   9.885  0.3459  0.6315 -0.5563
    8SAPS   H7X 1029   0.309   3.708   9.895  0.4153  0.5717  0.0146
    8SAPS   H7Y 1030   0.191   3.569   9.872  0.0375  1.2778  0.4228
    8SAPS   C38 1031   0.384   3.573   9.770 -0.4484 -0.3094 -0.3995
    8SAPS   H8X 1032   0.396   3.466   9.740 -0.0852 -0.0374 -1.2671
    8SAPS   H8Y 1033   0.488   3.602   9.797 -0.6795 -0.8516  1.1461
    8SAPS   C39 1034   0.336   3.649   9.645  0.5623 -0.4199  0.5142
    8SAPS   H9X 1035   0.337   3.760   9.656  0.7394 -0.2433 -1.0865
    8SAPS   H9Y 1036   0.229   3.626   9.629  0.8601  0.0343 -2.7065
    8SAPS  C310 1037   0.411   3.611   9.519  0.2196 -0.1450  0.2355
    8SAPS  H10X 1038   0.424   3.500   9.516 -0.0435 -0.2150  1.2149
    8SAPS  H10Y 1039   0.509   3.662   9.522  1.7220 -2.8118 -0.6951
    8SAPS  C311 1040   0.333   3.652   9.389  0.3570 -0.2241 -0.3601
    8SAPS  H11X 1041   0.297   3.757   9.395 -0.4607 -0.5761  3.3111
    8SAPS  H11Y 1042   0.233   3.603   9.386 -1.0638  2.3494  1.6399
    8SAPS  C312 1043   0.414   3.627   9.259  0.5080  0.0119  1.0028
    8SAPS  H12X 1044   0.436   3.518   9.257 -0.8342 -0.2860  1.4925
    8SAPS  H12Y 1045   0.515   3.674   9.265  1.2252 -1.4712  1.0004
    8SAPS  C313 1046   0.334   3.677   9.137 -0.5205  0.1350  0.6695
    8SAPS  H13X 1047   0.300   3.782   9.152 -0.4816 -0.0673  2.3607
    8SAPS  H13Y 1048   0.232   3.634   9.147 -0.9096  1.3350  2.2790
    8SAPS  C314 1049   0.395   3.640   8.993 -0.5775 -0.0072 -0.2448
    8SAPS  H14X 1050   0.494   3.690   8.990 -1.1459  1.1986  0.2563
    8SAPS  H14Y 1051   0.333   3.684   8.912 -1.4203 -0.8991 -0.0979
    8SAPS  C315 1052   0.416   3.489   8.984  0.3220  0.3919 -1.0989
    8SAPS  H15X 1053   0.323   3.428   8.993  0.0065  1.1895  2.3209
    8SAPS  H15Y 1054   0.483   3.453   9.065 -2.4344 -3.1874 -0.1202
    8SAPS  C316 1055   0.476   3.454   8.846  0.2350  0.4108  0.1835
    8SAPS  H16X 1056   0.560   3.526   8.832 -0.8946  1.8925  0.8009
    8SAPS  H16Y 1057   0.411   3.486   8.762  0.7314  0.3155 -0.2407
    8SAPS  C317 1058   0.492   3.295   8.831 -0.0083 -0.1370 -0.1813
    8SAPS  H17X 1059   0.517   3.274   8.725  1.3758 -0.6127  0.2122
    8SAPS  H17Y 1060   0.389   3.256   8.835 -0.3358  0.4181 -2.0506
    8SAPS  C318 1061   0.592   3.223   8.928  0.2761  0.1482  0.6902
    8SAPS  H18X 1062   0.592   3.115   8.905 -1.3870 -0.1708  1.9527
    8SAPS  H18Y 1063   0.550   3.231   9.031  1.6635 -1.5935  1.4491
    8SAPS  H18Z 1064   0.688   3.278   8.921 -0.0330  0.5361 -0.7345
    9SAPS     N 1065   3.196   0.493   6.335  0.3307  0.5990  0.1459
    9SAPS   HN1 1066   3.201   0.447   6.242  1.5365 -0.9510  0.9192
    9SAPS   HN2 1067   3.115   0.558   6.329 -1.6000 -1.6656  0.4109
    9SAPS   HN3 1068   3.282   0.550   6.352 -0.0041  1.1621 -0.0004
    9SAPS   C12 1069   3.179   0.387   6.442  0.1293  0.5998 -0.4070
    9SAPS  H12A 1070   3.091   0.408   6.501 -0.1664 -0.4314 -0.4733
    9SAPS   C13 1071   3.175   0.248   6.370  1.1006 -0.2442 -0.8637
    9SAPS  O13A 1072   3.200   0.231   6.251 -0.2866  0.3057  1.0839
    9SAPS  O13B 1073   3.132   0.152   6.445 -0.7092 -0.0305  0.2212
    9SAPS   C11 1074   3.295   0.396   6.545 -0.5787 -0.1824 -0.4532
    9SAPS  H11A 1075   3.270   0.326   6.628  1.8991  0.5213  0.9962
    9SAPS  H11B 1076   3.289   0.498   6.589  2.1512  0.2219 -0.8181
    9SAPS     P 1077   3.525   0.481   6.468 -0.3946  0.1800 -0.5866
    9SAPS   O13 1078   3.652   0.429   6.424  0.2753  0.1749 -0.1201
    9SAPS   O14 1079   3.455   0.578   6.386  0.2941  0.4396  0.5031
    9SAPS   O12 1080   3.429   0.361   6.495  0.3412  0.1578  0.2982
    9SAPS   O11 1081   3.548   0.545   6.614 -0.5722 -0.0721  0.1426
    9SAPS    C1 1082   3.604   0.466   6.722  0.1499 -0.2980  0.3889
    9SAPS    HA 1083   3.526   0.395   6.759  1.5040 -1.8432  0.3850
    9SAPS    HB 1084   3.697   0.415   6.690  1.8649  2.1542  1.1924
    9SAPS    C2 1085   3.644   0.559   6.840  0.0148  0.2211 -0.7698
    9SAPS    HS 1086   3.690   0.495   6.919  1.5385 -1.0087 -2.5694
    9SAPS   O21 1087   3.532   0.627   6.900  0.1691  0.0179  0.6322
    9SAPS   C21 1088   3.448   0.553   6.967  0.3516  0.1677  0.1915
    9SAPS   O22 1089   3.469   0.436   7.001  0.0783 -0.1576 -0.7146
    9SAPS   C22 1090   3.314   0.627   6.984  0.0097 -0.5542 -0.2794
    9SAPS   H2R 1091   3.285   0.672   6.886  1.1534 -1.1758 -0.9253
    9SAPS   H2S 1092   3.237   0.552   7.009  0.4002 -0.3699  1.6588
    9SAPS    C3 1093   3.742   0.668   6.798  0.3555  0.2436 -0.2376
    9SAPS    HX 1094   3.697   0.763   6.765  2.4107  0.5828 -2.3409
    9SAPS    HY 1095   3.797   0.641   6.705 -0.6159 -2.2009 -0.1755
    9SAPS   O31 1096   3.830   0.695   6.909 -0.0464  0.1606 -0.2946
    9SAPS   C31 1097   3.811   0.814   6.966  0.0286 -0.1571 -0.3555
    9SAPS   O32 1098   3.735   0.905   6.934 -0.7305  0.1914 -0.0319
    9SAPS   C32 1099   3.893   0.825   7.094  0.3697  0.0786  0.0218
    9SAPS   H2X 1100   4.000   0.850   7.076  0.8816  0.0539  2.6892
    9SAPS   H2Y 1101   3.880   0.727   7.145 -1.0933 -0.3018 -1.0250
    9SAPS   C23 1102   3.327   0.732   7.096 -0.0202 -0.3053 -0.2152
    9SAPS   H3R 1103   3.255   0.814   7.073 -0.4091 -1.0393 -1.7467
    9SAPS   H3S 1104   3.423   0.787   7.095 -2.1473  3.7869 -0.3696
    9SAPS   C24 1105   3.286   0.678   7.235 -0.4512  0.2637 -0.5465
    9SAPS   H4R 1106   3.188   0.627   7.218 -1.2367  1.5041  0.0857
    9SAPS   H4S 1107   3.257   0.761   7.303  2.4634 -0.5960  1.9681
    9SAPS   C25 1108   3.385   0.591   7.314  0.5019  0.4337 -0.1247
    9SAPS   H5R 1109   3.389   0.488   7.276 -1.6507  0.5612 -0.8149
    9SAPS   C26 1110   3.462   0.634   7.415 -0.0147 -0.3597 -0.2394
    9SAPS   H6R 1111   3.531   0.563   7.463 -2.1878 -2.1540  0.3700
    9SAPS   C27 1112   3.459   0.774   7.470 -0.1617 -0.3035  0.0760
    9SAPS   H7R 1113   3.451   0.840   7.382  1.4058 -1.7106 -1.1949
    9SAPS   H7S 1114   3.566   0.794   7.494  0.6957 -3.0683 -1.0405
    9SAPS   C28 1115   3.368   0.795   7.589 -0.2607 -0.1522 -0.0202
    9SAPS   H8R 1116   3.264   0.807   7.555 -0.4943 -0.0606  0.7068
    9SAPS   C29 1117   3.395   0.806   7.722 -0.8938 -0.1802 -0.4989
    9SAPS   H9R 1118   3.304   0.804   7.785 -1.4542 -0.6829 -1.3008
    9SAPS  C210 1119   3.530   0.797   7.790  0.1169 -0.6373 -0.9703
    9SAPS  H10R 1120   3.610   0.774   7.717  0.0872  1.3195 -1.6749
    9SAPS  H10S 1121   3.521   0.702   7.848  0.9842 -0.3366 -0.3375
    9SAPS  C211 1122   3.577   0.921   7.872  0.3471  0.0174  0.7627
    9SAPS  H11R 1123   3.598   1.014   7.818  0.0878  0.3352  1.2077
    9SAPS  C212 1124   3.571   0.918   8.005  0.5867 -0.0561 -0.3187
    9SAPS  H12R 1125   3.589   1.011   8.061 -0.4480 -0.8930  1.4998
    9SAPS  C213 1126   3.535   0.803   8.093  1.0262  0.2485  0.2711
    9SAPS  H13R 1127   3.584   0.820   8.192  1.5067  0.3448  0.0221
    9SAPS  H13S 1128   3.579   0.706   8.063 -1.1116 -0.7132  0.1029
    9SAPS  C214 1129   3.387   0.775   8.089 -0.2226 -0.7910  0.0591
    9SAPS  H14R 1130   3.329   0.838   8.020 -1.4469 -1.4241  0.4930
    9SAPS  C215 1131   3.316   0.695   8.164  0.6389  0.0872  0.4572
    9SAPS  H15R 1132   3.210   0.684   8.139  0.5961  1.9829 -0.3349
    9SAPS  C216 1133   3.371   0.601   8.266  0.4258  0.1361  0.0703
    9SAPS  H16R 1134   3.460   0.639   8.321  2.5116 -0.1673 -2.8913
    9SAPS  H16S 1135   3.401   0.509   8.213 -0.5020 -0.2783  0.2508
    9SAPS  C217 1136   3.261   0.569   8.367 -0.6462  0.0468  0.2349
    9SAPS  H17R 1137   3.308   0.497   8.438  1.9252 -1.2300 -2.5311
    9SAPS  H17S 1138   3.177   0.517   8.317  0.1442 -0.8755 -0.1608
    9SAPS  C218 1139   3.208   0.695   8.443 -0.4413 -0.5619  0.5522
    9SAPS  H18R 1140   3.200   0.786   8.381 -0.8400 -0.2365  1.0706
    9SAPS  H18S 1141   3.277   0.718   8.527  0.2910  0.4259 -0.2950
    9SAPS  C219 1142   3.070   0.668   8.505 -0.1092  0.2098  0.3392
    9SAPS  H19R 1143   3.075   0.579   8.571  0.0546 -0.5319 -0.6449
    9SAPS  H19S 1144   2.998   0.654   8.421 -0.0660 -1.4543  0.5443
    9SAPS  C220 1145   3.013   0.793   8.573  0.4181  0.4297 -0.1674
    9SAPS  H20R 1146   2.908   0.770   8.600  0.2298 -0.0686 -1.2753
    9SAPS  H20S 1147   3.005   0.872   8.496  0.5909  0.1065 -0.5201
    9SAPS  H20T 1148   3.065   0.829   8.664 -0.5405  0.9181  0.2069
    9SAPS   C33 1149   3.830   0.928   7.188 -0.5444 -0.0700 -0.3056
    9SAPS   H3X 1150   3.721   0.911   7.199 -0.6817  0.4849 -0.7488
    9SAPS   H3Y 1151   3.833   1.030   7.144 -0.9641  0.9607  1.9282
    9SAPS   C34 1152   3.899   0.929   7.321 -0.3554 -0.6261  0.0121
    9SAPS   H4X 1153   4.003   0.969   7.322 -0.8723  0.7355  0.7010
    9SAPS   H4Y 1154   3.919   0.825   7.356  0.3047 -0.9154 -1.1512
    9SAPS   C35 1155   3.815   1.013   7.422 -0.0799  0.4319  0.6059
    9SAPS   H5X 1156   3.721   0.956   7.440 -0.3406  0.5413 -0.3523
    9SAPS   H5Y 1157   3.787   1.110   7.376 -0.4192 -0.6998 -1.7285
    9SAPS   C36 1158   3.879   1.042   7.564  0.7428  0.1163 -0.0065
    9SAPS   H6X 1159   3.820   1.124   7.611  0.1961  0.2579 -0.9009
    9SAPS   H6Y 1160   3.980   1.087   7.554  1.2610 -0.7930  0.9545
    9SAPS   C37 1161   3.877   0.913   7.649 -0.4283  0.2697  0.5423
    9SAPS   H7X 1162   3.943   0.837   7.601 -0.1227  2.3413 -2.6852
    9SAPS   H7Y 1163   3.776   0.866   7.646 -2.0114  3.4181  0.5808
    9SAPS   C38 1164   3.929   0.949   7.789 -0.4814 -0.0237  0.2923
    9SAPS   H8X 1165   3.858   1.018   7.840 -0.9753 -1.0941  1.0899
    9SAPS   H8Y 1166   4.023   1.003   7.767  0.0459 -1.2031 -0.4315
    9SAPS   C39 1167   3.943   0.827   7.874 -0.2102 -1.2025 -0.1865
    9SAPS   H9X 1168   4.027   0.759   7.849 -0.9565 -1.8638 -0.9428
    9SAPS   H9Y 1169   3.852   0.772   7.842  0.4983 -1.5249 -1.7682
    9SAPS  C310 1170   3.960   0.873   8.022 -0.3771  0.2407 -0.1348
    9SAPS  H10X 1171   3.867   0.920   8.063  0.8924  1.0288  2.0009
    9SAPS  H10Y 1172   4.041   0.948   8.027 -0.0872 -0.1076  3.7214
    9SAPS  C311 1173   3.994   0.749   8.108  0.1449  0.0183 -1.0560
    9SAPS  H11X 1174   4.089   0.708   8.071 -0.2024 -0.0762 -1.8574
    9SAPS  H11Y 1175   3.914   0.674   8.091 -2.2606  1.9566  0.9278
    9SAPS  C312 1176   3.992   0.774   8.260 -0.2416  0.2407  0.0497
    9SAPS  H12X 1177   4.040   0.872   8.275  2.0260 -0.8614  0.3701
    9SAPS  H12Y 1178   4.052   0.697   8.313 -1.4457 -0.3508  0.6160
    9SAPS  C313 1179   3.855   0.794   8.316 -0.5404  0.2206  0.1944
    9SAPS  H13X 1180   3.793   0.705   8.291  0.1652 -0.6401  1.4381
    9SAPS  H13Y 1181   3.806   0.879   8.263  1.2093  1.3041  0.2245
    9SAPS  C314 1182   3.857   0.827   8.472 -0.5964 -0.5571 -0.3544
    9SAPS  H14X 1183   3.907   0.926   8.477 -0.7090 -0.3144 -2.9618
    9SAPS  H14Y 1184   3.918   0.748   8.521  0.6624  0.5510 -0.0811
    9SAPS  C315 1185   3.713   0.831   8.532 -0.4379  0.8921 -0.2632
    9SAPS  H15X 1186   3.692   0.722   8.524  2.5395 -0.2238  3.8289
    9SAPS  H15Y 1187   3.644   0.901   8.480  2.0862  1.7088 -2.8440
    9SAPS  C316 1188   3.708   0.857   8.685  0.4301  0.8106 -0.0916
    9SAPS  H16X 1189   3.775   0.785   8.736  0.8156  2.2021  1.4816
    9SAPS  H16Y 1190   3.604   0.832   8.716  0.3865 -1.0799 -1.5999
    9SAPS  C317 1191   3.745   0.992   8.730  0.1512  0.6270  0.0776
    9SAPS  H17X 1192   3.684   1.059   8.665  1.2007  0.7485 -0.8064
    9SAPS  H17Y 1193   3.849   1.018   8.701  0.3162  0.9232  0.9204
    9SAPS  C318 1194   3.735   1.031   8.880  0.0537  0.0442 -0.6582
    9SAPS  H18X 1195   3.637   0.995   8.918  0.5691  0.1973  0.8787
    9SAPS  H18Y 1196   3.748   1.139   8.903  1.6138 -0.1786 -0.3624
    9SAPS  H18Z 1197   3.812   0.977   8.939  1.1617 -0.3130 -2.3480
   10SAPS     N 1198   3.722   6.530   6.273  0.2873  0.3401 -0.5466
   10SAPS   HN1 1199   3.810   6.569   6.232 -0.1796  0.9449 -0.9874
   10SAPS   HN2 1200   3.718   6.560   6.372 -3.2524 -1.7227  0.0805
   10SAPS   HN3 1201   3.712   6.427   6.274 -1.1321  0.4511  1.3185
   10SAPS   C12 1202   3.599   6.590   6.210 -0.3912 -0.7980 -0.5447
   10SAPS  H12A 1203   3.593   6.684   6.262  4.1403 -1.0930  0.9387
   10SAPS   C13 1204   3.618   6.612   6.057 -0.2212  0.3480 -0.1001
   10SAPS  O13A 1205   3.735   6.614   6.002  0.3684  0.8590  0.0638
   10SAPS  O13B 1206   3.521   6.671   6.008  0.0780 -0.4684 -0.4648
   10SAPS   C11 1207   3.471   6.514   6.253  0.0178 -0.1943  0.3936
   10SAPS  H11A 1208   3.460   6.418   6.197  0.7056 -0.6746  1.0588
   10SAPS  H11B 1209   3.383   6.576   6.227 -0.9629 -0.2125  3.3808
   10SAPS     P 1210   3.347   6.508   6.476  0.5746 -0.6460  0.5084
   10SAPS   O13 1211   3.287   6.637   6.439 -0.4441  0.2649 -0.3789
   10SAPS   O14 1212   3.262   6.388   6.461 -0.0634 -0.1337  0.3282
   10SAPS   O12 1213   3.484   6.499   6.396 -0.0622  0.6891 -0.1113
   10SAPS   O11 1214   3.378   6.516   6.631 -0.1750  0.0117  0.4063
   10SAPS    C1 1215   3.494   6.443   6.674 -0.3237 -0.2906  0.1638
   10SAPS    HA 1216   3.482   6.336   6.645 -2.8123  0.2555 -1.1427
   10SAPS    HB 1217   3.589   6.478   6.629 -0.2244 -1.4641 -0.5859
   10SAPS    C2 1218   3.517   6.438   6.829  0.2235  0.3965 -0.3347
   10SAPS    HS 1219   3.583   6.354   6.860 -0.2265 -0.5055 -1.7272
   10SAPS   O21 1220   3.403   6.438   6.900 -0.8891  0.0103  0.3354
   10SAPS   C21 1221   3.338   6.333   6.887  0.7866  0.3126 -0.3652
   10SAPS   O22 1222   3.375   6.229   6.835  0.0464  0.2667 -0.4977
   10SAPS   C22 1223   3.198   6.346   6.939 -1.0724 -0.1761 -0.8655
   10SAPS   H2R 1224   3.120   6.400   6.881 -0.4742  0.0638 -1.4506
   10SAPS   H2S 1225   3.148   6.247   6.949 -0.1795 -0.3765  3.9412
   10SAPS    C3 1226   3.599   6.563   6.880 -0.0163 -0.3558 -0.0545
   10SAPS    HX 1227   3.561   6.649   6.821  0.2885  1.4801  2.3139
   10SAPS    HY 1228   3.701   6.540   6.842 -0.5630 -1.0631 -1.1729
   10SAPS   O31 1229   3.610   6.599   7.023  0.3631 -0.1975  0.6562
   10SAPS   C31 1230   3.505   6.660   7.067  0.3069 -0.3557  0.6433
   10SAPS   O32 1231   3.409   6.707   7.000  0.6743 -0.4817 -0.1705
   10SAPS   C32 1232   3.513   6.655   7.215  0.0963  0.2029  0.7250
   10SAPS   H2X 1233   3.593   6.726   7.247  0.8368 -0.6169  0.7207
   10SAPS   H2Y 1234   3.545   6.558   7.257 -0.5489 -0.0355  0.6819
   10SAPS   C23 1235   3.211   6.386   7.096 -0.6306  1.0201  0.3732
   10SAPS   H3R 1236   3.107   6.399   7.133 -0.8517 -1.1767  0.6503
   10SAPS   H3S 1237   3.270   6.480   7.094  1.0009  0.0261 -0.4292
   10SAPS   C24 1238   3.277   6.287   7.196  0.3684 -0.7086  0.7734
   10SAPS   H4R 1239   3.276   6.340   7.294  0.0931  1.5444 -0.3707
   10SAPS   H4S 1240   3.383   6.282   7.163  0.3730  0.3294  0.6092
   10SAPS   C25 1241   3.207   6.145   7.189  0.6430 -0.6267  0.1567
   10SAPS   H5R 1242   3.236   6.081   7.105  0.3193 -1.1455  0.4336
   10SAPS   C26 1243   3.137   6.091   7.289 -0.5170  0.0972  0.4676
   10SAPS   H6R 1244   3.099   5.988   7.275  1.6115 -0.7558  0.5175
   10SAPS   C27 1245   3.103   6.159   7.419 -0.7700  0.2558 -0.0671
   10SAPS   H7R 1246   3.010   6.106   7.450 -0.9903  0.3318 -0.5946
   10SAPS   H7S 1247   3.075   6.266   7.407 -1.0013  0.5937  2.7901
   10SAPS   C28 1248   3.224   6.139   7.520 -0.3001 -0.3686 -0.2416
   10SAPS   H8R 1249   3.314   6.090   7.480  0.8064  2.1210 -1.0070
   10SAPS   C29 1250   3.228   6.169   7.651  0.0443  0.0194  0.3671
   10SAPS   H9R 1251   3.314   6.138   7.711 -0.0895 -0.5269  0.2822
   10SAPS  C210 1252   3.119   6.234   7.719 -0.3081 -0.3789 -0.1528
   10SAPS  H10R 1253   3.060   6.147   7.755  2.6054 -2.9235 -1.1268
   10SAPS  H10S 1254   3.057   6.297   7.651  0.4230  0.3149 -0.1867
   10SAPS  C211 1255   3.170   6.325   7.836  0.2272 -0.5633  0.5063
   10SAPS  H11R 1256   3.200   6.427   7.807 -0.1430 -0.4535  0.5077
   10SAPS  C212 1257   3.213   6.287   7.959 -0.0013 -0.6491  0.7138
   10SAPS  H12R 1258   3.259   6.359   8.029 -0.2231 -0.5077  0.7167
   10SAPS  C213 1259   3.211   6.145   8.022  0.2062  0.3740  0.0814
   10SAPS  H13R 1260   3.303   6.134   8.084  0.4753  0.1882 -0.3446
   10SAPS  H13S 1261   3.210   6.072   7.939 -1.6159 -1.3356  1.5108
   10SAPS  C214 1262   3.092   6.098   8.098 -0.3299 -0.1521  0.3429
   10SAPS  H14R 1263   3.005   6.150   8.056 -0.0784  0.0564  0.0820
   10SAPS  C215 1264   3.084   6.024   8.207  0.3095 -0.5325  0.0529
   10SAPS  H15R 1265   2.987   5.999   8.252  0.6777 -0.4322  0.9266
   10SAPS  C216 1266   3.191   5.959   8.283 -0.6174  0.1118  0.0574
   10SAPS  H16R 1267   3.291   6.001   8.261 -0.5511  1.6387  2.7336
   10SAPS  H16S 1268   3.188   5.851   8.258  0.6932  0.6430 -2.8014
   10SAPS  C217 1269   3.182   5.965   8.443 -0.2393 -0.8252 -0.9572
   10SAPS  H17R 1270   3.087   5.925   8.486  1.0981 -1.5689  1.5151
   10SAPS  H17S 1271   3.176   6.074   8.466 -1.3241 -0.9405 -0.6468
   10SAPS  C218 1272   3.307   5.903   8.511  0.2202 -0.1967  0.3166
   10SAPS  H18R 1273   3.392   5.946   8.454 -0.9921 -0.0531 -1.4467
   10SAPS  H18S 1274   3.296   5.793   8.504 -0.4819 -0.2181  1.5644
   10SAPS  C219 1275   3.331   5.937   8.662 -0.0878  0.0219 -0.2782
   10SAPS  H19R 1276   3.355   6.045   8.672  1.6038 -0.2967 -0.6212
   10SAPS  H19S 1277   3.412   5.870   8.699 -0.9402 -0.3375  1.0038
   10SAPS  C220 1278   3.209   5.901   8.742  0.5550  0.2821 -0.1002
   10SAPS  H20R 1279   3.120   5.957   8.706  0.2288 -1.0770 -1.5168
   10SAPS  H20S 1280   3.223   5.924   8.850 -0.7951 -2.3635  0.7325
   10SAPS  H20T 1281   3.182   5.794   8.728 -1.5057  0.9191 -1.5089
   10SAPS   C33 1282   3.378   6.700   7.280 -0.2675  0.2198 -0.2669
   10SAPS   H3X 1283   3.295   6.629   7.261  0.7067 -0.9882 -0.1623
   10SAPS   H3Y 1284   3.346   6.804   7.261  1.0151  0.7651  0.4138
   10SAPS   C34 1285   3.373   6.692   7.439  0.2159  0.9332  0.0137
   10SAPS   H4X 1286   3.403   6.597   7.488 -4.0377 -1.0328 -0.6974
   10SAPS   H4Y 1287   3.268   6.707   7.472  0.0392  2.3571 -1.1342
   10SAPS   C35 1288   3.463   6.802   7.481  0.3343  0.3196 -0.4385
   10SAPS   H5X 1289   3.471   6.887   7.409  2.3452  2.0060  1.6144
   10SAPS   H5Y 1290   3.569   6.770   7.487  0.4306  0.8905  1.9963
   10SAPS   C36 1291   3.442   6.868   7.618 -0.1774 -0.0814  0.2787
   10SAPS   H6X 1292   3.332   6.880   7.627 -0.4139 -0.7298 -1.4831
   10SAPS   H6Y 1293   3.499   6.964   7.617 -1.7614  0.9292  1.1948
   10SAPS   C37 1294   3.487   6.782   7.740 -0.0512 -0.8426 -0.9560
   10SAPS   H7X 1295   3.595   6.792   7.763 -0.9983  1.5070  3.5317
   10SAPS   H7Y 1296   3.460   6.677   7.714 -0.5208 -0.3817 -2.3981
   10SAPS   C38 1297   3.401   6.816   7.868 -0.4413  0.1987  0.0861
   10SAPS   H8X 1298   3.296   6.835   7.838 -0.2670 -1.9592 -2.2691
   10SAPS   H8Y 1299   3.439   6.909   7.915 -0.8180  0.4035 -0.0121
   10SAPS   C39 1300   3.386   6.707   7.972 -0.6583 -0.1388  0.1722
   10SAPS   H9X 1301   3.378   6.613   7.913 -1.8895  0.3432 -0.4548
   10SAPS   H9Y 1302   3.305   6.733   8.043 -0.4672  2.1906 -0.3742
   10SAPS  C310 1303   3.507   6.668   8.061 -0.2723  0.2057 -0.1062
   10SAPS  H10X 1304   3.544   6.750   8.125  1.0059 -1.7365  1.7560
   10SAPS  H10Y 1305   3.591   6.632   7.998 -1.1094 -1.6234 -0.2277
   10SAPS  C311 1306   3.477   6.553   8.161  0.2522  0.5419 -0.2358
   10SAPS  H11X 1307   3.487   6.451   8.118  0.1588  0.7985 -0.8735
   10SAPS  H11Y 1308   3.371   6.572   8.188  0.2831  0.2288  0.1178
   10SAPS  C312 1309   3.560   6.570   8.295 -0.0621 -0.0044  0.2677
   10SAPS  H12X 1310   3.560   6.675   8.333  0.1179  0.0280  0.1816
   10SAPS  H12Y 1311   3.667   6.549   8.275  0.2468  1.5318  0.1450
   10SAPS  C313 1312   3.519   6.475   8.399  0.3244 -0.3736 -0.0868
   10SAPS  H13X 1313   3.583   6.460   8.488 -1.4481 -1.2424  1.1021
   10SAPS  H13Y 1314   3.504   6.374   8.356  1.2020 -0.9045  0.8482
   10SAPS  C314 1315   3.389   6.524   8.466 -0.0959 -0.3382 -0.4669
   10SAPS  H14X 1316   3.306   6.548   8.396 -0.5892 -1.1755 -0.1963
   10SAPS  H14Y 1317   3.428   6.619   8.506  1.7137 -1.3573  0.3013
   10SAPS  C315 1318   3.356   6.429   8.582  0.4626 -0.1574 -0.0919
   10SAPS  H15X 1319   3.430   6.421   8.664 -0.5120 -1.7604  0.6741
   10SAPS  H15Y 1320   3.362   6.327   8.539  0.5383  0.2150 -1.0078
   10SAPS  C316 1321   3.220   6.460   8.654 -0.3768  0.1697  0.1329
   10SAPS  H16X 1322   3.215   6.406   8.751 -3.5799  0.3466  0.1817
   10SAPS  H16Y 1323   3.137   6.420   8.592  0.3240 -0.4758 -0.4116
   10SAPS  C317 1324   3.203   6.610   8.702  0.3428  0.0015  0.1104
   10SAPS  H17X 1325   3.101   6.610   8.746  0.2355  4.5189  0.2841
   10SAPS  H17Y 1326   3.190   6.666   8.608  0.9964 -2.1997 -1.3697
   10SAPS  C318 1327   3.303   6.670   8.793  0.4004 -0.3848 -0.3071
   10SAPS  H18X 1328   3.409   6.640   8.779 -0.1072 -2.2847 -0.2960
   10SAPS  H18Y 1329   3.264   6.632   8.890 -1.6939  1.3295 -0.4187
   10SAPS  H18Z 1330   3.298   6.781   8.792 -2.2534 -0.4369  0.4388
   11SAPS     N 1331   4.305   2.618   6.148  0.3313  0.1335  0.7870
   11SAPS   HN1 1332   4.354   2.583   6.233  1.4350 -0.8725 -0.2115
   11SAPS   HN2 1333   4.285   2.719   6.159 -0.4013 -0.1184  1.8335
   11SAPS   HN3 1334   4.214   2.578   6.118  1.4099 -1.0431 -1.1797
   11SAPS   C12 1335   4.397   2.598   6.024 -1.1490 -0.5795  0.6549
   11SAPS  H12A 1336   4.341   2.616   5.933 -1.2939  0.6089  0.9602
   11SAPS   C13 1337   4.529   2.683   6.021 -0.0526 -0.0702 -0.5169
   11SAPS  O13A 1338   4.570   2.746   6.122  0.0556  0.7001 -0.1497
   11SAPS  O13B 1339   4.606   2.666   5.923 -0.1022 -0.3515  0.2594
   11SAPS   C11 1340   4.434   2.451   6.024 -0.0404  0.0941 -0.1673
   11SAPS  H11A 1341   4.475   2.427   6.125  2.0070  0.3661 -0.8944
   11SAPS  H11B 1342   4.519   2.422   5.958 -0.5381 -0.7719 -0.4534
   11SAPS     P 1343   4.298   2.220   6.013  0.5522 -0.1890 -0.4121
   11SAPS   O13 1344   4.165   2.176   5.969 -0.2284 -0.1966  0.0140
   11SAPS   O14 1345   4.411   2.142   5.958  0.1395 -0.4962 -0.3064
   11SAPS   O12 1346   4.313   2.374   5.988 -0.0456  0.5082  0.6214
   11SAPS   O11 1347   4.303   2.209   6.167 -0.5013 -0.0148 -0.1421
   11SAPS    C1 1348   4.205   2.282   6.250  0.7002 -0.3247 -0.4196
   11SAPS    HA 1349   4.255   2.359   6.313  1.0996 -0.9735  0.0704
   11SAPS    HB 1350   4.138   2.350   6.193 -0.8065 -1.4737 -0.0906
   11SAPS    C2 1351   4.102   2.200   6.324  0.8222  0.4475  0.2189
   11SAPS    HS 1352   4.025   2.275   6.350  0.9875  1.1684 -1.2791
   11SAPS   O21 1353   4.166   2.137   6.440 -0.1490 -0.1134 -0.4496
   11SAPS   C21 1354   4.192   2.223   6.536 -0.2760 -0.4785 -0.1852
   11SAPS   O22 1355   4.163   2.344   6.535  0.3939 -0.7806 -0.5432
   11SAPS   C22 1356   4.243   2.141   6.657  1.1920  0.1279  0.0664
   11SAPS   H2R 1357   4.274   2.043   6.616 -1.2173  0.1497 -2.0872
   11SAPS   H2S 1358   4.333   2.184   6.705  0.2028  0.9069  1.2844
   11SAPS    C3 1359   4.038   2.088   6.248  0.9663  0.6113 -0.1221
   11SAPS    HX 1360   4.120   2.021   6.215 -0.4183 -1.2866  0.0939
   11SAPS    HY 1361   3.997   2.134   6.156  1.5977  2.7262  0.5937
   11SAPS   O31 1362   3.940   2.023   6.333  0.0678  0.3464 -0.2298
   11SAPS   C31 1363   3.987   1.914   6.401 -0.3834 -0.3684  0.0730
   11SAPS   O32 1364   4.100   1.864   6.394 -0.0605 -0.1277 -0.1430
   11SAPS   C32 1365   3.871   1.861   6.484  0.6107  0.0997  0.3462
   11SAPS   H2X 1366   3.794   1.797   6.436  1.7658 -1.2496  0.1864
   11SAPS   H2Y 1367   3.831   1.947   6.542 -1.4067  0.6483 -1.7431
   11SAPS   C23 1368   4.139   2.122   6.766 -0.0984 -0.2627  0.2957
   11SAPS   H3R 1369   4.041   2.091   6.724 -0.9514 -0.2045  2.1576
   11SAPS   H3S 1370   4.105   2.221   6.801  1.2718  0.6367 -0.8169
   11SAPS   C24 1371   4.176   2.024   6.874 -0.6106  0.2451  0.1804
   11SAPS   H4R 1372   4.284   2.034   6.900 -0.3875 -0.7570 -0.3337
   11SAPS   H4S 1373   4.159   1.919   6.844 -1.8950 -0.4134  2.8251
   11SAPS   C25 1374   4.088   2.061   6.990  0.6452  0.1566 -0.6635
   11SAPS   H5R 1375   3.999   1.997   6.996  0.2168  0.8682  1.1911
   11SAPS   C26 1376   4.121   2.139   7.099  0.2437 -0.3185  0.3057
   11SAPS   H6R 1377   4.052   2.137   7.185 -1.3317  0.3526 -0.8753
   11SAPS   C27 1378   4.250   2.217   7.123 -0.3733 -0.0455  0.6632
   11SAPS   H7R 1379   4.307   2.251   7.034  1.1185  0.1622  1.6561
   11SAPS   H7S 1380   4.326   2.154   7.175  0.9450  0.4333 -0.6140
   11SAPS   C28 1381   4.234   2.340   7.213  0.8236 -0.0211  0.9616
   11SAPS   H8R 1382   4.198   2.429   7.161  0.8226  0.4728  1.7976
   11SAPS   C29 1383   4.266   2.349   7.339 -0.0668  0.3284 -0.3875
   11SAPS   H9R 1384   4.259   2.447   7.389 -2.2201 -0.3020  0.6778
   11SAPS  C210 1385   4.318   2.242   7.427 -0.6149  0.0159 -0.1235
   11SAPS  H10R 1386   4.345   2.154   7.365 -2.7995 -0.4705 -0.4766
   11SAPS  H10S 1387   4.228   2.205   7.479 -0.3213  1.3797  1.4338
   11SAPS  C211 1388   4.425   2.286   7.523  0.4887  0.0897 -0.1693
   11SAPS  H11R 1389   4.530   2.304   7.495  0.3577  0.5855 -0.3340
   11SAPS  C212 1390   4.408   2.276   7.655 -0.4445 -0.9002  0.5303
   11SAPS  H12R 1391   4.490   2.314   7.718 -1.3017 -0.1697  1.2513
   11SAPS  C213 1392   4.289   2.231   7.729  0.0356  0.3775 -1.1129
   11SAPS  H13R 1393   4.317   2.203   7.833 -0.5490  1.0467 -0.7630
   11SAPS  H13S 1394   4.245   2.144   7.675  0.5931  0.1363 -1.1880
   11SAPS  C214 1395   4.180   2.341   7.736 -0.0711  0.0030  0.4107
   11SAPS  H14R 1396   4.180   2.411   7.650  1.3384 -1.3090 -0.7149
   11SAPS  C215 1397   4.102   2.366   7.840  0.0364  0.4789  0.4044
   11SAPS  H15R 1398   4.039   2.456   7.844  0.1075  0.5789 -0.5175
   11SAPS  C216 1399   4.101   2.298   7.973 -0.5643  0.2544 -0.7867
   11SAPS  H16R 1400   4.136   2.193   7.983 -0.1472  0.3954 -0.7655
   11SAPS  H16S 1401   3.992   2.284   7.992 -0.8092 -1.7249 -3.1100
   11SAPS  C217 1402   4.162   2.386   8.090 -0.0608 -0.4798 -0.3836
   11SAPS  H17R 1403   4.118   2.488   8.100 -0.4034 -0.7598  1.4019
   11SAPS  H17S 1404   4.269   2.383   8.060  0.8759  2.9182  1.9963
   11SAPS  C218 1405   4.159   2.309   8.224  0.2608 -0.0089 -0.1112
   11SAPS  H18R 1406   4.212   2.373   8.298 -0.0908 -0.3287  0.4217
   11SAPS  H18S 1407   4.214   2.212   8.215  0.8315  0.4306 -1.8312
   11SAPS  C219 1408   4.021   2.288   8.279  0.4666  0.3594 -0.8460
   11SAPS  H19R 1409   4.036   2.228   8.371  1.3607  0.2236 -1.0695
   11SAPS  H19S 1410   3.959   2.218   8.220 -1.7272  2.0632 -0.6855
   11SAPS  C220 1411   3.936   2.408   8.317 -0.7291 -0.7441  0.6355
   11SAPS  H20R 1412   3.995   2.483   8.372  0.1089  0.9860 -2.3829
   11SAPS  H20S 1413   3.848   2.373   8.375  0.1441 -0.1934  2.3624
   11SAPS  H20T 1414   3.901   2.461   8.225 -0.2023 -0.9743  0.2966
   11SAPS   C33 1415   3.934   1.772   6.599  0.0755 -0.4117  0.3391
   11SAPS   H3X 1416   4.019   1.835   6.631 -1.2744  2.3456 -1.1758
   11SAPS   H3Y 1417   3.977   1.676   6.561 -1.6417 -2.1238  2.4257
   11SAPS   C34 1418   3.834   1.740   6.719 -0.0994  0.2214  0.4502
   11SAPS   H4X 1419   3.731   1.712   6.690 -0.5002  1.3257  0.7506
   11SAPS   H4Y 1420   3.811   1.839   6.764  2.6950  1.8104 -1.2991
   11SAPS   C35 1421   3.892   1.657   6.829 -0.7558  0.0262  0.5990
   11SAPS   H5X 1422   4.002   1.670   6.830 -0.8237  1.0406 -0.9187
   11SAPS   H5Y 1423   3.880   1.548   6.811  2.1950 -0.5866  1.7988
   11SAPS   C36 1424   3.846   1.691   6.971 -0.0386  0.3025 -0.6751
   11SAPS   H6X 1425   3.736   1.693   6.988 -0.0213  1.9596 -0.5221
   11SAPS   H6Y 1426   3.887   1.792   6.993 -0.9902  0.3888  0.8597
   11SAPS   C37 1427   3.900   1.590   7.080 -0.5514 -0.0576 -0.0154
   11SAPS   H7X 1428   4.009   1.606   7.094 -1.0468  1.2060  3.5179
   11SAPS   H7Y 1429   3.871   1.484   7.062 -1.5742  0.1101  0.5337
   11SAPS   C38 1430   3.851   1.628   7.216 -0.7021 -0.2375  0.1511
   11SAPS   H8X 1431   3.740   1.618   7.214 -0.7808  0.6404 -0.4777
   11SAPS   H8Y 1432   3.871   1.732   7.249 -2.6097 -0.3991  2.0497
   11SAPS   C39 1433   3.903   1.522   7.318 -0.1550 -0.3747  0.2640
   11SAPS   H9X 1434   4.013   1.538   7.317 -0.2252  0.4176  2.0881
   11SAPS   H9Y 1435   3.883   1.420   7.278 -1.1978 -1.6634  3.7600
   11SAPS  C310 1436   3.857   1.542   7.470 -0.2107  0.1419  0.9814
   11SAPS  H10X 1437   3.747   1.548   7.478 -0.5431 -2.0301 -0.8427
   11SAPS  H10Y 1438   3.911   1.634   7.500 -0.6617  0.7704 -0.0698
   11SAPS  C311 1439   3.909   1.418   7.553  0.4153 -0.0900 -0.6062
   11SAPS  H11X 1440   3.999   1.377   7.502  0.3515 -0.8082 -0.1560
   11SAPS  H11Y 1441   3.837   1.333   7.557  0.0761  0.2250  2.5355
   11SAPS  C312 1442   3.954   1.461   7.690  0.2947 -0.2792  0.6049
   11SAPS  H12X 1443   3.867   1.504   7.745 -0.3147  0.7737 -1.1020
   11SAPS  H12Y 1444   4.031   1.541   7.686 -2.0075  2.1401  1.6661
   11SAPS  C313 1445   4.010   1.341   7.772  0.5226  0.1057  1.1333
   11SAPS  H13X 1446   4.085   1.277   7.720  1.4771 -0.4381  3.0665
   11SAPS  H13Y 1447   3.928   1.271   7.801 -1.3071  1.7474  0.1674
   11SAPS  C314 1448   4.074   1.390   7.903 -0.0323 -0.2974 -0.8521
   11SAPS  H14X 1449   3.997   1.451   7.955 -0.4702  0.7322 -2.6051
   11SAPS  H14Y 1450   4.152   1.467   7.887 -0.2198 -0.0933 -0.7899
   11SAPS  C315 1451   4.129   1.280   7.999 -1.1221  0.3018 -0.0207
   11SAPS  H15X 1452   4.177   1.200   7.939 -1.2918  1.6461 -2.0945
   11SAPS  H15Y 1453   4.057   1.216   8.054 -0.2300 -0.1843  0.6050
   11SAPS  C316 1454   4.206   1.345   8.117 -0.1295 -0.3096  0.1280
   11SAPS  H16X 1455   4.132   1.394   8.183  0.0490 -1.1187  0.9534
   11SAPS  H16Y 1456   4.264   1.434   8.086 -2.4413  1.1415 -0.2627
   11SAPS  C317 1457   4.296   1.256   8.200  0.0229  0.0981 -0.1814
   11SAPS  H17X 1458   4.316   1.317   8.291 -1.6499 -1.5186  1.3665
   11SAPS  H17Y 1459   4.395   1.223   8.162 -0.2118 -2.0805  0.9288
   11SAPS  C318 1460   4.224   1.129   8.249  0.2465 -0.2472 -0.5822
   11SAPS  H18X 1461   4.122   1.156   8.284  1.3028  0.3111  2.3127
   11SAPS  H18Y 1462   4.279   1.084   8.333  0.5675 -0.0820 -0.7019
   11SAPS  H18Z 1463   4.227   1.055   8.166 -0.2011  0.8083 -1.5695
   12SAPS     N 1464   2.927   3.598   5.874  0.3354  0.0226  0.0616
   12SAPS   HN1 1465   2.862   3.518   5.860  3.5304 -2.4428 -2.1042
   12SAPS   HN2 1466   2.920   3.675   5.804  0.9069  0.4414  0.4466
   12SAPS   HN3 1467   3.022   3.564   5.848  0.6955  0.1228  1.2162
   12SAPS   C12 1468   2.933   3.634   6.016 -0.2354  0.1877 -0.2769
   12SAPS  H12A 1469   2.993   3.562   6.069 -1.1802  1.6164  2.9427
   12SAPS   C13 1470   2.989   3.772   6.052 -0.5069  0.2087 -0.0795
   12SAPS  O13A 1471   3.026   3.787   6.172 -0.0121 -0.1357 -0.2109
   12SAPS  O13B 1472   3.040   3.844   5.961 -0.1191 -0.1332 -0.1427
   12SAPS   C11 1473   2.790   3.621   6.079 -0.8202  0.3760 -0.3544
   12SAPS  H11A 1474   2.726   3.705   6.047 -2.4247 -0.6067  0.1369
   12SAPS  H11B 1475   2.800   3.613   6.190  0.6212  0.0354 -0.4868
   12SAPS     P 1476   2.766   3.362   6.093 -0.0726  0.1843 -0.3483
   12SAPS   O13 1477   2.687   3.251   6.037 -0.2697  0.7362  0.0440
   12SAPS   O14 1478   2.911   3.347   6.079 -0.0522  0.4084  0.0889
   12SAPS   O12 1479   2.731   3.500   6.032 -0.2838  0.2398 -0.6616
   12SAPS   O11 1480   2.734   3.375   6.243 -0.7267  0.1264  0.4116
   12SAPS    C1 1481   2.672   3.272   6.307  0.2572 -0.1982  0.4452
   12SAPS    HA 1482   2.666   3.180   6.246 -0.8504 -0.1830  0.5094
   12SAPS    HB 1483   2.728   3.245   6.399 -0.0880 -2.3893  0.0544
   12SAPS    C2 1484   2.525   3.306   6.349  0.2736 -0.2964  0.7406
   12SAPS    HS 1485   2.464   3.351   6.269 -0.6004 -2.2986  0.2177
   12SAPS   O21 1486   2.537   3.389   6.465 -0.8934  0.0599 -0.4181
   12SAPS   C21 1487   2.450   3.490   6.477 -0.4520  0.0308 -0.3194
   12SAPS   O22 1488   2.359   3.509   6.398  0.5801  0.4403 -0.3263
   12SAPS   C22 1489   2.485   3.595   6.595 -0.2029 -0.5366 -0.3258
   12SAPS   H2R 1490   2.595   3.614   6.589 -0.0671 -0.7648  1.0718
   12SAPS   H2S 1491   2.423   3.684   6.571 -0.4507 -1.0105 -1.4650
   12SAPS    C3 1492   2.449   3.170   6.387  0.4856  0.1819  0.8236
   12SAPS    HX 1493   2.497   3.128   6.478 -1.1498 -0.4493  1.4310
   12SAPS    HY 1494   2.469   3.092   6.311 -0.7612 -0.4400  1.1110
   12SAPS   O31 1495   2.305   3.181   6.389 -0.3127 -0.5413  0.1374
   12SAPS   C31 1496   2.247   3.178   6.510 -0.1122 -0.4363  0.0394
   12SAPS   O32 1497   2.303   3.164   6.616  0.2491 -1.1866 -0.2083
   12SAPS   C32 1498   2.100   3.205   6.496  0.2561 -0.0528 -0.3107
   12SAPS   H2X 1499   2.068   3.102   6.466 -0.7206 -0.8691  3.0733
   12SAPS   H2Y 1500   2.087   3.288   6.424  1.3614 -0.8505 -1.4786
   12SAPS   C23 1501   2.444   3.541   6.735 -0.5388 -0.1776  0.0474
   12SAPS   H3R 1502   2.336   3.514   6.734 -0.4454 -0.5756 -0.9350
   12SAPS   H3S 1503   2.464   3.631   6.797 -0.1192  2.0885 -3.1294
   12SAPS   C24 1504   2.538   3.425   6.782  0.1739  0.5684 -0.2777
   12SAPS   H4R 1505   2.633   3.479   6.799 -0.6751  2.7410 -2.0000
   12SAPS   H4S 1506   2.544   3.348   6.702  1.2640  0.7821 -0.4210
   12SAPS   C25 1507   2.474   3.355   6.902  0.3744 -0.1337  0.0713
   12SAPS   H5R 1508   2.443   3.250   6.893  0.0315  0.0748 -1.5236
   12SAPS   C26 1509   2.441   3.415   7.021 -0.3167 -0.0647 -0.2912
   12SAPS   H6R 1510   2.399   3.356   7.103 -1.2263 -0.9241 -1.3556
   12SAPS   C27 1511   2.481   3.560   7.055  0.4588 -0.3391 -0.5482
   12SAPS   H7R 1512   2.391   3.624   7.046  0.2778 -0.5463 -0.2206
   12SAPS   H7S 1513   2.562   3.594   6.987  0.7231  0.5461  0.1866
   12SAPS   C28 1514   2.532   3.538   7.200  0.7091 -0.2864 -0.0064
   12SAPS   H8R 1515   2.459   3.561   7.278  2.1286 -1.2702  1.6666
   12SAPS   C29 1516   2.652   3.494   7.240 -0.2518 -0.7466 -0.3241
   12SAPS   H9R 1517   2.684   3.511   7.344  1.6831  0.7286 -1.0865
   12SAPS  C210 1518   2.766   3.447   7.154 -0.0352 -0.1190 -0.4960
   12SAPS  H10R 1519   2.768   3.509   7.062  2.6378  0.5527 -0.0726
   12SAPS  H10S 1520   2.742   3.346   7.112  1.0487 -0.4720 -0.3036
   12SAPS  C211 1521   2.912   3.463   7.207  0.0984  0.3308 -0.4706
   12SAPS  H11R 1522   2.966   3.548   7.162  1.7352  0.1116  0.9565
   12SAPS  C212 1523   2.984   3.392   7.295 -0.0217  0.7500 -0.3095
   12SAPS  H12R 1524   3.085   3.428   7.315 -0.3880  1.0885  1.0448
   12SAPS  C213 1525   2.930   3.283   7.383 -0.1792 -0.3380 -0.2332
   12SAPS  H13R 1526   2.994   3.194   7.372  0.2580  0.0677 -1.0958
   12SAPS  H13S 1527   2.829   3.262   7.340  0.0802  2.9584 -2.9010
   12SAPS  C214 1528   2.920   3.344   7.531  0.1466 -0.1574  0.7248
   12SAPS  H14R 1529   2.865   3.439   7.533  2.6972  1.4990 -1.1144
   12SAPS  C215 1530   2.986   3.304   7.637 -0.2423 -0.5169  0.0922
   12SAPS  H15R 1531   2.961   3.351   7.733 -0.5068  0.2644 -0.3555
   12SAPS  C216 1532   3.088   3.191   7.637  0.8144 -0.3115 -0.7936
   12SAPS  H16R 1533   3.084   3.126   7.547 -3.5328 -1.6908  0.1486
   12SAPS  H16S 1534   3.061   3.121   7.719  3.4499 -0.1522  0.3056
   12SAPS  C217 1535   3.236   3.221   7.666 -0.0961 -0.2642  0.5159
   12SAPS  H17R 1536   3.302   3.134   7.685 -0.7721 -0.5487  1.6151
   12SAPS  H17S 1537   3.244   3.290   7.753 -0.9118 -0.0757  0.4509
   12SAPS  C218 1538   3.295   3.295   7.543  0.2440  0.0199  0.1011
   12SAPS  H18R 1539   3.389   3.341   7.581 -0.1375  2.9182 -2.1242
   12SAPS  H18S 1540   3.226   3.365   7.492 -0.4880  0.6441  1.8640
   12SAPS  C219 1541   3.342   3.203   7.432 -0.6232 -0.1138  0.3145
   12SAPS  H19R 1542   3.248   3.157   7.394 -0.5314 -0.9341  1.0595
   12SAPS  H19S 1543   3.405   3.121   7.473 -0.1761 -0.2044 -0.5281
   12SAPS  C220 1544   3.410   3.274   7.315 -0.2095 -0.4101  0.4943
   12SAPS  H20R 1545   3.494   3.341   7.347 -0.7108  0.4447  0.0655
   12SAPS  H20S 1546   3.336   3.330   7.254  0.4967  0.3666  0.3216
   12SAPS  H20T 1547   3.451   3.204   7.239 -1.3647 -0.3034 -0.2460
   12SAPS   C33 1548   2.019   3.214   6.632 -0.1499 -0.3462  0.0816
   12SAPS   H3X 1549   2.054   3.143   6.711 -1.7885 -1.6341 -0.3138
   12SAPS   H3Y 1550   1.913   3.182   6.622 -0.2680 -0.8560  2.2900
   12SAPS   C34 1551   2.011   3.356   6.693 -0.7836  0.5453  0.1756
   12SAPS   H4X 1552   1.955   3.428   6.630 -1.8029 -0.9843 -0.7568
   12SAPS   H4Y 1553   2.115   3.396   6.698 -0.8272  0.9181 -1.3762
   12SAPS   C35 1554   1.947   3.370   6.832 -0.0520 -0.3466  0.1245
   12SAPS   H5X 1555   2.007   3.311   6.905 -0.3893 -0.5671  0.2269
   12SAPS   H5Y 1556   1.847   3.324   6.824 -0.4116  0.4468 -0.0927
   12SAPS   C36 1557   1.950   3.524   6.871 -0.3392 -0.2120 -0.0742
   12SAPS   H6X 1558   1.914   3.570   6.777  1.0844 -2.4996 -1.8454
   12SAPS   H6Y 1559   2.057   3.555   6.879  0.0686 -1.7839  1.1365
   12SAPS   C37 1560   1.868   3.571   6.993  0.2363 -0.0737 -0.4625
   12SAPS   H7X 1561   1.770   3.528   6.962  0.2630  1.5843 -3.2173
   12SAPS   H7Y 1562   1.859   3.680   7.009  1.5138 -0.0623  0.3031
   12SAPS   C38 1563   1.928   3.513   7.125  0.0891  0.1162  0.5500
   12SAPS   H8X 1564   1.952   3.406   7.102  1.2425  0.3946  0.3597
   12SAPS   H8Y 1565   1.844   3.511   7.198  0.9167 -0.6693  1.5147
   12SAPS   C39 1566   2.052   3.593   7.157  0.2491  0.3652  0.1529
   12SAPS   H9X 1567   2.002   3.692   7.168 -1.1117 -0.1381 -1.1657
   12SAPS   H9Y 1568   2.124   3.599   7.073  0.5666 -1.0329  0.3099
   12SAPS  C310 1569   2.127   3.545   7.282  0.1786  0.6210 -0.8292
   12SAPS  H10X 1570   2.226   3.593   7.300 -0.1048  1.1131 -0.5584
   12SAPS  H10Y 1571   2.147   3.437   7.269 -1.3501  0.0925  0.7051
   12SAPS  C311 1572   2.045   3.569   7.411  0.7242  0.0313 -0.1657
   12SAPS  H11X 1573   1.952   3.509   7.409 -0.4735  1.5259  3.1930
   12SAPS  H11Y 1574   2.016   3.676   7.416 -3.2554 -0.8522 -1.3150
   12SAPS  C312 1575   2.115   3.515   7.537  0.2226 -0.1510  0.0774
   12SAPS  H12X 1576   2.128   3.406   7.524 -0.4605 -0.1344 -0.8363
   12SAPS  H12Y 1577   2.034   3.520   7.613  1.0635  0.5018  0.9452
   12SAPS  C313 1578   2.248   3.574   7.581 -0.7696 -0.4059  0.6337
   12SAPS  H13X 1579   2.255   3.683   7.557  0.1248 -0.7038 -0.5806
   12SAPS  H13Y 1580   2.332   3.536   7.519 -0.7675 -1.2964  1.1606
   12SAPS  C314 1581   2.273   3.543   7.723  0.0993  0.4162  0.6451
   12SAPS  H14X 1582   2.380   3.569   7.738  0.1844  0.0132  0.7301
   12SAPS  H14Y 1583   2.267   3.433   7.735  2.0420  0.1803 -0.1999
   12SAPS  C315 1584   2.181   3.631   7.802 -0.7805  0.1218  0.0696
   12SAPS  H15X 1585   2.079   3.590   7.817 -0.7585  0.1500  0.2992
   12SAPS  H15Y 1586   2.183   3.729   7.751 -1.0287  0.1154  0.0461
   12SAPS  C316 1587   2.236   3.661   7.938 -0.8569  0.1932  0.2028
   12SAPS  H16X 1588   2.346   3.675   7.944 -1.0550  2.2175 -0.0388
   12SAPS  H16Y 1589   2.213   3.571   7.999 -2.4208 -1.5960 -2.8003
   12SAPS  C317 1590   2.175   3.795   7.996  0.6061 -0.4471  0.3372
   12SAPS  H17X 1591   2.064   3.791   8.000  0.3634  2.9725  0.4398
   12SAPS  H17Y 1592   2.212   3.878   7.931  0.3685 -0.3219  0.3622
   12SAPS  C318 1593   2.224   3.823   8.137  0.0169 -0.4065 -0.5450
   12SAPS  H18X 1594   2.170   3.904   8.191 -1.7700 -1.2829 -0.9490
   12SAPS  H18Y 1595   2.330   3.857   8.134  0.5586 -2.0175 -0.6703
   12SAPS  H18Z 1596   2.227   3.731   8.200 -0.6552 -2.6012 -3.4986
   13SAPS     N 1597   3.070   3.110   6.083 -0.0539 -1.0569 -0.0919
   13SAPS   HN1 1598   3.019   3.199   6.064  1.1327 -0.8106 -2.3986
   13SAPS   HN2 1599   3.002   3.035   6.109 -0.0674 -1.0196 -0.0177
   13SAPS   HN3 1600   3.150   3.128   6.146 -1.2215  1.1501  0.8803
   13SAPS   C12 1601   3.116   3.081   5.948  0.1031 -0.1169 -0.5511
   13SAPS  H12A 1602   3.204   3.019   5.953  1.0214  1.1590 -0.2283
   13SAPS   C13 1603   3.010   3.018   5.855  0.4049 -0.4526 -0.3892
   13SAPS  O13A 1604   2.889   3.002   5.888 -0.2916  0.1722  0.1936
   13SAPS  O13B 1605   3.055   2.982   5.741 -0.7084 -0.3144  0.0303
   13SAPS   C11 1606   3.174   3.207   5.886  0.4062  0.5083 -0.1741
   13SAPS  H11A 1607   3.085   3.263   5.850  0.1089 -0.3256 -0.7676
   13SAPS  H11B 1608   3.236   3.170   5.801 -1.5203 -2.3650 -0.4501
   13SAPS     P 1609   3.383   3.254   6.050  0.2713 -0.3231  0.1781
   13SAPS   O13 1610   3.460   3.175   5.951 -0.6261  0.1608  0.0758
   13SAPS   O14 1611   3.451   3.376   6.104 -0.3657 -0.5171  0.1169
   13SAPS   O12 1612   3.250   3.296   5.969 -0.0412 -0.0452  0.0540
   13SAPS   O11 1613   3.337   3.158   6.170  0.1737  0.4645 -0.0169
   13SAPS    C1 1614   3.424   3.125   6.277 -0.2323  0.8446 -0.1911
   13SAPS    HA 1615   3.518   3.073   6.248  0.2807 -0.3985  3.1593
   13SAPS    HB 1616   3.441   3.211   6.345 -0.3026 -2.1425  4.1028
   13SAPS    C2 1617   3.353   3.015   6.367 -0.3221  0.3751  0.0991
   13SAPS    HS 1618   3.333   2.931   6.297  2.2084  0.6930 -1.1194
   13SAPS   O21 1619   3.224   3.076   6.404  0.0483  0.0263 -0.1772
   13SAPS   C21 1620   3.127   2.996   6.437 -0.4646  0.2441  0.2875
   13SAPS   O22 1621   3.134   2.873   6.438  0.2950  0.2464 -0.1763
   13SAPS   C22 1622   2.994   3.065   6.465 -0.5127  0.2999 -0.1241
   13SAPS   H2R 1623   3.009   3.149   6.537  1.5720 -0.9530  1.0053
   13SAPS   H2S 1624   2.960   3.114   6.371 -2.3451  1.9341  1.3087
   13SAPS    C3 1625   3.433   2.982   6.493 -0.3248 -0.5177 -0.1423
   13SAPS    HX 1626   3.456   3.071   6.556  2.4615 -0.2527 -1.3795
   13SAPS    HY 1627   3.536   2.949   6.465 -0.0269 -0.8304  1.2582
   13SAPS   O31 1628   3.361   2.887   6.570 -0.2425 -0.1964 -0.2142
   13SAPS   C31 1629   3.397   2.757   6.564 -0.0124 -0.5105 -0.1538
   13SAPS   O32 1630   3.479   2.707   6.486 -0.3224 -0.1123 -0.0310
   13SAPS   C32 1631   3.301   2.682   6.656  0.2787 -0.5670 -0.3245
   13SAPS   H2X 1632   3.223   2.626   6.599 -0.5022 -1.1768  1.2903
   13SAPS   H2Y 1633   3.243   2.758   6.712 -0.9599 -2.8836  1.7459
   13SAPS   C23 1634   2.887   2.967   6.516  0.3341 -0.2451 -0.6628
   13SAPS   H3R 1635   2.923   2.930   6.614 -1.0458 -0.1235 -0.0896
   13SAPS   H3S 1636   2.890   2.882   6.444 -0.4389  0.4781 -1.5766
   13SAPS   C24 1637   2.743   3.023   6.529 -0.0352  0.3131  0.1270
   13SAPS   H4R 1638   2.690   3.041   6.433 -1.0628  2.8082  1.0541
   13SAPS   H4S 1639   2.746   3.114   6.594 -1.0792 -0.2959  1.0691
   13SAPS   C25 1640   2.675   2.912   6.605  0.2698  0.1419 -0.0438
   13SAPS   H5R 1641   2.688   2.810   6.565  2.6862  0.8363 -1.1555
   13SAPS   C26 1642   2.615   2.918   6.728  0.5595 -0.3565  0.0917
   13SAPS   H6R 1643   2.580   2.822   6.768  0.1941 -1.0907 -1.8527
   13SAPS   C27 1644   2.587   3.041   6.806 -0.4872  0.0954 -0.3966
   13SAPS   H7R 1645   2.502   3.032   6.877  0.2972 -0.2620  0.5333
   13SAPS   H7S 1646   2.548   3.116   6.735  1.2156  2.7268  1.2329
   13SAPS   C28 1647   2.712   3.085   6.879 -0.0421 -0.1228 -0.0943
   13SAPS   H8R 1648   2.791   3.144   6.828  0.3652 -0.6748 -0.1100
   13SAPS   C29 1649   2.730   3.064   7.007  0.0295 -0.5653 -0.2492
   13SAPS   H9R 1650   2.829   3.084   7.050 -0.9635 -0.5797  2.2493
   13SAPS  C210 1651   2.634   2.994   7.097  0.1442  0.0108  0.0763
   13SAPS  H10R 1652   2.666   2.888   7.108  1.4203  0.6075  2.8514
   13SAPS  H10S 1653   2.527   3.000   7.069  0.2555 -0.8624 -0.6005
   13SAPS  C211 1654   2.650   3.061   7.233  0.0310  0.2326 -0.4448
   13SAPS  H11R 1655   2.594   3.156   7.229  0.4953  0.4891 -1.4608
   13SAPS  C212 1656   2.705   3.016   7.345 -0.1974  0.8796 -0.0421
   13SAPS  H12R 1657   2.705   3.076   7.437  0.8052 -1.0153  1.2662
   13SAPS  C213 1658   2.775   2.885   7.368 -0.1809  0.4097  0.2386
   13SAPS  H13R 1659   2.730   2.803   7.309  1.2113 -0.0275 -0.2410
   13SAPS  H13S 1660   2.758   2.852   7.473  2.5149 -0.4661  0.4780
   13SAPS  C214 1661   2.923   2.890   7.352  0.3034 -0.4382 -0.1436
   13SAPS  H14R 1662   2.972   2.975   7.400  1.8908 -0.8083 -1.0322
   13SAPS  C215 1663   2.997   2.813   7.276 -0.5183  0.9145  0.1594
   13SAPS  H15R 1664   3.107   2.817   7.281 -0.5616  0.4320  1.8246
   13SAPS  C216 1665   2.947   2.710   7.176  0.9560  0.1039  0.3919
   13SAPS  H16R 1666   2.838   2.704   7.157  0.9490 -2.7816  0.9299
   13SAPS  H16S 1667   2.983   2.609   7.204  1.5166  0.6970  1.9012
   13SAPS  C217 1668   3.018   2.744   7.044  0.2134  0.2098  0.3641
   13SAPS  H17R 1669   3.121   2.703   7.050  0.3589  0.7323  2.0729
   13SAPS  H17S 1670   3.022   2.855   7.036  0.0855  0.0874 -1.8591
   13SAPS  C218 1671   2.946   2.701   6.917  0.0451  0.2399  1.0984
   13SAPS  H18R 1672   3.011   2.722   6.830  0.6392  1.4064  1.8055
   13SAPS  H18S 1673   2.852   2.759   6.908 -2.5588 -3.7162 -0.0626
   13SAPS  C219 1674   2.914   2.555   6.899  0.0751  0.2288 -0.6149
   13SAPS  H19R 1675   2.834   2.526   6.970  0.8360  0.5858  0.4303
   13SAPS  H19S 1676   3.003   2.504   6.942 -0.5956  0.0006  0.5574
   13SAPS  C220 1677   2.884   2.508   6.754  0.4642  0.0549 -0.3982
   13SAPS  H20R 1678   2.981   2.507   6.701  0.5992 -1.0804 -0.1644
   13SAPS  H20S 1679   2.816   2.577   6.699 -0.2514  0.8549  1.3988
   13SAPS  H20T 1680   2.853   2.401   6.752  1.2882 -0.1897 -0.6016
   13SAPS   C33 1681   3.379   2.590   6.743 -0.2504  0.2333 -0.4675
   13SAPS   H3X 1682   3.458   2.651   6.792 -0.4673 -0.3649  0.6525
   13SAPS   H3Y 1683   3.432   2.506   6.692  0.6156 -0.9753  2.2247
   13SAPS   C34 1684   3.298   2.522   6.847  0.1704  0.1841  0.2050
   13SAPS   H4X 1685   3.243   2.438   6.800 -0.7035  1.3241 -0.8849
   13SAPS   H4Y 1686   3.230   2.600   6.886 -1.0545  0.2724 -1.9935
   13SAPS   C35 1687   3.385   2.486   6.970  0.4710  0.5171 -0.1916
   13SAPS   H5X 1688   3.442   2.564   7.025  1.6110 -1.2770  1.3293
   13SAPS   H5Y 1689   3.464   2.424   6.923  1.0286  1.9086 -1.1447
   13SAPS   C36 1690   3.300   2.411   7.075  0.0643  0.6020  0.5551
   13SAPS   H6X 1691   3.272   2.312   7.033  0.1473  0.9520 -0.3289
   13SAPS   H6Y 1692   3.213   2.474   7.100 -0.8135 -0.7912  1.1467
   13SAPS   C37 1693   3.376   2.381   7.210  0.3278 -0.3190  0.0292
   13SAPS   H7X 1694   3.386   2.478   7.263 -0.3563  0.8452 -1.8970
   13SAPS   H7Y 1695   3.474   2.335   7.187  0.9326  0.3609  1.1554
   13SAPS   C38 1696   3.309   2.280   7.304  0.4636  0.4961  1.0196
   13SAPS   H8X 1697   3.290   2.184   7.253 -1.9793  0.0385  2.6235
   13SAPS   H8Y 1698   3.207   2.309   7.336  0.0833 -1.8746  2.1357
   13SAPS   C39 1699   3.388   2.265   7.434 -0.0942  1.1641 -0.2544
   13SAPS   H9X 1700   3.377   2.353   7.501  2.3051  0.7503  0.7908
   13SAPS   H9Y 1701   3.497   2.269   7.413  0.0964  0.7513  0.6102
   13SAPS  C310 1702   3.365   2.132   7.516  0.1193  0.6788 -0.0470
   13SAPS  H10X 1703   3.377   2.037   7.461  0.7548 -1.0994  2.9471
   13SAPS  H10Y 1704   3.260   2.144   7.551  0.0516  0.4902 -0.1853
   13SAPS  C311 1705   3.452   2.124   7.647  0.6009 -0.2937 -0.1101
   13SAPS  H11X 1706   3.419   2.208   7.711 -0.2295 -0.5435 -0.1924
   13SAPS  H11Y 1707   3.560   2.142   7.628  0.9827 -0.3101  1.8739
   13SAPS  C312 1708   3.428   2.004   7.725 -0.3591  0.2352 -0.2057
   13SAPS  H12X 1709   3.490   2.014   7.816 -1.9197  0.5497  0.8527
   13SAPS  H12Y 1710   3.463   1.920   7.660  2.7503  0.0411  1.5092
   13SAPS  C313 1711   3.292   1.966   7.779  0.1353  0.1077  0.0729
   13SAPS  H13X 1712   3.225   1.960   7.691  0.4608  2.1005 -0.3636
   13SAPS  H13Y 1713   3.265   2.060   7.832  2.9268  0.0630  1.8174
   13SAPS  C314 1714   3.275   1.843   7.873  0.1692 -0.0275  0.5891
   13SAPS  H14X 1715   3.323   1.755   7.824 -1.4164 -0.0159 -1.1172
   13SAPS  H14Y 1716   3.166   1.829   7.891  0.3995 -0.4904  1.6976
   13SAPS  C315 1717   3.355   1.856   8.005  0.9597 -0.7454  1.0637
   13SAPS  H15X 1718   3.366   1.964   8.027 -1.5559  0.4216 -2.4943
   13SAPS  H15Y 1719   3.460   1.821   7.999  1.5288  1.0578 -1.1067
   13SAPS  C316 1720   3.280   1.792   8.122  0.1416  0.1854 -0.2195
   13SAPS  H16X 1721   3.284   1.683   8.101  0.5376 -0.1427  1.4190
   13SAPS  H16Y 1722   3.175   1.829   8.131  0.9623  2.6522 -0.0847
   13SAPS  C317 1723   3.342   1.820   8.265 -0.3356 -0.1383  0.3855
   13SAPS  H17X 1724   3.366   1.927   8.279  0.3153  0.0316 -1.7395
   13SAPS  H17Y 1725   3.441   1.770   8.271  0.8009  2.0763  1.2115
   13SAPS  C318 1726   3.248   1.764   8.371  0.5006 -0.1242 -0.0144
   13SAPS  H18X 1727   3.296   1.758   8.471 -0.5901  1.8928  0.6897
   13SAPS  H18Y 1728   3.226   1.661   8.335 -0.6968  0.5011 -1.1428
   13SAPS  H18Z 1729   3.153   1.820   8.385  0.6155 -0.4360  2.4030
   14SAPS     N 1730   4.626   4.217   5.873 -0.0031  0.3355  0.2380
   14SAPS   HN1 1731   4.569   4.281   5.932 -0.2698 -1.2907  1.8189
   14SAPS   HN2 1732   4.691   4.269   5.811 -1.7316  1.7659 -0.4948
   14SAPS   HN3 1733   4.570   4.167   5.801  2.9904  1.9894 -3.6188
   14SAPS   C12 1734   4.692   4.124   5.962 -0.4457  0.5762  0.8841
   14SAPS  H12A 1735   4.638   4.104   6.053  1.9836 -0.1771  2.2551
   14SAPS   C13 1736   4.734   3.987   5.888 -0.1082  0.1020  0.0559
   14SAPS  O13A 1737   4.708   3.978   5.767 -0.4283 -0.1065  0.2882
   14SAPS  O13B 1738   4.812   3.908   5.943 -0.2304  0.2848  0.1922
   14SAPS   C11 1739   4.829   4.192   6.010  0.3840 -0.0390  0.2526
   14SAPS  H11A 1740   4.893   4.212   5.921  1.9410 -3.3534  0.4824
   14SAPS  H11B 1741   4.890   4.116   6.063  1.9685 -0.4891 -2.0363
   14SAPS     P 1742   4.924   4.361   6.175 -0.1023  0.0493  0.4657
   14SAPS   O13 1743   5.039   4.385   6.082 -0.2710  0.1167 -0.1519
   14SAPS   O14 1744   4.884   4.474   6.261 -0.3861  0.2743  0.3642
   14SAPS   O12 1745   4.805   4.300   6.097 -0.1542  0.1376  0.1571
   14SAPS   O11 1746   4.965   4.239   6.272  0.2362  0.3190 -0.3454
   14SAPS    C1 1747   4.857   4.186   6.361  0.0383 -0.1714 -0.3271
   14SAPS    HA 1748   4.781   4.263   6.387 -0.1416 -0.2553 -0.6044
   14SAPS    HB 1749   4.785   4.113   6.319  0.0755 -0.7460  0.5817
   14SAPS    C2 1750   4.907   4.138   6.494  0.2693  0.3535 -0.8190
   14SAPS    HS 1751   4.821   4.078   6.530 -0.5334  1.2252 -1.2194
   14SAPS   O21 1752   4.948   4.252   6.577  0.0043 -0.2049 -0.9386
   14SAPS   C21 1753   4.856   4.319   6.639 -0.1275 -0.2426 -0.4252
   14SAPS   O22 1754   4.737   4.297   6.631 -0.3464  0.2099 -0.2713
   14SAPS   C22 1755   4.925   4.428   6.730  0.3580 -0.2086 -0.0481
   14SAPS   H2R 1756   5.011   4.378   6.781  0.8657  0.7165  0.0283
   14SAPS   H2S 1757   4.957   4.519   6.675 -3.5086  0.3409 -1.6682
   14SAPS    C3 1758   5.040   4.053   6.496 -0.9241  0.6033  0.0064
   14SAPS    HX 1759   5.123   4.123   6.471 -0.9053  1.5929  2.5938
   14SAPS    HY 1760   5.047   3.971   6.422  1.2269  0.9868 -0.2784
   14SAPS   O31 1761   5.074   3.999   6.630  0.4992 -0.3400 -0.0126
   14SAPS   C31 1762   5.003   3.909   6.677  0.4330 -0.0116  0.2070
   14SAPS   O32 1763   4.907   3.857   6.621 -0.4267  0.0255 -0.2489
   14SAPS   C32 1764   5.053   3.877   6.818 -0.2459  0.9451 -0.7487
   14SAPS   H2X 1765   5.105   3.962   6.867  0.8178 -1.1841  2.0362
   14SAPS   H2Y 1766   5.132   3.800   6.814  0.9970  1.9707  1.9270
   14SAPS   C23 1767   4.845   4.480   6.855  0.3588 -0.5279 -0.2470
   14SAPS   H3R 1768   4.835   4.400   6.931  2.4922  0.1900  0.8728
   14SAPS   H3S 1769   4.755   4.539   6.828  0.6993  0.1493  0.0724
   14SAPS   C24 1770   4.923   4.586   6.938  0.2237 -0.1456 -0.5497
   14SAPS   H4R 1771   4.955   4.660   6.861 -0.1013 -1.0612 -1.5844
   14SAPS   H4S 1772   5.022   4.542   6.964 -0.1648 -1.1312 -0.6979
   14SAPS   C25 1773   4.835   4.638   7.050 -0.4766 -0.2148  0.3036
   14SAPS   H5R 1774   4.746   4.701   7.036  0.0299  0.9428  1.9757
   14SAPS   C26 1775   4.854   4.613   7.183  0.4250  0.3856  0.2702
   14SAPS   H6R 1776   4.783   4.666   7.248  1.4255 -0.3197  2.0131
   14SAPS   C27 1777   4.953   4.530   7.256  0.3488  0.4622 -0.2519
   14SAPS   H7R 1778   4.992   4.456   7.182  1.0909  1.5660 -0.9829
   14SAPS   H7S 1779   4.905   4.484   7.344  0.5997  2.0798  0.7644
   14SAPS   C28 1780   5.081   4.599   7.303 -0.2294  0.5914  0.2027
   14SAPS   H8R 1781   5.162   4.609   7.230 -0.1922  0.1821  0.1860
   14SAPS   C29 1782   5.098   4.628   7.433 -0.6575 -0.6416 -0.3202
   14SAPS   H9R 1783   5.194   4.673   7.462 -1.4516  0.2149  1.0447
   14SAPS  C210 1784   5.008   4.603   7.556 -0.3495 -0.5708  0.0072
   14SAPS  H10R 1785   4.961   4.502   7.551 -0.8831 -0.2741 -1.5222
   14SAPS  H10S 1786   4.920   4.670   7.547  0.8425  1.3193  1.5591
   14SAPS  C211 1787   5.080   4.625   7.687  0.9432  1.0688  0.0511
   14SAPS  H11R 1788   5.132   4.535   7.723  0.0138  0.0193 -1.1648
   14SAPS  C212 1789   5.096   4.746   7.749 -0.1113  0.0874 -0.1672
   14SAPS  H12R 1790   5.166   4.750   7.834  0.6864 -0.2930 -0.7842
   14SAPS  C213 1791   5.048   4.878   7.690 -0.4370 -0.3689  0.5496
   14SAPS  H13R 1792   4.949   4.871   7.639 -0.4502 -0.8288  0.6349
   14SAPS  H13S 1793   5.107   4.896   7.597 -0.5605 -3.0834 -0.1237
   14SAPS  C214 1794   5.055   4.995   7.784  0.7360  0.7156 -0.2679
   14SAPS  H14R 1795   5.130   5.070   7.754  0.7468  1.0043  0.4519
   14SAPS  C215 1796   4.985   5.009   7.892 -0.3078  0.5736  0.4311
   14SAPS  H15R 1797   5.007   5.097   7.954 -3.1808  2.0940 -0.5334
   14SAPS  C216 1798   4.872   4.918   7.936  0.3260  0.3948  0.6767
   14SAPS  H16R 1799   4.896   4.883   8.039  2.1541  1.0125  0.5003
   14SAPS  H16S 1800   4.847   4.835   7.866  2.0299 -1.6919  2.3806
   14SAPS  C217 1801   4.741   4.994   7.956  0.6368  0.7456 -0.6924
   14SAPS  H17R 1802   4.673   4.922   8.007  2.6376 -2.4954 -2.2964
   14SAPS  H17S 1803   4.694   5.020   7.859  0.0547  1.1656 -0.3130
   14SAPS  C218 1804   4.750   5.116   8.046 -0.3121 -0.4349  0.3269
   14SAPS  H18R 1805   4.644   5.146   8.054 -0.6176 -1.0907 -0.9829
   14SAPS  H18S 1806   4.803   5.202   7.999 -0.3387  0.5417  2.0268
   14SAPS  C219 1807   4.798   5.094   8.192 -0.8323 -0.8276  0.0372
   14SAPS  H19R 1808   4.908   5.089   8.183 -0.6579  2.1428 -0.6743
   14SAPS  H19S 1809   4.759   4.999   8.235 -0.4197 -0.4080  1.3671
   14SAPS  C220 1810   4.762   5.206   8.289  0.0757 -0.2616  0.4914
   14SAPS  H20R 1811   4.661   5.192   8.333  0.7925 -1.7262  1.7398
   14SAPS  H20S 1812   4.759   5.301   8.231 -1.3833 -0.7525 -0.2858
   14SAPS  H20T 1813   4.838   5.214   8.369 -2.1305  3.0269  2.4953
   14SAPS   C33 1814   4.946   3.827   6.915  0.1295 -0.2109  0.6244
   14SAPS   H3X 1815   4.922   3.723   6.887 -2.0663  0.1092  1.1247
   14SAPS   H3Y 1816   4.856   3.887   6.891  0.5804 -0.1334 -1.0430
   14SAPS   C34 1817   4.976   3.840   7.064 -0.4964 -0.3749  0.4484
   14SAPS   H4X 1818   4.987   3.949   7.078 -0.9047 -0.0459 -1.4217
   14SAPS   H4Y 1819   5.078   3.799   7.079 -0.8237 -2.9242 -2.9986
   14SAPS   C35 1820   4.876   3.781   7.161  0.2930 -0.3581 -0.0539
   14SAPS   H5X 1821   4.891   3.671   7.149  1.8695 -0.2257  0.5192
   14SAPS   H5Y 1822   4.770   3.811   7.149  1.3178  3.4744 -0.7791
   14SAPS   C36 1823   4.914   3.808   7.310 -0.4369 -0.0436 -0.0807
   14SAPS   H6X 1824   4.913   3.918   7.327 -0.1914  0.5089 -3.1036
   14SAPS   H6Y 1825   5.017   3.775   7.332 -0.4510 -0.1788 -0.2143
   14SAPS   C37 1826   4.816   3.756   7.414  0.1867  1.2375  0.6197
   14SAPS   H7X 1827   4.716   3.777   7.370  0.5381 -1.9529 -2.0598
   14SAPS   H7Y 1828   4.836   3.817   7.504  0.5524  0.9021  0.7704
   14SAPS   C38 1829   4.826   3.611   7.447 -1.1343 -0.3220  0.2103
   14SAPS   H8X 1830   4.931   3.594   7.479 -1.5635 -2.1446  0.7733
   14SAPS   H8Y 1831   4.821   3.554   7.351 -0.9270  1.9719 -1.2486
   14SAPS   C39 1832   4.727   3.561   7.541 -0.4321  0.2145  0.1974
   14SAPS   H9X 1833   4.749   3.453   7.552 -0.1237  0.4069  1.7079
   14SAPS   H9Y 1834   4.622   3.572   7.505 -0.0789 -0.5629 -1.1540
   14SAPS  C310 1835   4.724   3.622   7.681 -0.1277 -0.3180  0.0387
   14SAPS  H10X 1836   4.639   3.580   7.739  1.9299 -2.5129  1.6812
   14SAPS  H10Y 1837   4.722   3.733   7.674 -2.2390 -0.2774  0.6089
   14SAPS  C311 1838   4.854   3.579   7.758 -0.0942 -0.3699  0.7816
   14SAPS  H11X 1839   4.937   3.605   7.688 -0.3689  0.6475  0.8196
   14SAPS  H11Y 1840   4.850   3.469   7.771 -0.9567 -0.3337  0.9069
   14SAPS  C312 1841   4.854   3.625   7.903  0.0097 -0.1532  0.4086
   14SAPS  H12X 1842   4.767   3.594   7.964 -0.4031  0.3732  0.0966
   14SAPS  H12Y 1843   4.849   3.736   7.900 -1.2407 -0.2051 -2.1430
   14SAPS  C313 1844   4.969   3.578   7.987  0.3800  0.4611  0.1113
   14SAPS  H13X 1845   5.063   3.602   7.932 -0.3030 -2.3063 -2.4617
   14SAPS  H13Y 1846   4.957   3.469   7.999 -1.3270  0.6956  0.8337
   14SAPS  C314 1847   4.960   3.630   8.128 -0.0423 -0.3625 -0.3228
   14SAPS  H14X 1848   4.866   3.592   8.173  0.9304  1.4829  3.6424
   14SAPS  H14Y 1849   4.950   3.741   8.123 -0.9182 -0.4536 -0.9243
   14SAPS  C315 1850   5.066   3.574   8.222  0.1715  0.2924 -0.1291
   14SAPS  H15X 1851   5.122   3.487   8.181 -2.8274 -1.7742 -0.1029
   14SAPS  H15Y 1852   5.020   3.553   8.320 -0.6007  2.3567 -0.0012
   14SAPS  C316 1853   5.173   3.684   8.232 -0.2336  0.2036 -0.4448
   14SAPS  H16X 1854   5.121   3.779   8.259 -0.9565 -0.8287  2.0711
   14SAPS  H16Y 1855   5.202   3.701   8.126  0.1628  1.2836 -0.1742
   14SAPS  C317 1856   5.298   3.678   8.325 -0.0474  0.1287 -0.0194
   14SAPS  H17X 1857   5.341   3.580   8.296 -2.2103 -1.2481  1.1537
   14SAPS  H17Y 1858   5.266   3.669   8.431 -0.6167 -1.3075 -0.2942
   14SAPS  C318 1859   5.396   3.794   8.302 -0.2062 -0.2871  0.9567
   14SAPS  H18X 1860   5.486   3.771   8.364  1.0844  0.3960 -0.5915
   14SAPS  H18Y 1861   5.353   3.889   8.338 -0.0327 -0.6296  2.1023
   14SAPS  H18Z 1862   5.432   3.801   8.197  0.3543 -1.1917  1.0732
   15SAPS     N 1863   4.455   1.497   5.987 -0.4567  0.0689 -0.0155
   15SAPS   HN1 1864   4.385   1.570   5.963 -0.4884 -0.0544 -0.2976
   15SAPS   HN2 1865   4.435   1.459   6.082 -0.2283  1.2621  0.5194
   15SAPS   HN3 1866   4.540   1.556   5.990 -0.7336  0.5243 -0.8864
   15SAPS   C12 1867   4.470   1.392   5.885  0.0370  0.0715 -0.3634
   15SAPS  H12A 1868   4.411   1.308   5.920  2.2746 -1.0323  0.9921
   15SAPS   C13 1869   4.411   1.430   5.748 -0.5354 -0.3113 -0.0254
   15SAPS  O13A 1870   4.353   1.539   5.730 -0.4354  0.4278  0.2269
   15SAPS  O13B 1871   4.405   1.341   5.662  0.2847  0.0352  0.1132
   15SAPS   C11 1872   4.616   1.337   5.870  0.8445 -0.6534 -0.1402
   15SAPS  H11A 1873   4.671   1.403   5.800  1.4457 -2.6604 -1.6710
   15SAPS  H11B 1874   4.585   1.241   5.822 -0.9779 -0.6004  0.8179
   15SAPS     P 1875   4.816   1.243   5.988 -0.6382 -0.1784 -0.0182
   15SAPS   O13 1876   4.773   1.109   5.956  0.5138  0.6880 -0.2453
   15SAPS   O14 1877   4.918   1.298   5.894  0.3966 -0.2999  0.0658
   15SAPS   O12 1878   4.692   1.330   5.991  0.0705 -0.1560  0.2466
   15SAPS   O11 1879   4.857   1.254   6.137  0.2580 -0.0159 -0.2892
   15SAPS    C1 1880   4.886   1.379   6.196 -0.5186  0.5069 -0.8082
   15SAPS    HA 1881   4.953   1.432   6.126  1.5092 -0.1519  0.5228
   15SAPS    HB 1882   4.793   1.439   6.207  0.1529  1.5614 -0.7266
   15SAPS    C2 1883   4.958   1.365   6.339  0.8863  0.5019  0.1081
   15SAPS    HS 1884   5.038   1.289   6.329 -1.0635 -1.8860  1.4591
   15SAPS   O21 1885   4.848   1.333   6.431  0.0491  0.5345  0.1938
   15SAPS   C21 1886   4.889   1.248   6.523 -0.4886 -0.2028 -0.0591
   15SAPS   O22 1887   4.997   1.187   6.519  0.6727 -0.6115 -0.3378
   15SAPS   C22 1888   4.771   1.220   6.612  0.6125 -0.2387  0.5734
   15SAPS   H2R 1889   4.703   1.308   6.605  0.9582 -0.0977 -1.6456
   15SAPS   H2S 1890   4.717   1.131   6.575 -1.1148  0.6315  0.9307
   15SAPS    C3 1891   5.021   1.510   6.375 -0.6489  0.0948 -0.0442
   15SAPS    HX 1892   4.933   1.576   6.390  0.1239  1.0244  0.5730
   15SAPS    HY 1893   5.066   1.557   6.285  2.7425 -2.0408  0.3680
   15SAPS   O31 1894   5.114   1.507   6.489 -0.0407 -0.6883  0.0162
   15SAPS   C31 1895   5.058   1.555   6.600  0.0154 -0.6490  0.2965
   15SAPS   O32 1896   4.944   1.591   6.606  0.1639  0.2745 -0.3045
   15SAPS   C32 1897   5.165   1.558   6.710 -0.3996 -0.4871 -0.2654
   15SAPS   H2X 1898   5.257   1.599   6.663  1.4441 -2.7695  1.0943
   15SAPS   H2Y 1899   5.195   1.455   6.738  0.3219 -0.2507 -0.1470
   15SAPS   C23 1900   4.793   1.214   6.767 -0.0815 -0.1075 -0.8265
   15SAPS   H3R 1901   4.868   1.132   6.779  1.2684  0.3104 -4.9179
   15SAPS   H3S 1902   4.699   1.182   6.819  0.5728 -3.0123 -1.2431
   15SAPS   C24 1903   4.857   1.344   6.833  0.3789  0.3788  0.5213
   15SAPS   H4R 1904   4.944   1.384   6.777 -0.0829  1.1567  0.3371
   15SAPS   H4S 1905   4.902   1.303   6.926  0.3733 -0.4053  0.1906
   15SAPS   C25 1906   4.765   1.461   6.851  0.2835 -0.0513 -0.8427
   15SAPS   H5R 1907   4.741   1.522   6.763 -1.3388 -2.3706 -2.1472
   15SAPS   C26 1908   4.693   1.497   6.962 -0.4118 -0.0174  0.0834
   15SAPS   H6R 1909   4.610   1.566   6.940  0.5881  1.8137  1.7577
   15SAPS   C27 1910   4.705   1.434   7.102  0.0133  0.5920 -0.4520
   15SAPS   H7R 1911   4.699   1.323   7.093 -1.5850  0.4748  1.4251
   15SAPS   H7S 1912   4.617   1.445   7.169 -0.2268  0.9734 -0.8287
   15SAPS   C28 1913   4.824   1.477   7.183 -0.0946 -0.3362 -1.0362
   15SAPS   H8R 1914   4.897   1.527   7.119 -0.4911  0.2823 -1.0106
   15SAPS   C29 1915   4.845   1.442   7.312  0.4241 -0.8427 -0.2019
   15SAPS   H9R 1916   4.936   1.469   7.367 -0.2304 -0.8565  0.9027
   15SAPS  C210 1917   4.755   1.359   7.395  0.2898 -0.0653  0.4399
   15SAPS  H10R 1918   4.650   1.376   7.363  0.1391 -1.0023  0.4012
   15SAPS  H10S 1919   4.752   1.393   7.500 -2.0470  0.5374  0.2355
   15SAPS  C211 1920   4.789   1.212   7.391  0.1049 -0.0384  0.7417
   15SAPS  H11R 1921   4.815   1.180   7.289  0.2914  1.1513  0.4041
   15SAPS  C212 1922   4.835   1.143   7.493  0.5118  1.2205 -0.4800
   15SAPS  H12R 1923   4.850   1.037   7.467  0.8315  1.2830 -0.5571
   15SAPS  C213 1924   4.845   1.182   7.638 -0.2686 -0.3183 -0.6054
   15SAPS  H13R 1925   4.755   1.139   7.688 -0.9123 -1.1879 -2.3957
   15SAPS  H13S 1926   4.840   1.292   7.644 -1.5447 -0.4216  1.2970
   15SAPS  C214 1927   4.981   1.139   7.700 -0.1295  0.0044 -0.0328
   15SAPS  H14R 1928   5.074   1.151   7.642  0.6560  0.4204  1.2774
   15SAPS  C215 1929   4.995   1.070   7.813  0.3985  0.4191  0.2141
   15SAPS  H15R 1930   5.098   1.043   7.843  0.4962 -0.5681 -0.9365
   15SAPS  C216 1931   4.891   1.036   7.910  0.0023 -0.2016 -0.2122
   15SAPS  H16R 1932   4.913   0.928   7.924  2.1882  0.0684 -1.2059
   15SAPS  H16S 1933   4.789   1.051   7.868 -0.1304 -2.6496 -0.9129
   15SAPS  C217 1934   4.919   1.122   8.034 -0.6334  0.0362 -0.1800
   15SAPS  H17R 1935   4.898   1.224   7.997 -1.6679 -0.7815 -1.9835
   15SAPS  H17S 1936   5.026   1.118   8.065 -0.8630 -0.8169  0.5642
   15SAPS  C218 1937   4.851   1.080   8.166  0.0811  0.1513  0.3463
   15SAPS  H18R 1938   4.848   1.159   8.244  1.5505  1.7487 -1.1257
   15SAPS  H18S 1939   4.907   0.999   8.218 -0.3173 -0.2761  0.1220
   15SAPS  C219 1940   4.700   1.041   8.152  0.0641  0.1367  0.5318
   15SAPS  H19R 1941   4.703   0.952   8.085  0.4175  1.0538 -0.7186
   15SAPS  H19S 1942   4.655   1.122   8.090  3.0373  1.5447 -0.0005
   15SAPS  C220 1943   4.616   1.031   8.280  0.0798  0.2933 -0.9482
   15SAPS  H20R 1944   4.510   1.013   8.249  0.4295 -1.7375 -1.1401
   15SAPS  H20S 1945   4.629   1.123   8.340 -0.2066 -0.5788  0.4868
   15SAPS  H20T 1946   4.649   0.947   8.345 -0.5449  0.4415 -0.4281
   15SAPS   C33 1947   5.131   1.643   6.835  0.9208  0.5697 -0.1571
   15SAPS   H3X 1948   5.073   1.590   6.913 -0.8048  1.4692 -0.7820
   15SAPS   H3Y 1949   5.072   1.730   6.798  2.6344  1.6993 -0.3213
   15SAPS   C34 1950   5.263   1.695   6.904  0.2399  0.7900 -0.5252
   15SAPS   H4X 1951   5.230   1.782   6.965 -0.7726 -0.2839  0.5178
   15SAPS   H4Y 1952   5.335   1.735   6.829  1.6479 -1.1865 -0.2960
   15SAPS   C35 1953   5.333   1.589   6.985  0.2511 -0.2520  0.4329
   15SAPS   H5X 1954   5.346   1.503   6.916 -0.1571  1.8833 -2.5136
   15SAPS   H5Y 1955   5.273   1.561   7.074  0.1336  0.5359  0.6119
   15SAPS   C36 1956   5.471   1.637   7.035  0.0194 -0.0507  0.1513
   15SAPS   H6X 1957   5.462   1.735   7.086  0.6283  0.4432 -0.6519
   15SAPS   H6Y 1958   5.541   1.638   6.948  1.7053  1.3825  1.4509
   15SAPS   C37 1959   5.510   1.536   7.143  0.0356 -0.0183  0.2519
   15SAPS   H7X 1960   5.486   1.438   7.098 -3.2821  0.9099 -0.3377
   15SAPS   H7Y 1961   5.435   1.550   7.224  0.5630 -1.4047  1.0064
   15SAPS   C38 1962   5.646   1.563   7.204 -0.3402 -0.2422 -0.1232
   15SAPS   H8X 1963   5.662   1.671   7.226 -0.1746  0.3341 -2.7146
   15SAPS   H8Y 1964   5.722   1.532   7.130  2.0902  2.1557  1.2120
   15SAPS   C39 1965   5.664   1.488   7.334 -0.0284 -0.3519 -0.3672
   15SAPS   H9X 1966   5.662   1.382   7.303  1.4456  0.2757 -2.9574
   15SAPS   H9Y 1967   5.584   1.502   7.410  1.4544 -0.0350  1.1978
   15SAPS  C310 1968   5.792   1.535   7.395  0.3623 -0.5333  0.3555
   15SAPS  H10X 1969   5.768   1.625   7.455  0.9997 -0.2505  0.1906
   15SAPS  H10Y 1970   5.868   1.555   7.316 -1.1390 -2.2137 -1.6289
   15SAPS  C311 1971   5.868   1.429   7.488  0.2450  0.1731  0.1825
   15SAPS  H11X 1972   5.977   1.448   7.489  0.4995 -0.2715  5.0330
   15SAPS  H11Y 1973   5.840   1.328   7.452  0.3757  0.9271 -2.2417
   15SAPS  C312 1974   5.831   1.428   7.638 -0.2298 -0.2128  0.4792
   15SAPS  H12X 1975   5.720   1.423   7.648 -0.2163 -0.6934  0.4066
   15SAPS  H12Y 1976   5.862   1.525   7.681  0.8544 -0.4092  0.1729
   15SAPS  C313 1977   5.896   1.321   7.715 -0.4087 -0.2140 -0.6960
   15SAPS  H13X 1978   6.007   1.331   7.716 -0.3704 -0.4723  1.2114
   15SAPS  H13Y 1979   5.866   1.221   7.678 -0.9745 -0.4157  0.2651
   15SAPS  C314 1980   5.849   1.320   7.861 -0.3219  0.8954  0.0442
   15SAPS  H14X 1981   5.740   1.297   7.856  0.0821 -0.8857 -1.8765
   15SAPS  H14Y 1982   5.863   1.418   7.912  1.1860  1.5343 -1.5120
   15SAPS  C315 1983   5.923   1.208   7.935  0.4493 -0.1676 -0.0389
   15SAPS  H15X 1984   5.931   1.114   7.876 -0.9193 -1.2702  1.4265
   15SAPS  H15Y 1985   5.860   1.190   8.025 -1.0313 -1.2720 -1.2307
   15SAPS  C316 1986   6.063   1.240   7.991 -0.8484  0.3212  0.3203
   15SAPS  H16X 1987   6.053   1.334   8.049 -0.4859  0.0548  0.8206
   15SAPS  H16Y 1988   6.131   1.264   7.906 -1.0741  2.7566  0.7621
   15SAPS  C317 1989   6.126   1.137   8.087 -0.3031  0.3464  0.2581
   15SAPS  H17X 1990   6.229   1.169   8.116 -0.3560 -1.1992  2.3675
   15SAPS  H17Y 1991   6.131   1.044   8.028  0.6627  0.3524  0.3016
   15SAPS  C318 1992   6.054   1.118   8.225  0.6489  0.1244  0.0469
   15SAPS  H18X 1993   6.116   1.057   8.294  1.3195  0.5760 -0.1373
   15SAPS  H18Y 1994   5.959   1.061   8.216  0.8667 -0.1468 -0.6427
   15SAPS  H18Z 1995   6.037   1.213   8.280 -0.3173 -1.5556  2.8294
   16SAPS     N 1996   0.720   5.252   6.064  0.4332 -0.2167 -0.6106
   16SAPS   HN1 1997   0.658   5.238   6.146  2.1615 -1.5208  0.5430
   16SAPS   HN2 1998   0.686   5.332   6.006  1.0326  0.2390 -0.3448
   16SAPS   HN3 1999   0.734   5.163   6.013  1.9649 -0.3081 -0.0712
   16SAPS   C12 2000   0.856   5.287   6.116 -0.1146 -0.5968  0.0208
   16SAPS  H12A 2001   0.897   5.201   6.167  2.6585  1.8827  2.3487
   16SAPS   C13 2002   0.950   5.332   6.001  0.9980  0.1871 -0.0623
   16SAPS  O13A 2003   0.904   5.349   5.886 -0.6123 -0.0396  0.2457
   16SAPS  O13B 2004   1.063   5.375   6.031 -0.5735 -0.6592  0.0014
   16SAPS   C11 2005   0.849   5.401   6.224 -0.4608 -0.1835 -0.1826
   16SAPS  H11A 2006   0.797   5.483   6.171 -1.4724 -0.5051  0.2845
   16SAPS  H11B 2007   0.951   5.437   6.248  0.3119 -0.6041 -2.5540
   16SAPS     P 2008   0.831   5.290   6.471 -0.0842  0.2151  0.3567
   16SAPS   O13 2009   0.821   5.148   6.454 -0.1356  0.1154  0.2284
   16SAPS   O14 2010   0.968   5.339   6.487 -0.5917 -0.0227  0.0518
   16SAPS   O12 2011   0.766   5.363   6.342  0.1662 -0.3291 -0.1977
   16SAPS   O11 2012   0.731   5.339   6.589 -0.5958 -0.4033 -0.5478
   16SAPS    C1 2013   0.724   5.468   6.639 -0.2026 -0.9453 -1.0720
   16SAPS    HA 2014   0.815   5.529   6.622  0.4371 -1.7951 -0.7902
   16SAPS    HB 2015   0.643   5.526   6.591 -1.5716 -1.1612  0.8618
   16SAPS    C2 2016   0.692   5.480   6.797 -0.1527  0.3464  0.3192
   16SAPS    HS 2017   0.686   5.583   6.838 -0.4088 -0.0955  1.4175
   16SAPS   O21 2018   0.782   5.406   6.874 -0.3995  0.4500  0.1486
   16SAPS   C21 2019   0.912   5.423   6.857 -0.7632  0.0866 -0.2773
   16SAPS   O22 2020   0.958   5.522   6.803  0.6303 -0.2390 -0.5330
   16SAPS   C22 2021   0.988   5.306   6.914 -0.0359  0.5723  0.6101
   16SAPS   H2R 2022   1.086   5.342   6.954  0.6268 -1.5220  1.0119
   16SAPS   H2S 2023   0.927   5.260   6.994 -0.0222  0.2212  0.4235
   16SAPS    C3 2024   0.551   5.425   6.826  0.0373 -0.0617 -0.4414
   16SAPS    HX 2025   0.559   5.320   6.791 -1.1617 -0.3133 -0.0211
   16SAPS    HY 2026   0.475   5.482   6.768  0.4039 -0.4916 -1.3635
   16SAPS   O31 2027   0.521   5.442   6.969 -0.4197  0.5880 -0.6286
   16SAPS   C31 2028   0.432   5.346   7.018  0.1159 -0.8342  0.2847
   16SAPS   O32 2029   0.377   5.262   6.945 -0.6007 -0.0121 -0.6715
   16SAPS   C32 2030   0.412   5.356   7.168 -0.2587  0.6155 -0.4874
   16SAPS   H2X 2031   0.322   5.421   7.174 -1.8314 -1.2963 -2.0702
   16SAPS   H2Y 2032   0.499   5.409   7.213  0.0443  0.4285 -0.8412
   16SAPS   C23 2033   1.021   5.197   6.805 -0.3477 -0.5984  0.0162
   16SAPS   H3R 2034   1.068   5.263   6.728 -1.0261  0.7279  0.6972
   16SAPS   H3S 2035   0.929   5.153   6.763 -1.7307  1.5908  0.5663
   16SAPS   C24 2036   1.130   5.096   6.854 -0.2689 -0.5529 -0.2200
   16SAPS   H4R 2037   1.224   5.148   6.884 -1.5954  2.0905 -0.4170
   16SAPS   H4S 2038   1.161   5.040   6.763 -0.3973 -0.3740 -0.3743
   16SAPS   C25 2039   1.079   4.999   6.958 -0.3236  0.0959  0.3237
   16SAPS   H5R 2040   0.995   4.940   6.919  1.3652 -2.7491  0.7468
   16SAPS   C26 2041   1.124   4.985   7.088 -0.0861  0.4503 -0.2200
   16SAPS   H6R 2042   1.067   4.915   7.149  1.4423 -1.3376 -0.7340
   16SAPS   C27 2043   1.240   5.059   7.158 -0.2341 -0.9995  0.2313
   16SAPS   H7R 2044   1.284   5.120   7.077 -1.1856 -0.9971 -0.2935
   16SAPS   H7S 2045   1.322   4.990   7.188 -0.1782 -0.0286  2.5932
   16SAPS   C28 2046   1.189   5.158   7.265 -0.2787 -0.1877  0.3115
   16SAPS   H8R 2047   1.164   5.255   7.218  0.5980 -0.4682 -0.7632
   16SAPS   C29 2048   1.185   5.149   7.399 -0.0865  0.3977  0.2597
   16SAPS   H9R 2049   1.116   5.223   7.443 -2.0159 -1.1579  0.0150
   16SAPS  C210 2050   1.226   5.031   7.475 -0.1851 -0.0740  0.0915
   16SAPS  H10R 2051   1.336   5.037   7.490 -0.2217 -0.4937  0.5471
   16SAPS  H10S 2052   1.192   4.944   7.415 -1.8880 -0.2658  1.2864
   16SAPS  C211 2053   1.167   5.033   7.617  0.4658  0.0003 -0.1307
   16SAPS  H11R 2054   1.110   5.116   7.661  0.5772 -0.0709  0.1474
   16SAPS  C212 2055   1.167   4.931   7.703 -0.3697 -0.4679 -0.2191
   16SAPS  H12R 2056   1.125   4.940   7.804 -0.0637  0.2664 -0.1495
   16SAPS  C213 2057   1.238   4.800   7.682  0.4383  0.1782  0.0245
   16SAPS  H13R 2058   1.277   4.801   7.578 -1.2635  2.0093 -0.6763
   16SAPS  H13S 2059   1.166   4.715   7.683  0.8392 -0.1658  0.7109
   16SAPS  C214 2060   1.340   4.787   7.788 -0.2319 -0.1490 -0.4646
   16SAPS  H14R 2061   1.432   4.846   7.777  0.1180 -0.0947  2.0624
   16SAPS  C215 2062   1.327   4.706   7.892 -0.1295  0.4025 -0.1031
   16SAPS  H15R 2063   1.417   4.695   7.954  2.1533 -0.8059 -3.3157
   16SAPS  C216 2064   1.215   4.615   7.927 -0.5100  0.3198 -0.0637
   16SAPS  H16R 2065   1.237   4.516   7.883 -0.0336 -0.6174  2.1273
   16SAPS  H16S 2066   1.114   4.641   7.890 -0.7663 -1.2308 -0.5217
   16SAPS  C217 2067   1.202   4.605   8.078 -0.1557 -0.6463  0.6477
   16SAPS  H17R 2068   1.109   4.549   8.103 -0.7148 -0.8109 -1.5404
   16SAPS  H17S 2069   1.193   4.707   8.120  4.2218  2.0358 -3.7833
   16SAPS  C218 2070   1.319   4.550   8.150 -0.0983  0.1294 -0.7005
   16SAPS  H18R 2071   1.397   4.629   8.161 -1.1530  1.1593 -0.3366
   16SAPS  H18S 2072   1.358   4.467   8.088 -0.6164  0.3665 -1.3581
   16SAPS  C219 2073   1.296   4.489   8.294  0.4611 -0.3212 -0.6839
   16SAPS  H19R 2074   1.396   4.452   8.324 -0.5759 -2.5731  0.2076
   16SAPS  H19S 2075   1.228   4.402   8.280  1.3612 -1.0161 -0.8970
   16SAPS  C220 2076   1.253   4.583   8.397  0.9570 -0.5445  0.0370
   16SAPS  H20R 2077   1.147   4.615   8.388  0.9534 -1.0566 -2.3674
   16SAPS  H20S 2078   1.312   4.677   8.394  1.2176 -0.7319 -1.2313
   16SAPS  H20T 2079   1.262   4.536   8.497  0.6328 -0.0491  0.3070
   16SAPS   C33 2080   0.396   5.215   7.232 -0.3653 -0.0487  0.3886
   16SAPS   H3X 2081   0.500   5.190   7.259 -0.3699  0.9703  1.4765
   16SAPS   H3Y 2082   0.334   5.148   7.169 -0.1930 -0.1555  0.3347
   16SAPS   C34 2083   0.322   5.237   7.362  0.1714 -0.1211  0.4791
   16SAPS   H4X 2084   0.224   5.289   7.357 -0.7812 -1.8351  0.6438
   16SAPS   H4Y 2085   0.389   5.303   7.422  1.9720 -1.3564 -0.0951
   16SAPS   C35 2086   0.304   5.109   7.440  0.5875  0.6649  0.2673
   16SAPS   H5X 2087   0.394   5.048   7.462 -0.1145 -1.1895 -1.6536
   16SAPS   H5Y 2088   0.223   5.055   7.386 -1.6887  2.1447  2.0251
   16SAPS   C36 2089   0.258   5.153   7.576  0.4113 -0.2255  0.2699
   16SAPS   H6X 2090   0.156   5.191   7.555  0.8394  0.9068  0.2023
   16SAPS   H6Y 2091   0.324   5.234   7.612  2.1302 -0.4062 -2.2040
   16SAPS   C37 2092   0.240   5.039   7.682  0.1942 -0.0131  0.2570
   16SAPS   H7X 2093   0.244   4.938   7.637 -0.7497 -0.3013  0.8048
   16SAPS   H7Y 2094   0.138   5.067   7.716  0.1898  0.4104 -0.0963
   16SAPS   C38 2095   0.348   5.043   7.795 -0.1950 -0.3238  0.7652
   16SAPS   H8X 2096   0.324   5.123   7.869 -2.4654 -0.5416  0.3179
   16SAPS   H8Y 2097   0.452   5.055   7.757 -0.1046  0.2227  1.1704
   16SAPS   C39 2098   0.356   4.905   7.868 -0.2845  1.2411 -0.0498
   16SAPS   H9X 2099   0.416   4.841   7.800  2.1065  1.6809  1.5179
   16SAPS   H9Y 2100   0.253   4.865   7.882 -0.4316  1.7890  0.4822
   16SAPS  C310 2101   0.412   4.923   8.010 -1.0891  0.1430 -0.2588
   16SAPS  H10X 2102   0.341   4.986   8.068 -0.9774  0.3142 -0.3089
   16SAPS  H10Y 2103   0.508   4.977   8.000 -0.0051 -1.8566 -1.1440
   16SAPS  C311 2104   0.446   4.789   8.080  0.0111  0.0811 -0.0874
   16SAPS  H11X 2105   0.532   4.739   8.031  1.2000 -0.4078  2.3458
   16SAPS  H11Y 2106   0.356   4.723   8.081 -0.4052  0.5468 -2.1803
   16SAPS  C312 2107   0.489   4.804   8.226 -0.2925 -0.1069 -1.0722
   16SAPS  H12X 2108   0.414   4.844   8.298  1.4364 -0.0106  0.7777
   16SAPS  H12Y 2109   0.569   4.881   8.227 -1.3119  0.9745 -1.2415
   16SAPS  C313 2110   0.561   4.677   8.283  0.7036 -0.4008  0.2028
   16SAPS  H13X 2111   0.615   4.624   8.201  1.0380 -0.2574  0.3300
   16SAPS  H13Y 2112   0.486   4.605   8.322 -0.4694 -0.6738 -2.3566
   16SAPS  C314 2113   0.661   4.705   8.390  0.2398  0.1126  0.0604
   16SAPS  H14X 2114   0.618   4.772   8.468 -2.7952 -0.0746 -1.3431
   16SAPS  H14Y 2115   0.755   4.746   8.346  1.5194 -2.2376  0.4570
   16SAPS  C315 2116   0.703   4.565   8.454  0.8513  0.8831  0.3063
   16SAPS  H15X 2117   0.726   4.505   8.363 -2.5743  1.2757 -0.9792
   16SAPS  H15Y 2118   0.608   4.530   8.498  2.3620  0.0094  3.1206
   16SAPS  C316 2119   0.811   4.564   8.556 -1.2389  0.5457 -0.1186
   16SAPS  H16X 2120   0.775   4.584   8.659 -0.7059  1.6611 -0.1295
   16SAPS  H16Y 2121   0.890   4.638   8.529  0.3157  0.0438  2.6125
   16SAPS  C317 2122   0.882   4.425   8.556  0.3991 -0.1079  0.3590
   16SAPS  H17X 2123   0.985   4.440   8.593  1.2352 -1.5433 -1.2848
   16SAPS  H17Y 2124   0.904   4.398   8.451  2.6996  1.7303  0.2886
   16SAPS  C318 2125   0.820   4.320   8.642  0.0593  0.3315 -0.5943
   16SAPS  H18X 2126   0.719   4.300   8.602 -0.6384  1.7706  0.3798
   16SAPS  H18Y 2127   0.796   4.367   8.740  1.0767  2.0120 -1.1145
   16SAPS  H18Z 2128   0.880   4.227   8.655  3.0386  2.4136  2.4096
   17SAPC     N 2129   1.597   1.885  10.768  0.4521 -0.8607 -0.2944
   17SAPC   C12 2130   1.658   1.840  10.643 -0.7675 -0.1171  0.4433
   17SAPC  H12A 2131   1.720   1.753  10.661  0.9035  0.7164 -0.9337
   17SAPC  H12B 2132   1.728   1.919  10.618  1.2338 -1.4192  1.6836
   17SAPC   C13 2133   1.499   1.777  10.826 -0.1586 -1.1427 -0.6552
   17SAPC  H13A 2134   1.558   1.689  10.849  0.0042 -0.6756  0.8146
   17SAPC  H13B 2135   1.441   1.821  10.906  1.3425  1.6657 -0.9681
   17SAPC  H13C 2136   1.429   1.750  10.749  0.6642 -3.0834 -0.7716
   17SAPC   C14 2137   1.703   1.911  10.868 -0.0567 -0.6171  0.1273
   17SAPC  H14A 2138   1.748   1.819  10.903 -0.2315 -0.2887  1.2610
   17SAPC  H14B 2139   1.774   1.977  10.821  0.4374 -0.2873  1.2946
   17SAPC  H14C 2140   1.667   1.957  10.959 -1.9776 -1.7937  0.0097
   17SAPC   C15 2141   1.523   2.014  10.746  0.1482 -0.0598 -0.0934
   17SAPC  H15A 2142   1.586   2.078  10.685 -2.3662  0.2420 -2.5997
   17SAPC  H15B 2143   1.440   2.001  10.678 -0.0616  0.1101  0.1291
   17SAPC  H15C 2144   1.478   2.061  10.832 -1.0866  1.1385 -1.3270
   17SAPC   C11 2145   1.568   1.805  10.518 -0.3830 -0.0819  0.1029
   17SAPC  H11A 2146   1.496   1.721  10.531 -0.9043  0.2199 -0.7441
   17SAPC  H11B 2147   1.639   1.764  10.443 -0.4742 -1.3298  0.6771
   17SAPC     P 2148   1.489   1.944  10.306  0.0218 -0.6661 -0.5675
   17SAPC   O13 2149   1.410   1.828  10.246 -0.7847  0.0772 -0.9342
   17SAPC   O14 2150   1.436   2.082  10.274  0.1602 -0.4032  0.0707
   17SAPC   O12 2151   1.516   1.928  10.460 -0.3014 -0.2747  0.8470
   17SAPC   O11 2152   1.633   1.942  10.248 -0.3545  0.3430  0.1681
   17SAPC    C1 2153   1.739   2.022  10.306 -0.8814  0.4499 -0.3202
   17SAPC    HA 2154   1.737   2.031  10.417 -1.1949 -1.0872 -0.1686
   17SAPC    HB 2155   1.834   1.972  10.278 -0.2606  1.9946 -1.0751
   17SAPC    C2 2156   1.743   2.169  10.254  0.3633  0.9180 -0.1540
   17SAPC    HS 2157   1.653   2.221  10.294 -1.0035  0.8201 -2.9103
   17SAPC   O21 2158   1.737   2.168  10.105 -0.2889  0.2047 -0.5772
   17SAPC   C21 2159   1.705   2.288  10.055  0.2360 -0.0549  0.1650
   17SAPC   O22 2160   1.653   2.378  10.113  0.5574 -0.2578 -1.0997
   17SAPC   C22 2161   1.737   2.296   9.913 -0.1643 -0.5730  0.1285
   17SAPC   H2R 2162   1.848   2.300   9.903 -0.2501  0.2646 -0.6577
   17SAPC   H2S 2163   1.691   2.207   9.864 -1.2808  1.2266 -2.2557
   17SAPC    C3 2164   1.866   2.235  10.316  0.9073  0.0115 -0.6684
   17SAPC    HX 2165   1.865   2.242  10.426  3.5585 -2.3920 -0.3577
   17SAPC    HY 2166   1.862   2.340  10.282  0.7822  0.1908 -0.0998
   17SAPC   O31 2167   1.984   2.153  10.283 -0.4289 -1.1062 -0.0128
   17SAPC   C31 2168   2.044   2.202  10.178 -0.3556 -0.2074  0.4221
   17SAPC   O32 2169   2.009   2.305  10.125  0.1479 -0.2849  0.6313
   17SAPC   C32 2170   2.157   2.108  10.144  0.1086 -0.6228 -0.3951
   17SAPC   H2X 2171   2.124   2.002  10.148  0.6899 -0.7777  0.6605
   17SAPC   H2Y 2172   2.245   2.140  10.205  0.3548  2.1280 -2.0196
   17SAPC   C23 2173   1.700   2.437   9.853  0.4876  0.7996  0.6982
   17SAPC   H3R 2174   1.745   2.518   9.914 -0.0581 -0.3346  2.6959
   17SAPC   H3S 2175   1.589   2.435   9.853  0.4144  0.7881 -2.0641
   17SAPC   C24 2176   1.745   2.445   9.705 -0.0205 -0.7674  0.2506
   17SAPC   H4R 2177   1.856   2.435   9.697  0.0188 -0.9390  0.9585
   17SAPC   H4S 2178   1.718   2.543   9.660  3.6828 -0.4661 -1.7276
   17SAPC   C25 2179   1.689   2.340   9.626  0.0026  0.3465  0.4714
   17SAPC   H5R 2180   1.674   2.246   9.682 -0.0640  0.0252 -0.0781
   17SAPC   C26 2181   1.651   2.344   9.497  0.4627  0.4203  0.2810
   17SAPC   H6R 2182   1.617   2.248   9.455  0.7952  0.6420 -0.5086
   17SAPC   C27 2183   1.660   2.469   9.412 -0.2164 -0.2454  0.2343
   17SAPC   H7R 2184   1.660   2.568   9.463  0.3225 -0.2714  0.2956
   17SAPC   H7S 2185   1.569   2.463   9.350  0.0887  0.1617 -0.2613
   17SAPC   C28 2186   1.772   2.464   9.309  0.3480  0.0526 -0.9302
   17SAPC   H8R 2187   1.872   2.490   9.347 -0.2640  0.8459  0.1807
   17SAPC   C29 2188   1.775   2.412   9.184  0.0347 -0.4132 -0.1778
   17SAPC   H9R 2189   1.869   2.416   9.126  1.8516  0.3131  2.6228
   17SAPC  C210 2190   1.664   2.352   9.100 -0.3859 -0.5940 -0.7478
   17SAPC  H10R 2191   1.576   2.370   9.166 -0.3918 -0.4267 -0.8006
   17SAPC  H10S 2192   1.685   2.244   9.088  0.0042 -0.4782 -1.1175
   17SAPC  C211 2193   1.635   2.416   8.970  0.0007  0.2220 -0.2150
   17SAPC  H11R 2194   1.571   2.505   8.976 -0.9125 -0.3858 -0.5612
   17SAPC  C212 2195   1.662   2.360   8.851 -0.0808 -1.1259 -0.1620
   17SAPC  H12R 2196   1.650   2.420   8.759  0.0197 -0.5559  0.1937
   17SAPC  C213 2197   1.738   2.233   8.842  0.4674 -0.0433  1.3160
   17SAPC  H13R 2198   1.681   2.162   8.906 -2.6596  0.0608 -1.1282
   17SAPC  H13S 2199   1.839   2.245   8.887  0.5729  1.6985  0.6855
   17SAPC  C214 2200   1.757   2.171   8.706  0.2164 -0.1307 -0.4500
   17SAPC  H14R 2201   1.829   2.227   8.643 -1.8361  0.2750 -2.5947
   17SAPC  C215 2202   1.687   2.081   8.638 -0.1361  0.0870 -0.0639
   17SAPC  H15R 2203   1.723   2.043   8.542  0.8724  1.4164 -0.2472
   17SAPC  C216 2204   1.572   2.002   8.699  1.0390  0.1573 -0.1488
   17SAPC  H16R 2205   1.471   2.030   8.664  1.3561  0.2737 -0.9838
   17SAPC  H16S 2206   1.567   2.028   8.807 -0.7116  4.1314 -1.0036
   17SAPC  C217 2207   1.568   1.846   8.683  0.9198 -0.0216  0.7923
   17SAPC  H17R 2208   1.473   1.803   8.721  1.2780 -0.1267  1.5840
   17SAPC  H17S 2209   1.658   1.810   8.736  0.4288  1.7852  3.0112
   17SAPC  C218 2210   1.578   1.796   8.535 -0.5235 -0.4799  0.8461
   17SAPC  H18R 2211   1.680   1.816   8.497 -0.3712 -0.0190  1.4829
   17SAPC  H18S 2212   1.516   1.860   8.467  0.6507 -1.3134 -1.0898
   17SAPC  C219 2213   1.542   1.649   8.517 -0.3458 -0.2327  0.4046
   17SAPC  H19R 2214   1.549   1.636   8.407  0.9277 -0.5268  0.5081
   17SAPC  H19S 2215   1.442   1.628   8.562 -0.9623  0.9076 -0.3862
   17SAPC  C220 2216   1.640   1.551   8.582 -0.4642 -0.2680  0.1109
   17SAPC  H20R 2217   1.745   1.585   8.567 -0.7639  1.7339  1.9102
   17SAPC  H20S 2218   1.623   1.448   8.545 -0.7971 -0.2928  0.3310
   17SAPC  H20T 2219   1.630   1.536   8.692 -2.2407  2.3574  0.4092
   17SAPC   C33 2220   2.219   2.120  10.002  0.4655  0.2193 -0.1069
   17SAPC   H3X 2221   2.258   2.220   9.974  0.9021 -0.3015 -1.4489
   17SAPC   H3Y 2222   2.138   2.105   9.928 -0.6917  2.2441  0.6771
   17SAPC   C34 2223   2.343   2.025   9.990  0.4519  0.0379 -0.5543
   17SAPC   H4X 2224   2.312   1.922  10.016 -0.5633 -0.8325 -4.5554
   17SAPC   H4Y 2225   2.425   2.058  10.057 -0.6888  0.0730  0.8747
   17SAPC   C35 2226   2.390   2.022   9.850 -0.8962 -0.5144  0.0089
   17SAPC   H5X 2227   2.422   2.125   9.822  1.8331 -0.5462  2.5577
   17SAPC   H5Y 2228   2.320   1.989   9.770 -0.2939 -1.0671 -0.2939
   17SAPC   C36 2229   2.517   1.930   9.836  0.1792 -0.2529 -0.5587
   17SAPC   H6X 2230   2.486   1.825   9.854  2.3597 -0.8409  0.1066
   17SAPC   H6Y 2231   2.583   1.966   9.919 -0.3056 -1.3050  0.3001
   17SAPC   C37 2232   2.577   1.962   9.695 -0.5212  0.1009 -0.2767
   17SAPC   H7X 2233   2.610   2.068   9.687  1.5153 -0.6233 -3.2867
   17SAPC   H7Y 2234   2.488   1.949   9.629  1.0824 -1.7286 -2.2022
   17SAPC   C38 2235   2.686   1.865   9.654 -0.3141  0.9060 -0.2235
   17SAPC   H8X 2236   2.652   1.762   9.629  3.7744  0.0192 -3.1627
   17SAPC   H8Y 2237   2.757   1.853   9.739  0.4225  0.8423 -0.8388
   17SAPC   C39 2238   2.757   1.927   9.529 -1.3247 -0.5145  0.0009
   17SAPC   H9X 2239   2.853   1.872   9.518 -0.8893  0.3712 -0.8289
   17SAPC   H9Y 2240   2.775   2.034   9.553 -0.1466 -0.8964  0.9329
   17SAPC  C310 2241   2.687   1.907   9.395  0.2566  0.1859  0.0680
   17SAPC  H10X 2242   2.596   1.970   9.385 -1.1845 -1.9512 -1.1230
   17SAPC  H10Y 2243   2.652   1.802   9.391 -0.1423  0.3417 -0.8530
   17SAPC  C311 2244   2.774   1.926   9.268  0.3377 -0.4480 -0.4483
   17SAPC  H11X 2245   2.828   1.829   9.254 -1.7939 -1.4300 -2.5723
   17SAPC  H11Y 2246   2.837   2.013   9.295  0.6899 -0.4188 -1.3377
   17SAPC  C312 2247   2.702   1.958   9.136  0.4752 -0.3498  0.8190
   17SAPC  H12X 2248   2.779   2.009   9.074 -0.7697  0.4882 -0.0746
   17SAPC  H12Y 2249   2.624   2.033   9.158 -0.1443 -0.5974 -0.4659
   17SAPC  C313 2250   2.645   1.839   9.075  0.1438 -0.6750  0.6408
   17SAPC  H13X 2251   2.566   1.779   9.126  1.5342 -3.7101 -0.5315
   17SAPC  H13Y 2252   2.720   1.763   9.045  0.0606 -0.8638  0.9039
   17SAPC  C314 2253   2.581   1.878   8.938  0.0156  0.8850  0.4252
   17SAPC  H14X 2254   2.662   1.901   8.865 -1.4398  0.8763 -1.2302
   17SAPC  H14Y 2255   2.516   1.968   8.941  0.3888  1.1827 -0.1615
   17SAPC  C315 2256   2.500   1.754   8.877  1.0450  0.3044  0.0919
   17SAPC  H15X 2257   2.455   1.780   8.779  1.2840 -0.5937 -0.2714
   17SAPC  H15Y 2258   2.417   1.738   8.950  1.9747  1.4456  1.4533
   17SAPC  C316 2259   2.583   1.624   8.849 -0.0606  0.0774  0.1459
   17SAPC  H16X 2260   2.621   1.584   8.945  1.7969 -0.9190 -0.9305
   17SAPC  H16Y 2261   2.674   1.648   8.789 -0.4400  1.2534  0.0041
   17SAPC  C317 2262   2.515   1.508   8.768  0.0152  0.3475  0.4741
   17SAPC  H17X 2263   2.429   1.477   8.831 -1.2172  0.6977 -0.9715
   17SAPC  H17Y 2264   2.578   1.419   8.746 -1.6414 -0.8329  0.3338
   17SAPC  C318 2265   2.441   1.545   8.644  0.1818 -0.0999 -0.4657
   17SAPC  H18X 2266   2.379   1.463   8.602 -0.2397  0.9191 -1.8912
   17SAPC  H18Y 2267   2.371   1.630   8.659 -1.0607 -1.0133 -0.9422
   17SAPC  H18Z 2268   2.507   1.577   8.560 -0.1899  4.0023  0.5861
   18SAPC     N 2269   3.549   2.227  10.752  0.1862 -0.6936  0.6944
   18SAPC   C12 2270   3.680   2.282  10.689 -0.1741 -0.1058  0.0358
   18SAPC  H12A 2271   3.727   2.330  10.773 -0.6734 -1.9609  1.4670
   18SAPC  H12B 2272   3.653   2.353  10.613  0.8741  0.5050  0.2269
   18SAPC   C13 2273   3.467   2.162  10.647 -0.7316 -0.2565 -0.4914
   18SAPC  H13A 2274   3.474   2.218  10.555 -0.4432  0.2162 -0.1847
   18SAPC  H13B 2275   3.507   2.065  10.619 -0.8197 -0.7104  0.8825
   18SAPC  H13C 2276   3.362   2.152  10.673 -1.2259  0.5900 -2.0630
   18SAPC   C14 2277   3.588   2.135  10.866 -0.0391  0.5428  0.6883
   18SAPC  H14A 2278   3.645   2.176  10.947 -1.6028  0.2471  1.9928
   18SAPC  H14B 2279   3.501   2.082  10.903 -0.1590 -0.1312 -0.5207
   18SAPC  H14C 2280   3.653   2.056  10.831 -0.9893 -0.0363  0.1946
   18SAPC   C15 2281   3.480   2.350  10.808  0.3554 -0.0379 -0.5477
   18SAPC  H15A 2282   3.391   2.328  10.865 -0.2029  2.1265 -0.5054
   18SAPC  H15B 2283   3.542   2.384  10.890 -0.1155  0.5765 -0.4435
   18SAPC  H15C 2284   3.457   2.423  10.732 -2.2760 -1.2040 -0.9929
   18SAPC   C11 2285   3.780   2.183  10.614 -0.1233  0.8881 -0.1932
   18SAPC  H11A 2286   3.861   2.244  10.569  1.1162 -0.3100  0.3221
   18SAPC  H11B 2287   3.723   2.135  10.531  1.7592  0.2848 -1.1898
   18SAPC     P 2288   3.851   1.937  10.683  0.1134  0.2259  0.5901
   18SAPC   O13 2289   3.987   1.900  10.727 -0.3795  0.6494  0.5251
   18SAPC   O14 2290   3.741   1.863  10.745 -0.0355 -0.0628 -0.7179
   18SAPC   O12 2291   3.833   2.091  10.712 -0.8106 -0.2448  0.2862
   18SAPC   O11 2292   3.840   1.927  10.530 -0.1755 -0.1435  0.7186
   18SAPC    C1 2293   3.946   1.910  10.436 -0.6107 -0.0749  0.4175
   18SAPC    HA 2294   4.016   1.838  10.484  0.9935  0.2542 -1.2843
   18SAPC    HB 2295   3.907   1.856  10.347  1.2252  0.0343 -0.5094
   18SAPC    C2 2296   4.018   2.044  10.391  0.8797  0.5852  0.2204
   18SAPC    HS 2297   4.044   2.099  10.483  2.3478  3.6843 -1.8772
   18SAPC   O21 2298   3.923   2.122  10.316 -0.6039  0.2240  0.4185
   18SAPC   C21 2299   3.951   2.253  10.315 -0.4866  0.1794  0.0812
   18SAPC   O22 2300   4.052   2.308  10.362  0.3751  0.4184  0.3475
   18SAPC   C22 2301   3.832   2.331  10.260  0.0890  0.0800  0.0024
   18SAPC   H2R 2302   3.750   2.262  10.233 -2.1945  1.2746  3.2603
   18SAPC   H2S 2303   3.791   2.391  10.344  1.3472  0.0842  0.6505
   18SAPC    C3 2304   4.136   2.017  10.300 -0.0759 -0.7557  0.4456
   18SAPC    HX 2305   4.202   1.956  10.366 -0.3085  0.4676  1.8559
   18SAPC    HY 2306   4.187   2.113  10.278 -1.5448  0.3078  1.5267
   18SAPC   O31 2307   4.087   1.941  10.181 -0.1774 -0.0129  0.4385
   18SAPC   C31 2308   4.088   2.018  10.066  0.6008 -0.5180 -0.1358
   18SAPC   O32 2309   4.110   2.141  10.065  0.4112  0.5993 -0.3061
   18SAPC   C32 2310   4.070   1.925   9.948 -0.3466  0.1259 -0.0512
   18SAPC   H2X 2311   3.969   1.880   9.957  0.0704 -0.7375  0.6030
   18SAPC   H2Y 2312   4.154   1.853   9.962  0.3575  0.8631 -0.4244
   18SAPC   C23 2313   3.871   2.429  10.139  0.2106 -0.0458  0.1187
   18SAPC   H3R 2314   3.907   2.362  10.058 -1.7668 -3.2337  1.6707
   18SAPC   H3S 2315   3.961   2.488  10.166  0.6299  0.1329 -1.5611
   18SAPC   C24 2316   3.748   2.507  10.090  0.1529  0.1448  0.2684
   18SAPC   H4R 2317   3.776   2.567  10.001 -0.8612  2.7953  1.6600
   18SAPC   H4S 2318   3.702   2.566  10.171 -1.1124 -0.6172  0.1294
   18SAPC   C25 2319   3.650   2.409  10.035  0.2080  0.3785  0.3004
   18SAPC   H5R 2320   3.581   2.370  10.111 -0.9542 -0.6170 -1.2112
   18SAPC   C26 2321   3.658   2.358   9.906  0.6049  0.2622 -0.6774
   18SAPC   H6R 2322   3.578   2.286   9.881  0.2673  0.4982 -0.2995
   18SAPC   C27 2323   3.751   2.394   9.797 -0.9263 -0.1073  0.3628
   18SAPC   H7R 2324   3.849   2.430   9.835 -0.7831 -0.5643  0.4269
   18SAPC   H7S 2325   3.705   2.482   9.746 -0.9493 -0.4742 -0.2565
   18SAPC   C28 2326   3.770   2.275   9.706 -0.3268 -0.1212 -0.8098
   18SAPC   H8R 2327   3.828   2.192   9.748 -1.7134 -1.6244 -1.7659
   18SAPC   C29 2328   3.730   2.267   9.580  0.2652 -0.2323  0.4403
   18SAPC   H9R 2329   3.730   2.169   9.531  2.2684 -0.5375  0.9556
   18SAPC  C210 2330   3.652   2.371   9.509  0.3207  0.1207  0.1359
   18SAPC  H10R 2331   3.691   2.393   9.407  0.9019  0.2110  0.3784
   18SAPC  H10S 2332   3.642   2.471   9.555  0.0662 -1.0114  2.7144
   18SAPC  C211 2333   3.510   2.331   9.490 -0.7625  0.1045  0.2605
   18SAPC  H11R 2334   3.449   2.342   9.580 -1.1596 -0.7187  0.1060
   18SAPC  C212 2335   3.448   2.281   9.379  0.4468 -0.0407  0.2269
   18SAPC  H12R 2336   3.342   2.254   9.388  0.3295  0.1700 -0.4633
   18SAPC  C213 2337   3.504   2.261   9.239  0.8936 -0.9370 -0.7514
   18SAPC  H13R 2338   3.485   2.156   9.211  0.0127 -0.5161 -1.8182
   18SAPC  H13S 2339   3.612   2.287   9.246  0.4107  0.8604  1.3640
   18SAPC  C214 2340   3.462   2.349   9.126 -0.0116 -0.7703 -0.4115
   18SAPC  H14R 2341   3.500   2.452   9.137 -2.3869  0.1552 -0.4735
   18SAPC  C215 2342   3.407   2.315   9.005 -0.2423 -0.0962  0.2379
   18SAPC  H15R 2343   3.370   2.389   8.932  4.6629  0.9980 -1.5545
   18SAPC  C216 2344   3.375   2.174   8.957  0.2038 -0.4772 -0.1230
   18SAPC  H16R 2345   3.415   2.094   9.022  1.3804  0.5682  0.4796
   18SAPC  H16S 2346   3.407   2.162   8.851 -1.8525  1.6950 -1.0928
   18SAPC  C217 2347   3.220   2.148   8.965 -0.0508  0.0253  0.5629
   18SAPC  H17R 2348   3.169   2.241   8.932  0.4225  0.4020  0.8851
   18SAPC  H17S 2349   3.200   2.128   9.072  0.4570  1.2931  0.9181
   18SAPC  C218 2350   3.164   2.042   8.864 -0.0725  0.7944 -0.7404
   18SAPC  H18R 2351   3.212   1.942   8.865 -0.2697  0.6524 -2.3448
   18SAPC  H18S 2352   3.179   2.070   8.757 -2.0872 -2.8139 -2.1374
   18SAPC  C219 2353   3.009   2.013   8.872 -0.6225 -0.4242  0.1635
   18SAPC  H19R 2354   2.963   2.099   8.818  2.2332  0.2447 -1.4422
   18SAPC  H19S 2355   2.963   1.999   8.972 -1.1457 -0.5413 -0.0915
   18SAPC  C220 2356   2.981   1.893   8.776 -0.3922  0.2113  0.2445
   18SAPC  H20R 2357   3.007   1.930   8.674  0.0569 -2.5640 -0.7242
   18SAPC  H20S 2358   2.871   1.878   8.779 -0.7470  1.5156 -2.6629
   18SAPC  H20T 2359   3.048   1.806   8.792 -0.1395  0.1405 -1.0675
   18SAPC   C33 2360   4.086   1.996   9.807  0.2411  0.3834  0.3842
   18SAPC   H3X 2361   4.187   2.039   9.796 -0.0939  1.5277  1.4844
   18SAPC   H3Y 2362   4.011   2.077   9.794 -0.0840 -0.2896 -2.5454
   18SAPC   C34 2363   4.063   1.898   9.688  0.1835 -0.2254 -0.1178
   18SAPC   H4X 2364   3.967   1.843   9.704  0.0279  0.6285  2.2058
   18SAPC   H4Y 2365   4.146   1.825   9.679  1.4391  0.6658  3.1507
   18SAPC   C35 2366   4.050   1.968   9.554  0.8535  0.3379  0.4267
   18SAPC   H5X 2367   4.141   2.031   9.545  2.3975 -1.8900 -0.5241
   18SAPC   H5Y 2368   3.956   2.028   9.555 -1.2572 -2.5931 -1.9297
   18SAPC   C36 2369   4.051   1.885   9.428 -0.3777 -0.2421 -0.0081
   18SAPC   H6X 2370   3.950   1.844   9.407 -1.2224  1.4040  0.7004
   18SAPC   H6Y 2371   4.132   1.810   9.439  0.7081  0.8323 -0.4136
   18SAPC   C37 2372   4.105   1.960   9.302 -0.3782  0.2871 -0.6140
   18SAPC   H7X 2373   4.124   1.895   9.215  0.6120  1.8627 -1.6277
   18SAPC   H7Y 2374   4.202   2.010   9.325 -0.6609  1.2904 -1.5142
   18SAPC   C38 2375   4.018   2.080   9.242 -0.3498 -0.7342  0.0598
   18SAPC   H8X 2376   4.084   2.143   9.178 -1.9232 -1.0937 -2.0388
   18SAPC   H8Y 2377   3.979   2.139   9.327 -1.5772 -0.2795 -0.7897
   18SAPC   C39 2378   3.900   2.033   9.146  0.1104 -0.0374  0.8485
   18SAPC   H9X 2379   3.955   1.975   9.069  0.0838 -0.0141  0.8121
   18SAPC   H9Y 2380   3.851   2.116   9.091  0.6670  1.0218  1.9060
   18SAPC  C310 2381   3.800   1.930   9.198  0.7359  0.2352 -0.2529
   18SAPC  H10X 2382   3.847   1.840   9.243  0.3818  0.4248  0.5141
   18SAPC  H10Y 2383   3.732   1.889   9.120  0.3294 -0.7852  0.6081
   18SAPC  C311 2384   3.733   1.989   9.327 -0.2888  0.2096 -0.9331
   18SAPC  H11X 2385   3.700   2.095   9.315 -0.5076  0.3210  0.4571
   18SAPC  H11Y 2386   3.799   1.965   9.412  2.3077 -0.2140 -2.9404
   18SAPC  C312 2387   3.595   1.920   9.345 -0.2664  0.2906 -0.9022
   18SAPC  H12X 2388   3.599   1.813   9.316  0.3849 -0.6597  2.2714
   18SAPC  H12Y 2389   3.519   1.969   9.280 -1.6909  0.1156  0.5446
   18SAPC  C313 2390   3.532   1.916   9.483 -0.0932 -0.9743  0.2430
   18SAPC  H13X 2391   3.438   1.857   9.483  1.2384 -3.2792 -1.0328
   18SAPC  H13Y 2392   3.497   2.015   9.517  0.3856 -0.0450 -1.8354
   18SAPC  C314 2393   3.629   1.856   9.585  0.4024 -0.8715 -0.6826
   18SAPC  H14X 2394   3.715   1.927   9.590  0.3065 -0.7898 -0.1819
   18SAPC  H14Y 2395   3.677   1.764   9.544 -0.0986 -1.4298 -0.0243
   18SAPC  C315 2396   3.581   1.842   9.731 -0.2828  0.7318 -0.3100
   18SAPC  H15X 2397   3.664   1.819   9.801  0.8705  1.2760 -1.4505
   18SAPC  H15Y 2398   3.506   1.762   9.747  0.3806  0.2647  0.5668
   18SAPC  C316 2399   3.519   1.977   9.779 -0.6483 -0.9515 -0.9262
   18SAPC  H16X 2400   3.416   1.966   9.738 -0.5618  1.6252 -2.0153
   18SAPC  H16Y 2401   3.576   2.066   9.745  1.9133 -1.8990  0.6334
   18SAPC  C317 2402   3.524   1.977   9.937 -0.1966  0.2993 -0.0372
   18SAPC  H17X 2403   3.486   1.879   9.972  0.0625 -0.5098 -1.9061
   18SAPC  H17Y 2404   3.448   2.049   9.973  0.5508  0.1982  1.8456
   18SAPC  C318 2405   3.663   2.002  10.001  0.6254 -0.3740  0.3432
   18SAPC  H18X 2406   3.692   2.109   9.996  1.9412 -0.7323 -0.3569
   18SAPC  H18Y 2407   3.735   1.937   9.946  0.6826  0.3975 -0.5038
   18SAPC  H18Z 2408   3.665   1.963  10.105 -0.2065 -2.2938 -0.2972
   19SAPC     N 2409   4.513   1.652  10.904 -0.6328  0.3058 -0.1435
   19SAPC   C12 2410   4.643   1.643  10.990 -0.3394  0.4742  0.2298
   19SAPC  H12A 2411   4.613   1.661  11.092  0.6223  3.3703  0.0672
   19SAPC  H12B 2412   4.712   1.720  10.958  0.2529 -0.6190 -1.3065
   19SAPC   C13 2413   4.538   1.659  10.755 -0.5911 -0.0880  0.5838
   19SAPC  H13A 2414   4.442   1.665  10.706 -0.6242  1.7714  0.8115
   19SAPC  H13B 2415   4.609   1.734  10.727  0.7301 -1.1226  1.0650
   19SAPC  H13C 2416   4.578   1.564  10.722 -1.4984 -0.4132  0.3881
   19SAPC   C14 2417   4.425   1.531  10.908  0.6070 -0.5153  0.1230
   19SAPC  H14A 2418   4.484   1.441  10.912  0.0837 -0.8297  1.2157
   19SAPC  H14B 2419   4.362   1.537  10.996  0.6445 -0.1948  0.1326
   19SAPC  H14C 2420   4.360   1.522  10.822  1.0460 -3.0113 -0.0016
   19SAPC   C15 2421   4.431   1.769  10.941 -0.4286  0.0999  0.5985
   19SAPC  H15A 2422   4.370   1.755  11.030 -1.0387  0.8782  0.3161
   19SAPC  H15B 2423   4.479   1.865  10.953 -1.9824  0.9052  0.7443
   19SAPC  H15C 2424   4.355   1.786  10.866  0.5214 -0.7556 -0.5967
   19SAPC   C11 2425   4.722   1.510  10.980  0.4005  0.0578  0.0109
   19SAPC  H11A 2426   4.648   1.429  10.995  0.4020  0.1054  0.2695
   19SAPC  H11B 2427   4.805   1.499  11.052  1.1466  0.8995 -0.6915
   19SAPC     P 2428   4.884   1.555  10.778  0.3761 -0.0414  0.3084
   19SAPC   O13 2429   4.917   1.679  10.841 -0.0657 -0.0353  0.0710
   19SAPC   O14 2430   4.987   1.453  10.767  0.4763  0.2757  0.0045
   19SAPC   O12 2431   4.762   1.480  10.847  0.1506  0.3998  0.2395
   19SAPC   O11 2432   4.824   1.577  10.632 -0.1797  0.0363 -0.4324
   19SAPC    C1 2433   4.778   1.469  10.553 -0.7324  0.1871  0.4023
   19SAPC    HA 2434   4.789   1.365  10.592  2.3857  0.1514 -0.3087
   19SAPC    HB 2435   4.672   1.487  10.526 -0.1930  1.3065 -1.1058
   19SAPC    C2 2436   4.858   1.465  10.422  0.2060 -0.3544  0.6096
   19SAPC    HS 2437   4.961   1.490  10.456  1.0797 -1.0541 -1.3424
   19SAPC   O21 2438   4.809   1.570  10.335  0.0097  0.3224  0.0248
   19SAPC   C21 2439   4.892   1.638  10.263 -0.7599 -0.1071 -0.3480
   19SAPC   O22 2440   5.015   1.625  10.267  0.6013 -0.3942  0.2510
   19SAPC   C22 2441   4.819   1.736  10.174 -0.0018 -0.0528  0.1173
   19SAPC   H2R 2442   4.744   1.789  10.237 -1.1168 -0.2659 -1.0025
   19SAPC   H2S 2443   4.898   1.801  10.128  0.3555 -0.3162  0.3522
   19SAPC    C3 2444   4.856   1.325  10.349 -0.0440 -0.2331 -0.5430
   19SAPC    HX 2445   4.749   1.316  10.321  0.6502 -0.0875 -3.5054
   19SAPC    HY 2446   4.877   1.241  10.419  0.7284  1.7555  1.7601
   19SAPC   O31 2447   4.931   1.327  10.230 -0.3929  0.7837 -0.3184
   19SAPC   C31 2448   5.064   1.319  10.254 -0.1726  0.1753 -0.2440
   19SAPC   O32 2449   5.113   1.305  10.362  0.0902  0.0975 -0.2652
   19SAPC   C32 2450   5.138   1.322  10.121 -0.4565 -0.8985 -0.4386
   19SAPC   H2X 2451   5.120   1.423  10.078  1.3148 -0.0810  0.6135
   19SAPC   H2Y 2452   5.110   1.240  10.052 -0.8074 -1.0485 -0.1209
   19SAPC   C23 2453   4.744   1.662  10.062 -0.1559  0.5250  0.3434
   19SAPC   H3R 2454   4.674   1.732  10.012  1.5101  3.7111  2.1677
   19SAPC   H3S 2455   4.672   1.589  10.106 -0.2816 -0.0824 -0.8277
   19SAPC   C24 2456   4.838   1.599   9.953  0.4906 -0.0038 -0.0306
   19SAPC   H4R 2457   4.901   1.520  10.000 -3.1024 -2.1442  1.6609
   19SAPC   H4S 2458   4.907   1.679   9.920  2.6288 -1.6295  0.2646
   19SAPC   C25 2459   4.768   1.549   9.829  0.6748  0.8371 -0.2750
   19SAPC   H5R 2460   4.707   1.621   9.773  2.1993  1.0553 -1.7576
   19SAPC   C26 2461   4.769   1.419   9.783  0.3112 -0.3646  0.2712
   19SAPC   H6R 2462   4.697   1.400   9.703  0.0483  0.9220  0.1769
   19SAPC   C27 2463   4.838   1.302   9.835 -0.4679  0.3887 -0.4930
   19SAPC   H7R 2464   4.775   1.211   9.825 -0.3022  0.4417 -2.5968
   19SAPC   H7S 2465   4.863   1.306   9.943  2.6550  0.7120 -1.1563
   19SAPC   C28 2466   4.967   1.287   9.759 -0.0423  0.2276  0.6540
   19SAPC   H8R 2467   5.052   1.309   9.824  0.0443 -0.2485  0.7074
   19SAPC   C29 2468   4.999   1.271   9.632  0.2548  0.4679  0.1922
   19SAPC   H9R 2469   5.103   1.246   9.607 -0.2781 -0.9463 -0.7154
   19SAPC  C210 2470   4.898   1.250   9.522 -0.1401 -0.7238 -0.3095
   19SAPC  H10R 2471   4.798   1.231   9.567 -1.1918  1.8700 -1.3958
   19SAPC  H10S 2472   4.936   1.159   9.469  2.6991  0.3367 -0.2636
   19SAPC  C211 2473   4.900   1.369   9.426  1.0353 -0.2422  0.6207
   19SAPC  H11R 2474   4.918   1.466   9.474 -1.3587 -0.1598  1.5245
   19SAPC  C212 2475   4.890   1.362   9.291  0.0958  0.3247  0.3111
   19SAPC  H12R 2476   4.890   1.456   9.234 -0.8783 -0.4190 -0.9652
   19SAPC  C213 2477   4.869   1.239   9.211  0.0476 -0.0962 -0.5123
   19SAPC  H13R 2478   4.799   1.242   9.125 -0.2235 -0.6634 -0.3207
   19SAPC  H13S 2479   4.811   1.178   9.284 -2.4873  1.7832 -0.8098
   19SAPC  C214 2480   5.005   1.173   9.177 -0.9377 -0.5212  0.6642
   19SAPC  H14R 2481   5.072   1.161   9.263 -0.1382  3.3614  0.7840
   19SAPC  C215 2482   5.042   1.134   9.052 -0.4155 -0.6348 -0.0286
   19SAPC  H15R 2483   5.134   1.074   9.039 -0.2586 -0.4325  0.1511
   19SAPC  C216 2484   4.960   1.143   8.924 -0.3131 -0.1955  0.0124
   19SAPC  H16R 2485   4.945   1.252   8.908  1.1589  0.1687  0.9262
   19SAPC  H16S 2486   4.858   1.099   8.931  0.2222 -1.5645 -0.4040
   19SAPC  C217 2487   5.017   1.074   8.803  0.2201  0.4834  0.7492
   19SAPC  H17R 2488   5.038   0.969   8.832  0.5469  0.3641  0.1073
   19SAPC  H17S 2489   5.115   1.119   8.776  0.0926 -0.2582 -1.1211
   19SAPC  C218 2490   4.917   1.070   8.688  0.5877  0.0943 -0.4814
   19SAPC  H18R 2491   4.818   1.033   8.723 -0.3861  1.4835 -1.6276
   19SAPC  H18S 2492   4.954   0.998   8.613 -1.0728  2.7541 -4.1549
   19SAPC  C219 2493   4.904   1.208   8.618 -0.2155 -0.3512 -0.1286
   19SAPC  H19R 2494   4.898   1.290   8.693  1.6890 -0.9364  0.7286
   19SAPC  H19S 2495   4.814   1.214   8.553 -1.3917 -0.5127  1.4081
   19SAPC  C220 2496   5.015   1.228   8.518  0.5934 -0.0080 -0.6294
   19SAPC  H20R 2497   5.029   1.138   8.454 -0.2299 -0.7895  0.2553
   19SAPC  H20S 2498   5.111   1.247   8.571 -0.9000 -0.0865  2.2673
   19SAPC  H20T 2499   4.993   1.321   8.462  0.3684  1.2604  1.4802
   19SAPC   C33 2500   5.288   1.325  10.156 -0.6850 -0.0120  0.3047
   19SAPC   H3X 2501   5.313   1.227  10.203  3.6882 -0.6273 -2.6543
   19SAPC   H3Y 2502   5.306   1.408  10.227  0.0683 -0.2918  0.4557
   19SAPC   C34 2503   5.381   1.337  10.027  0.3949 -0.2846 -0.2470
   19SAPC   H4X 2504   5.482   1.302  10.057  0.5585 -0.9826 -1.5587
   19SAPC   H4Y 2505   5.393   1.445  10.003 -0.6508  0.0770  0.7801
   19SAPC   C35 2506   5.333   1.260   9.905 -0.5787  0.0705  0.4977
   19SAPC   H5X 2507   5.246   1.306   9.854 -0.7409 -0.8183 -0.0406
   19SAPC   H5Y 2508   5.304   1.157   9.934  0.8482 -0.4054  0.3485
   19SAPC   C36 2509   5.436   1.245   9.791  0.0955  0.6698 -0.1401
   19SAPC   H6X 2510   5.505   1.160   9.814  0.2516  1.0507  0.8439
   19SAPC   H6Y 2511   5.499   1.335   9.773  0.4769  0.9704  2.3218
   19SAPC   C37 2512   5.365   1.208   9.661  0.1108 -0.3949  0.1591
   19SAPC   H7X 2513   5.316   1.298   9.620  0.5672  0.1949  0.8816
   19SAPC   H7Y 2514   5.288   1.130   9.682  1.8302 -2.0982  0.4841
   19SAPC   C38 2515   5.461   1.160   9.544  0.8491 -0.4463 -1.1489
   19SAPC   H8X 2516   5.499   1.058   9.568  2.1821  0.0701 -1.0157
   19SAPC   H8Y 2517   5.549   1.225   9.529 -0.0329  0.6777 -1.5761
   19SAPC   C39 2518   5.378   1.142   9.421  0.1982  0.2500  0.4242
   19SAPC   H9X 2519   5.359   1.242   9.377 -2.7956 -0.4936 -0.2100
   19SAPC   H9Y 2520   5.276   1.101   9.439  0.3383 -0.0226  0.5966
   19SAPC  C310 2521   5.453   1.060   9.312  0.8803  0.1863 -0.5224
   19SAPC  H10X 2522   5.478   0.962   9.358 -2.0682 -1.7454 -2.7013
   19SAPC  H10Y 2523   5.551   1.111   9.300  2.2809 -1.8895  1.3445
   19SAPC  C311 2524   5.370   1.055   9.185  0.0681 -0.5127  0.0801
   19SAPC  H11X 2525   5.328   1.152   9.151  0.6179 -0.0392  0.7222
   19SAPC  H11Y 2526   5.275   1.000   9.198  1.1657 -1.8329  3.8549
   19SAPC  C312 2527   5.449   1.000   9.068  0.1966 -0.0174 -1.1386
   19SAPC  H12X 2528   5.466   0.892   9.087  1.0780  0.5805  2.0159
   19SAPC  H12Y 2529   5.550   1.046   9.076  0.5569 -1.1029  0.9147
   19SAPC  C313 2530   5.384   1.016   8.935  0.0550 -0.1144 -0.4458
   19SAPC  H13X 2531   5.373   1.125   8.918 -0.4202 -0.4278 -2.4294
   19SAPC  H13Y 2532   5.280   0.979   8.940  0.7754 -2.6975 -2.4653
   19SAPC  C314 2533   5.450   0.955   8.811 -0.4101  0.1742 -0.4682
   19SAPC  H14X 2534   5.416   0.850   8.796 -0.8447  0.7016 -3.9652
   19SAPC  H14Y 2535   5.561   0.965   8.814 -0.4455  0.3526  0.8099
   19SAPC  C315 2536   5.406   1.019   8.680  0.1318 -0.0831 -0.1658
   19SAPC  H15X 2537   5.404   1.129   8.697 -0.1694 -0.1239  0.0663
   19SAPC  H15Y 2538   5.301   0.998   8.651  0.8153 -0.3846 -2.5831
   19SAPC  C316 2539   5.497   0.978   8.564  0.1929  0.3645  0.7810
   19SAPC  H16X 2540   5.546   0.879   8.578 -0.3875 -0.2028 -0.9808
   19SAPC  H16Y 2541   5.580   1.052   8.563  1.2135 -0.7556 -0.4712
   19SAPC  C317 2542   5.429   0.975   8.430  0.3209  0.7403 -0.2226
   19SAPC  H17X 2543   5.356   0.892   8.430 -0.2791  1.2342  1.2548
   19SAPC  H17Y 2544   5.507   0.947   8.356  1.5238 -1.5400  1.7871
   19SAPC  C318 2545   5.352   1.103   8.401  0.0326 -0.1866  0.0788
   19SAPC  H18X 2546   5.426   1.186   8.398 -0.3784  0.2686  1.5427
   19SAPC  H18Y 2547   5.283   1.146   8.476  1.0221  1.6270  0.0007
   19SAPC  H18Z 2548   5.316   1.105   8.296  3.7177 -2.3482 -1.4285
   20SAPC     N 2549   3.963   5.370  11.231 -0.2170  0.0607  0.1295
   20SAPC   C12 2550   4.032   5.380  11.094  0.0032  0.1925  0.5559
   20SAPC  H12A 2551   4.001   5.464  11.034  2.0349 -1.3676 -3.0157
   20SAPC  H12B 2552   4.014   5.290  11.037  1.1090 -0.0414  0.5500
   20SAPC   C13 2553   3.812   5.334  11.222  0.0340  0.4601 -0.1539
   20SAPC  H13A 2554   3.760   5.308  11.313 -0.7269 -1.2027 -1.0018
   20SAPC  H13B 2555   3.750   5.410  11.177 -0.3560  1.8807  2.5459
   20SAPC  H13C 2556   3.811   5.243  11.163  0.9635 -1.7932  3.0292
   20SAPC   C14 2557   4.029   5.265  11.315 -1.1996  0.2486  0.6332
   20SAPC  H14A 2558   4.005   5.279  11.419  0.0514  1.2734  0.7994
   20SAPC  H14B 2559   4.007   5.169  11.269  0.6763 -0.0319  0.2252
   20SAPC  H14C 2560   4.135   5.270  11.296 -1.3619 -0.4321 -0.6021
   20SAPC   C15 2561   3.973   5.494  11.309 -0.2527 -0.2261 -0.6664
   20SAPC  H15A 2562   3.918   5.575  11.264  1.7578 -0.2636 -3.4937
   20SAPC  H15B 2563   3.939   5.470  11.408  1.4390 -0.2978 -0.0662
   20SAPC  H15C 2564   4.077   5.526  11.306  0.2701 -1.8440 -0.5162
   20SAPC   C11 2565   4.181   5.391  11.091  0.6793 -0.5577  0.4435
   20SAPC  H11A 2566   4.221   5.382  10.988  0.2294  1.1678  0.0841
   20SAPC  H11B 2567   4.220   5.299  11.140  0.5674 -0.9039 -0.1103
   20SAPC     P 2568   4.221   5.656  11.088  0.2789 -0.0686  0.3703
   20SAPC   O13 2569   4.083   5.689  11.053  0.5945  0.4132 -0.3371
   20SAPC   O14 2570   4.301   5.750  11.165  0.2529 -0.0891 -0.6768
   20SAPC   O12 2571   4.227   5.511  11.154  0.1282  0.0916 -0.5150
   20SAPC   O11 2572   4.296   5.635  10.960 -0.0091 -0.0746  0.3028
   20SAPC    C1 2573   4.398   5.739  10.912  0.8355  0.3539 -0.7833
   20SAPC    HA 2574   4.350   5.838  10.925 -3.0414 -1.5599  0.9530
   20SAPC    HB 2575   4.489   5.735  10.976 -0.1917 -0.1098  0.6918
   20SAPC    C2 2576   4.454   5.709  10.775  0.4551  0.4579 -0.9540
   20SAPC    HS 2577   4.522   5.793  10.749 -1.2457  1.9120 -0.8738
   20SAPC   O21 2578   4.356   5.683  10.673  0.1819 -0.1600  0.7025
   20SAPC   C21 2579   4.300   5.794  10.613 -0.8233  0.4814  0.1751
   20SAPC   O22 2580   4.324   5.909  10.639 -0.2487  0.6770  0.3293
   20SAPC   C22 2581   4.194   5.748  10.511  0.0470  0.0431 -0.6557
   20SAPC   H2R 2582   4.207   5.644  10.474 -2.1999  0.1534 -2.0084
   20SAPC   H2S 2583   4.098   5.760  10.565  0.2147 -1.9305  0.1502
   20SAPC    C3 2584   4.529   5.573  10.791  0.0526 -0.5772 -0.9631
   20SAPC    HX 2585   4.452   5.500  10.824 -0.8222  0.4238 -0.7419
   20SAPC    HY 2586   4.613   5.588  10.862  0.8242  2.4833 -2.3566
   20SAPC   O31 2587   4.589   5.531  10.665  0.1968 -0.7992 -0.4818
   20SAPC   C31 2588   4.687   5.608  10.621  0.0442  0.1797  0.4603
   20SAPC   O32 2589   4.734   5.700  10.683  0.4013  0.0366 -0.2952
   20SAPC   C32 2590   4.722   5.551  10.488 -0.5416 -0.5684 -0.0671
   20SAPC   H2X 2591   4.652   5.605  10.421 -1.7616  0.3297  1.8378
   20SAPC   H2Y 2592   4.695   5.443  10.490 -0.4108 -0.6197 -0.8066
   20SAPC   C23 2593   4.179   5.850  10.391  0.3740 -0.6026  0.3771
   20SAPC   H3R 2594   4.277   5.863  10.339 -0.8241  2.4467 -1.4680
   20SAPC   H3S 2595   4.154   5.942  10.448 -0.2312 -1.7772  2.0800
   20SAPC   C24 2596   4.071   5.809  10.286 -0.0494 -0.3292  0.3248
   20SAPC   H4R 2597   3.983   5.757  10.329  0.2103 -0.7002  0.4141
   20SAPC   H4S 2598   4.112   5.727  10.223  0.0772  0.0607 -0.0991
   20SAPC   C25 2599   4.029   5.925  10.206 -0.7325 -1.0432 -0.1915
   20SAPC   H5R 2600   3.965   5.996  10.261  1.3660 -1.0444  2.4697
   20SAPC   C26 2601   4.080   5.951  10.084  0.1558  0.1256  0.6421
   20SAPC   H6R 2602   4.034   6.040  10.038 -0.7545  0.0579  1.4018
   20SAPC   C27 2603   4.183   5.882  10.010  0.3976  0.3501 -0.1594
   20SAPC   H7R 2604   4.239   5.821  10.085  0.6716  0.3283 -0.3813
   20SAPC   H7S 2605   4.269   5.942   9.974  2.8405 -2.4413  0.5690
   20SAPC   C28 2606   4.146   5.776   9.904 -0.1891  0.1586  1.1205
   20SAPC   H8R 2607   4.050   5.722   9.908 -0.5417  0.4587 -1.3321
   20SAPC   C29 2608   4.224   5.727   9.802  0.6000  0.1510  0.5059
   20SAPC   H9R 2609   4.175   5.659   9.731 -1.5548  0.9383  1.1621
   20SAPC  C210 2610   4.357   5.770   9.759 -1.2062 -1.4324 -0.4785
   20SAPC  H10R 2611   4.398   5.837   9.838 -0.3639 -3.2366  0.6893
   20SAPC  H10S 2612   4.351   5.823   9.662  2.3955  0.3649  0.1052
   20SAPC  C211 2613   4.446   5.648   9.748 -0.1929 -0.0618 -0.3619
   20SAPC  H11R 2614   4.512   5.621   9.832 -0.0022  1.1893 -0.0948
   20SAPC  C212 2615   4.448   5.563   9.646  0.0488 -0.3520  0.6729
   20SAPC  H12R 2616   4.522   5.483   9.655  0.6833  0.3739  2.2376
   20SAPC  C213 2617   4.369   5.573   9.515 -0.4632 -0.1521  0.0278
   20SAPC  H13R 2618   4.438   5.529   9.440  0.7793  1.0950  0.3860
   20SAPC  H13S 2619   4.363   5.679   9.481  1.3398  0.8988  2.6867
   20SAPC  C214 2620   4.240   5.501   9.501 -0.2252  0.2407  0.4285
   20SAPC  H14R 2621   4.175   5.483   9.587  1.3546 -2.1190  1.2227
   20SAPC  C215 2622   4.186   5.457   9.382  0.2296  0.0833  0.2608
   20SAPC  H15R 2623   4.093   5.399   9.381 -1.0816  2.1004 -0.4894
   20SAPC  C216 2624   4.248   5.478   9.250  0.2170 -0.1963 -0.0003
   20SAPC  H16R 2625   4.358   5.496   9.255 -0.0429  2.0826 -1.2267
   20SAPC  H16S 2626   4.210   5.572   9.205 -0.9370 -0.6909 -0.0856
   20SAPC  C217 2627   4.211   5.364   9.147  0.3373 -0.6014 -0.1143
   20SAPC  H17R 2628   4.100   5.369   9.138  0.0613 -4.0125  0.1910
   20SAPC  H17S 2629   4.234   5.267   9.195  0.6202 -0.4103  0.1397
   20SAPC  C218 2630   4.276   5.377   9.015 -0.8831 -0.4336 -0.7123
   20SAPC  H18R 2631   4.377   5.420   9.035 -1.3147 -0.1847  1.1156
   20SAPC  H18S 2632   4.220   5.447   8.949  0.0098 -0.4387 -1.4928
   20SAPC  C219 2633   4.308   5.246   8.953 -0.2303 -0.0281 -0.9198
   20SAPC  H19R 2634   4.385   5.190   9.010 -0.8471  0.3900  0.3481
   20SAPC  H19S 2635   4.345   5.258   8.849 -0.9253  0.0532 -1.1643
   20SAPC  C220 2636   4.183   5.155   8.934 -0.2856  0.5914  0.4245
   20SAPC  H20R 2637   4.111   5.207   8.867 -1.1973 -1.6402 -0.4428
   20SAPC  H20S 2638   4.121   5.138   9.024 -3.2537 -0.7546 -1.6872
   20SAPC  H20T 2639   4.213   5.057   8.892 -1.3881  0.2113  0.4835
   20SAPC   C33 2640   4.867   5.566  10.437 -0.4589 -0.2573 -0.6546
   20SAPC   H3X 2641   4.942   5.530  10.511 -1.3928 -2.8063 -0.8481
   20SAPC   H3Y 2642   4.892   5.672  10.415  2.0262 -0.2503  1.5913
   20SAPC   C34 2643   4.907   5.489  10.314 -0.3690 -0.0957  0.3546
   20SAPC   H4X 2644   4.885   5.381  10.331  0.5791  0.0197  2.7118
   20SAPC   H4Y 2645   5.016   5.495  10.299 -0.4007 -0.2012  0.0792
   20SAPC   C35 2646   4.834   5.524  10.186  0.1171  0.0736  0.4034
   20SAPC   H5X 2647   4.851   5.630  10.156  0.4995  0.3604  1.5854
   20SAPC   H5Y 2648   4.724   5.507  10.194  0.0844  0.2755  0.4021
   20SAPC   C36 2649   4.897   5.456  10.066 -0.0109  0.0804  0.3579
   20SAPC   H6X 2650   4.888   5.346  10.079 -0.0972 -0.3245 -2.5233
   20SAPC   H6Y 2651   5.006   5.473  10.062  0.0985 -0.8959 -2.5464
   20SAPC   C37 2652   4.831   5.494   9.936  0.5483 -0.3830 -0.0826
   20SAPC   H7X 2653   4.852   5.602   9.922  1.8455 -0.5756  0.2506
   20SAPC   H7Y 2654   4.720   5.489   9.942  0.4627 -2.6831 -2.0898
   20SAPC   C38 2655   4.871   5.414   9.810 -1.0019  0.3826 -0.1726
   20SAPC   H8X 2656   4.808   5.323   9.797 -1.6071  0.4168  2.0918
   20SAPC   H8Y 2657   4.978   5.386   9.816 -1.1399  0.0459  1.0749
   20SAPC   C39 2658   4.852   5.487   9.679 -0.0221  0.7023 -0.1604
   20SAPC   H9X 2659   4.917   5.578   9.684 -0.6182  1.2339 -1.4874
   20SAPC   H9Y 2660   4.745   5.517   9.671 -0.4666 -0.1683  1.8277
   20SAPC  C310 2661   4.893   5.402   9.561 -0.5987  0.0775  0.0190
   20SAPC  H10X 2662   4.848   5.301   9.570  2.8281 -1.6046  0.1569
   20SAPC  H10Y 2663   5.001   5.377   9.564 -0.5696  0.2093  0.0859
   20SAPC  C311 2664   4.855   5.454   9.423  0.5743 -0.0385 -0.0609
   20SAPC  H11X 2665   4.898   5.555   9.407 -1.4640  0.9197  0.1455
   20SAPC  H11Y 2666   4.745   5.465   9.420  0.6286  0.7675  0.5423
   20SAPC  C312 2667   4.910   5.370   9.309  0.6966 -0.6281 -0.0020
   20SAPC  H12X 2668   4.900   5.263   9.335  0.3756 -0.7583 -0.6464
   20SAPC  H12Y 2669   5.017   5.393   9.294  0.6856 -0.6454 -0.1064
   20SAPC  C313 2670   4.835   5.390   9.175  0.4302  0.0335 -0.5292
   20SAPC  H13X 2671   4.860   5.488   9.127 -0.7356 -0.0926 -1.4393
   20SAPC  H13Y 2672   4.726   5.384   9.191  0.4766 -1.4063 -0.6007
   20SAPC  C314 2673   4.863   5.274   9.083  0.0385 -0.5985  0.9703
   20SAPC  H14X 2674   4.844   5.178   9.135  0.6403 -1.1764  0.1401
   20SAPC  H14Y 2675   4.966   5.280   9.042 -0.4570 -1.0623 -0.4192
   20SAPC  C315 2676   4.770   5.266   8.962 -0.2797  0.0597  0.0899
   20SAPC  H15X 2677   4.770   5.365   8.911  1.4081 -0.5604 -1.2584
   20SAPC  H15Y 2678   4.674   5.250   9.013  1.3090 -1.1448  2.9023
   20SAPC  C316 2679   4.809   5.162   8.861 -0.1096 -0.4839  0.1526
   20SAPC  H16X 2680   4.806   5.063   8.911 -2.5915 -1.8668 -2.4341
   20SAPC  H16Y 2681   4.908   5.195   8.823  0.0123 -0.5724  0.3905
   20SAPC  C317 2682   4.698   5.156   8.751 -0.6448  0.1545  0.1827
   20SAPC  H17X 2683   4.682   5.257   8.707 -0.5438  1.0169  2.0222
   20SAPC  H17Y 2684   4.602   5.131   8.802 -0.6962 -0.7498 -0.3430
   20SAPC  C318 2685   4.735   5.054   8.641  0.6563  0.2024  0.0566
   20SAPC  H18X 2686   4.669   5.062   8.553 -0.7444  2.0202  1.1998
   20SAPC  H18Y 2687   4.716   4.954   8.685 -0.2442  0.2637 -0.1757
   20SAPC  H18Z 2688   4.840   5.062   8.605 -0.0716  0.3325 -2.1498
   21SAPC     N 2689   4.758   0.469  11.132 -0.0568 -0.3472 -0.1888
   21SAPC   C12 2690   4.755   0.509  10.983 -0.0071 -0.6772  0.0705
   21SAPC  H12A 2691   4.825   0.444  10.934  1.5104 -0.7463  2.2128
   21SAPC  H12B 2692   4.792   0.610  10.984  0.8551 -0.9801 -0.4873
   21SAPC   C13 2693   4.697   0.337  11.156 -0.1501  0.0086  0.2226
   21SAPC  H13A 2694   4.739   0.258  11.097  0.8847 -2.0794  3.4591
   21SAPC  H13B 2695   4.702   0.295  11.256  0.8350 -0.5892 -0.0646
   21SAPC  H13C 2696   4.594   0.354  11.128 -0.2328 -0.7882  0.0215
   21SAPC   C14 2697   4.894   0.466  11.183 -1.4228 -0.2756  0.1427
   21SAPC  H14A 2698   4.941   0.563  11.187 -1.7476 -0.1537  1.6968
   21SAPC  H14B 2699   4.906   0.426  11.283  0.7709  1.2988  0.5825
   21SAPC  H14C 2700   4.958   0.411  11.115 -0.0992  0.9188  0.3788
   21SAPC   C15 2701   4.690   0.566  11.223 -0.5182 -0.1773  0.4049
   21SAPC  H15A 2702   4.592   0.597  11.188  0.9201  4.4405 -0.1996
   21SAPC  H15B 2703   4.684   0.532  11.326 -2.4345 -2.8447 -0.4798
   21SAPC  H15C 2704   4.745   0.659  11.218 -0.0002 -0.4229  1.2278
   21SAPC   C11 2705   4.623   0.522  10.909  1.0517  0.0262  0.0133
   21SAPC  H11A 2706   4.648   0.568  10.811  2.0763  0.1845  0.3367
   21SAPC  H11B 2707   4.564   0.584  10.980 -0.0302 -0.6759 -0.2537
   21SAPC     P 2708   4.407   0.367  10.890 -0.1021  0.5151  0.2217
   21SAPC   O13 2709   4.374   0.234  10.830  0.4512  0.2255 -0.0073
   21SAPC   O14 2710   4.370   0.391  11.029 -0.3749  0.4134  0.0728
   21SAPC   O12 2711   4.565   0.396  10.883 -0.6208  0.1507  0.6019
   21SAPC   O11 2712   4.350   0.479  10.793 -0.6222  0.1037  0.3735
   21SAPC    C1 2713   4.415   0.482  10.662 -0.3397  0.6757  0.2000
   21SAPC    HA 2714   4.479   0.570  10.642  1.7789 -1.0814 -1.2490
   21SAPC    HB 2715   4.476   0.392  10.638  0.1981  1.3527 -1.0327
   21SAPC    C2 2716   4.313   0.500  10.544  0.4167  0.4395 -0.4932
   21SAPC    HS 2717   4.234   0.570  10.581 -0.8775 -1.2697  0.1446
   21SAPC   O21 2718   4.261   0.370  10.523 -0.3598  0.7110  0.1370
   21SAPC   C21 2719   4.147   0.330  10.569  0.2705 -0.5132 -0.1916
   21SAPC   O22 2720   4.068   0.398  10.629 -0.5213  0.0767 -0.6678
   21SAPC   C22 2721   4.125   0.185  10.527  0.2918 -0.7065 -0.2211
   21SAPC   H2R 2722   4.207   0.116  10.557  1.3191 -0.2669 -1.8740
   21SAPC   H2S 2723   4.029   0.142  10.564  0.4950 -1.2132 -0.2743
   21SAPC    C3 2724   4.381   0.549  10.409  0.3177 -0.4136  0.4173
   21SAPC    HX 2725   4.461   0.481  10.370  1.2299  0.6379  0.4139
   21SAPC    HY 2726   4.431   0.645  10.432 -2.5052  1.7588 -1.8696
   21SAPC   O31 2727   4.276   0.572  10.312  0.1615 -0.4433 -0.0251
   21SAPC   C31 2728   4.199   0.679  10.345  0.0191 -0.4609  0.4554
   21SAPC   O32 2729   4.217   0.761  10.433  0.4817  0.5326 -0.1300
   21SAPC   C32 2730   4.088   0.700  10.233  0.0862  0.4287  0.2791
   21SAPC   H2X 2731   3.987   0.678  10.275  0.5659 -1.8147  0.3901
   21SAPC   H2Y 2732   4.106   0.626  10.152  2.7587  2.0489 -0.7170
   21SAPC   C23 2733   4.121   0.194  10.369  0.2562  0.5355 -0.3285
   21SAPC   H3R 2734   4.204   0.254  10.326  0.1254  1.9095  1.2588
   21SAPC   H3S 2735   4.031   0.249  10.336 -1.6525 -2.3453 -0.2643
   21SAPC   C24 2736   4.120   0.055  10.301 -0.4287  0.0939 -0.5417
   21SAPC   H4R 2737   4.216   0.006  10.326  1.4333  2.6070 -2.3452
   21SAPC   H4S 2738   4.134   0.065  10.191 -0.2926 -0.9845 -0.6416
   21SAPC   C25 2739   4.009  -0.044  10.335  0.2788  0.1687 -0.0233
   21SAPC   H5R 2740   4.058  -0.131  10.382  0.6771  1.6039  2.4188
   21SAPC   C26 2741   3.881  -0.046  10.294  0.3295  0.1655  0.4498
   21SAPC   H6R 2742   3.822  -0.135  10.318 -0.3640  0.8126  1.1952
   21SAPC   C27 2743   3.818   0.053  10.203  0.4600 -0.3822  0.2916
   21SAPC   H7R 2744   3.872   0.149  10.199  1.0901 -0.7599 -1.3644
   21SAPC   H7S 2745   3.719   0.076  10.247 -0.0980 -1.4691 -0.3412
   21SAPC   C28 2746   3.795   0.010  10.059  0.0508 -0.5395 -0.2643
   21SAPC   H8R 2747   3.888  -0.025  10.011  0.3346 -2.1791  1.3953
   21SAPC   C29 2748   3.690   0.017   9.975  0.4463 -0.2092  0.0045
   21SAPC   H9R 2749   3.691  -0.029   9.875 -1.3966 -1.2422  0.4061
   21SAPC  C210 2750   3.564   0.092  10.010  0.3320 -1.0961  0.2549
   21SAPC  H10R 2751   3.531   0.163   9.930  0.2483 -2.1965 -0.7222
   21SAPC  H10S 2752   3.582   0.160  10.096  0.4163 -0.9227  0.1020
   21SAPC  C211 2753   3.464  -0.010  10.052  0.0720  0.4765  0.3001
   21SAPC  H11R 2754   3.455  -0.031  10.159 -1.9947  1.3572  0.3458
   21SAPC  C212 2755   3.372  -0.053   9.963 -0.3983 -0.0116  0.2662
   21SAPC  H12R 2756   3.309  -0.135  10.001  0.2604 -0.4677  0.3941
   21SAPC  C213 2757   3.361  -0.021   9.816 -0.0870 -0.4021  0.3380
   21SAPC  H13R 2758   3.451   0.021   9.767  0.9561 -2.9111 -0.0404
   21SAPC  H13S 2759   3.270   0.043   9.807 -1.8222 -2.7147  0.5380
   21SAPC  C214 2760   3.327  -0.142   9.734  0.3190  0.1800 -0.5034
   21SAPC  H14R 2761   3.223  -0.180   9.735  0.5088 -0.5963 -2.8609
   21SAPC  C215 2762   3.413  -0.208   9.653  0.4534  0.1001  0.4054
   21SAPC  H15R 2763   3.371  -0.300   9.611 -2.2719  0.3423  2.3389
   21SAPC  C216 2764   3.560  -0.183   9.633  0.0474 -0.2320 -0.1950
   21SAPC  H16R 2765   3.619  -0.278   9.633  0.7493  0.1425  2.2462
   21SAPC  H16S 2766   3.604  -0.120   9.712 -1.8046  0.9461 -0.0287
   21SAPC  C217 2767   3.596  -0.098   9.497  0.0568 -0.0447 -0.3380
   21SAPC  H17R 2768   3.523  -0.016   9.510  0.6968  0.3991  0.6302
   21SAPC  H17S 2769   3.569  -0.160   9.409  1.8839  0.2163 -1.1397
   21SAPC  C218 2770   3.736  -0.053   9.482 -1.2171 -0.1515  0.2536
   21SAPC  H18R 2771   3.778  -0.109   9.396  0.3039 -0.4193  1.1410
   21SAPC  H18S 2772   3.787  -0.095   9.571  0.9725 -2.5424 -1.9599
   21SAPC  C219 2773   3.765   0.102   9.470 -0.2827  0.0908  0.1171
   21SAPC  H19R 2774   3.870   0.135   9.459 -0.2198  0.8490  2.4523
   21SAPC  H19S 2775   3.739   0.133   9.573 -0.6024 -0.0976  0.0937
   21SAPC  C220 2776   3.678   0.187   9.370 -0.2145 -0.0022  0.6006
   21SAPC  H20R 2777   3.711   0.166   9.266  0.0955  1.5605  0.3576
   21SAPC  H20S 2778   3.705   0.293   9.390  0.8815 -0.3323  0.9710
   21SAPC  H20T 2779   3.568   0.172   9.370 -0.3426  0.5677 -1.7093
   21SAPC   C33 2780   4.083   0.844  10.175 -0.7216  0.1288  0.2188
   21SAPC   H3X 2781   4.180   0.885  10.140 -0.9533  1.0168  0.6167
   21SAPC   H3Y 2782   4.052   0.903  10.263 -1.6080  1.1488 -0.7567
   21SAPC   C34 2783   3.980   0.854  10.068  0.3674 -0.3680 -0.1500
   21SAPC   H4X 2784   3.935   0.955  10.068 -0.2998 -0.6578 -0.9786
   21SAPC   H4Y 2785   3.889   0.791  10.073  0.6547 -0.8229 -0.4747
   21SAPC   C35 2786   4.046   0.837   9.935  0.7540  0.7666 -0.3816
   21SAPC   H5X 2787   4.081   0.732   9.931 -3.8847 -1.0210 -1.4946
   21SAPC   H5Y 2788   4.136   0.901   9.932  0.3851  1.2411 -2.7114
   21SAPC   C36 2789   3.960   0.872   9.803 -0.0758  0.2264  0.0724
   21SAPC   H6X 2790   3.931   0.980   9.799 -1.0108 -0.0282 -0.2097
   21SAPC   H6Y 2791   3.871   0.806   9.813 -0.2356  0.5627  0.8942
   21SAPC   C37 2792   4.031   0.830   9.668 -0.3315 -0.0413  0.5758
   21SAPC   H7X 2793   4.006   0.722   9.659  0.4760 -0.3183  1.6046
   21SAPC   H7Y 2794   4.141   0.834   9.676 -0.3762  2.0381  0.6098
   21SAPC   C38 2795   3.985   0.903   9.549  0.2323  0.2411 -0.1375
   21SAPC   H8X 2796   4.003   1.012   9.562 -1.1164  0.3354  1.3038
   21SAPC   H8Y 2797   3.874   0.892   9.543  0.2536 -0.6746  0.9569
   21SAPC   C39 2798   4.043   0.835   9.427 -0.1743  0.7435  0.0852
   21SAPC   H9X 2799   3.986   0.742   9.405  1.9092 -0.7328  0.6709
   21SAPC   H9Y 2800   4.146   0.800   9.443 -0.0163  0.5676 -1.2134
   21SAPC  C310 2801   4.041   0.933   9.306  0.2550  0.9674 -0.1112
   21SAPC  H10X 2802   4.065   1.039   9.327 -0.7081  1.1476  0.1381
   21SAPC  H10Y 2803   3.938   0.932   9.262  0.5633  0.4439 -0.8515
   21SAPC  C311 2804   4.134   0.876   9.191  0.3527 -0.4353  0.0481
   21SAPC  H11X 2805   4.118   0.767   9.173  0.1416 -0.3046 -0.5860
   21SAPC  H11Y 2806   4.237   0.898   9.227  0.4650  0.3232 -0.7045
   21SAPC  C312 2807   4.106   0.959   9.064  0.9517 -0.7946 -0.3476
   21SAPC  H12X 2808   4.159   1.057   9.064 -2.6058  1.3064 -0.4469
   21SAPC  H12Y 2809   3.996   0.962   9.049  0.7348 -0.6330  1.1266
   21SAPC  C313 2810   4.152   0.884   8.936 -0.5839 -0.0195 -0.1782
   21SAPC  H13X 2811   4.090   0.792   8.933 -0.1518 -0.4383  2.1092
   21SAPC  H13Y 2812   4.256   0.851   8.957 -0.5100  0.7660  0.7315
   21SAPC  C314 2813   4.152   0.962   8.805 -0.3451 -0.1412  0.7413
   21SAPC  H14X 2814   4.180   1.068   8.819 -0.9843  0.0062  0.9575
   21SAPC  H14Y 2815   4.044   0.975   8.785 -0.6332 -2.5472  0.4623
   21SAPC  C315 2816   4.205   0.887   8.683 -0.3103  0.1991  0.9014
   21SAPC  H15X 2817   4.191   0.933   8.583 -0.2014 -2.4504 -0.4153
   21SAPC  H15Y 2818   4.143   0.795   8.675  1.2101 -0.7639 -0.2910
   21SAPC  C316 2819   4.353   0.847   8.673 -0.4968 -0.0784 -0.7669
   21SAPC  H16X 2820   4.356   0.754   8.613  1.2124 -0.3561 -0.2966
   21SAPC  H16Y 2821   4.393   0.821   8.773 -2.1168 -2.9627 -0.7571
   21SAPC  C317 2822   4.467   0.950   8.636 -0.1148 -0.1049  0.4386
   21SAPC  H17X 2823   4.492   1.018   8.720  2.8586  0.5107 -0.8027
   21SAPC  H17Y 2824   4.442   1.011   8.547  0.3854  0.2378  0.5266
   21SAPC  C318 2825   4.594   0.871   8.598 -0.1228 -0.4521  0.0628
   21SAPC  H18X 2826   4.632   0.812   8.684  0.9891 -0.1959 -0.2372
   21SAPC  H18Y 2827   4.681   0.936   8.574 -0.7232  0.0228 -0.8901
   21SAPC  H18Z 2828   4.580   0.808   8.507  1.4705  0.9521 -1.2341
   22SAPC     N 2829   2.670   2.346  10.829  0.5222  0.1047  0.2582
   22SAPC   C12 2830   2.556   2.401  10.910 -0.1935  0.3572 -0.3834
   22SAPC  H12A 2831   2.557   2.358  11.010 -1.1847  0.3294 -0.3748
   22SAPC  H12B 2832   2.461   2.363  10.874  0.5648 -1.2647 -0.7546
   22SAPC   C13 2833   2.635   2.367  10.685 -0.2259  0.0404  0.2738
   22SAPC  H13A 2834   2.717   2.330  10.627 -2.6008 -2.7739 -1.5890
   22SAPC  H13B 2835   2.550   2.308  10.652  1.8177 -2.8197 -0.2375
   22SAPC  H13C 2836   2.624   2.474  10.676  1.1709  0.4865  2.9928
   22SAPC   C14 2837   2.802   2.417  10.866  0.8758 -0.5972  0.4305
   22SAPC  H14A 2838   2.793   2.521  10.838  1.3371 -0.6735 -0.0153
   22SAPC  H14B 2839   2.824   2.411  10.971 -0.1572 -0.8075  0.6448
   22SAPC  H14C 2840   2.888   2.386  10.810  0.8657  0.3365 -0.1281
   22SAPC   C15 2841   2.669   2.202  10.852 -0.4158 -0.0452 -0.7014
   22SAPC  H15A 2842   2.584   2.149  10.813 -0.7565  0.2660 -0.3825
   22SAPC  H15B 2843   2.745   2.152  10.793 -1.0235 -0.9808 -0.7009
   22SAPC  H15C 2844   2.684   2.175  10.955  0.3377 -1.0674 -1.0522
   22SAPC   C11 2845   2.537   2.554  10.909 -0.5822 -0.5015 -1.0881
   22SAPC  H11A 2846   2.626   2.602  10.956 -0.6335 -1.6388  0.2241
   22SAPC  H11B 2847   2.446   2.575  10.968 -1.2486 -3.6893 -0.8455
   22SAPC     P 2848   2.505   2.771  10.771  0.0104  0.2135 -0.3065
   22SAPC   O13 2849   2.396   2.810  10.687  0.5912 -0.1331  0.1961
   22SAPC   O14 2850   2.486   2.824  10.909  0.2368  0.6728 -0.0768
   22SAPC   O12 2851   2.514   2.610  10.779 -0.0656 -0.2738 -0.0139
   22SAPC   O11 2852   2.648   2.826  10.724  0.0384 -0.2641  0.1663
   22SAPC    C1 2853   2.748   2.748  10.663  0.3023 -0.0278  0.3648
   22SAPC    HA 2854   2.829   2.739  10.738 -0.9749 -0.9393  1.7127
   22SAPC    HB 2855   2.709   2.646  10.642  3.3277 -1.3577  0.6418
   22SAPC    C2 2856   2.780   2.809  10.525 -0.0412 -0.9617 -0.0456
   22SAPC    HS 2857   2.849   2.894  10.544 -0.6357 -0.6806  0.9483
   22SAPC   O21 2858   2.669   2.876  10.458  0.2222 -0.1319  0.4183
   22SAPC   C21 2859   2.568   2.803  10.415 -0.5448  0.2536 -0.0801
   22SAPC   O22 2860   2.546   2.685  10.434 -0.4260  0.0489  0.5829
   22SAPC   C22 2861   2.481   2.892  10.321  0.3833  0.4072 -0.5945
   22SAPC   H2R 2862   2.385   2.841  10.296  0.9717 -0.2372 -1.6346
   22SAPC   H2S 2863   2.461   2.983  10.382  3.6096 -1.0554  3.0806
   22SAPC    C3 2864   2.861   2.722  10.428  0.2844  0.3440 -0.2044
   22SAPC    HX 2865   2.811   2.625  10.408  2.0438 -1.1328  2.0060
   22SAPC    HY 2866   2.956   2.702  10.482 -0.3997 -0.3808  0.7697
   22SAPC   O31 2867   2.888   2.795  10.309  0.2683  0.2232  0.2184
   22SAPC   C31 2868   2.892   2.732  10.196 -0.2461  0.5035 -0.2952
   22SAPC   O32 2869   2.892   2.612  10.183  0.0093 -0.0144 -0.1634
   22SAPC   C32 2870   2.913   2.845  10.093  0.4698  0.3119 -0.1792
   22SAPC   H2X 2871   3.017   2.884  10.107  0.6723  0.4672 -1.8979
   22SAPC   H2Y 2872   2.845   2.923  10.133 -0.2633 -0.1650 -0.4956
   22SAPC   C23 2873   2.554   2.930  10.187  0.4184  0.8972 -0.3175
   22SAPC   H3R 2874   2.599   2.840  10.140  0.4291  1.2240 -0.9481
   22SAPC   H3S 2875   2.632   3.004  10.219 -1.4067  1.9048  2.1224
   22SAPC   C24 2876   2.457   2.995  10.089 -0.1585 -0.6680  0.0383
   22SAPC   H4R 2877   2.419   3.090  10.132  1.3779 -0.8175  1.8914
   22SAPC   H4S 2878   2.370   2.926  10.091 -0.1111 -0.7142  0.6043
   22SAPC   C25 2879   2.505   3.019   9.946  0.0848 -0.0149  0.3025
   22SAPC   H5R 2880   2.568   3.107   9.927 -1.4308  0.5315 -2.8775
   22SAPC   C26 2881   2.477   2.944   9.840  0.8472 -0.3782 -0.2332
   22SAPC   H6R 2882   2.526   2.971   9.745 -1.8928 -1.3272 -2.0523
   22SAPC   C27 2883   2.392   2.822   9.824  0.1820 -0.4992  0.1900
   22SAPC   H7R 2884   2.288   2.838   9.860 -0.3866 -2.1237 -0.6649
   22SAPC   H7S 2885   2.427   2.738   9.887 -0.6120  0.5667  2.1516
   22SAPC   C28 2886   2.400   2.770   9.675  0.4770 -0.5759 -0.0360
   22SAPC   H8R 2887   2.503   2.770   9.637 -0.0642 -0.0766 -1.5920
   22SAPC   C29 2888   2.297   2.757   9.587  0.4612 -1.0569 -0.3223
   22SAPC   H9R 2889   2.320   2.734   9.481 -1.5104  3.5637 -2.0089
   22SAPC  C210 2890   2.145   2.778   9.606  0.4203 -0.5044  0.3884
   22SAPC  H10R 2891   2.125   2.792   9.714  5.1714  0.0997  1.4358
   22SAPC  H10S 2892   2.091   2.685   9.577  0.3012 -0.1348 -0.6112
   22SAPC  C211 2893   2.089   2.898   9.527  0.1106  0.8359 -0.2004
   22SAPC  H11R 2894   2.094   2.997   9.576  1.5329  0.4716  0.4476
   22SAPC  C212 2895   2.036   2.896   9.407 -0.1078  1.0157  0.9307
   22SAPC  H12R 2896   1.988   2.988   9.369  0.5692  2.1302  2.6641
   22SAPC  C213 2897   2.013   2.772   9.319 -0.4158 -0.2186 -0.3411
   22SAPC  H13R 2898   1.906   2.748   9.306 -0.2962 -0.2105 -1.4664
   22SAPC  H13S 2899   2.059   2.681   9.362 -1.5912 -0.1216  1.2197
   22SAPC  C214 2900   2.075   2.814   9.183  0.1324  0.5866 -0.7817
   22SAPC  H14R 2901   2.180   2.846   9.193  0.3654 -0.1710 -0.7883
   22SAPC  C215 2902   2.008   2.827   9.067 -0.4354  0.4886  0.0450
   22SAPC  H15R 2903   2.065   2.869   8.983 -0.2681  4.5052  1.9273
   22SAPC  C216 2904   1.866   2.783   9.041  0.1755  0.0284 -0.2138
   22SAPC  H16R 2905   1.810   2.876   9.022 -0.4131  0.2730  2.2947
   22SAPC  H16S 2906   1.829   2.723   9.127 -1.8151  1.8892  0.3074
   22SAPC  C217 2907   1.853   2.686   8.912 -0.4921  0.0747 -0.7049
   22SAPC  H17R 2908   1.744   2.667   8.898 -1.1530  2.8600  0.0692
   22SAPC  H17S 2909   1.903   2.588   8.927  2.5619  1.3427 -1.7950
   22SAPC  C218 2910   1.915   2.738   8.785  0.0274 -0.6147  0.4082
   22SAPC  H18R 2911   1.917   2.654   8.712 -2.0455 -1.0551  0.7848
   22SAPC  H18S 2912   2.021   2.764   8.803 -0.0571 -0.0922  0.1982
   22SAPC  C219 2913   1.831   2.862   8.727 -0.6332 -0.0227  0.1400
   22SAPC  H19R 2914   1.829   2.935   8.811 -1.5260  0.6341 -0.4372
   22SAPC  H19S 2915   1.730   2.829   8.697  0.5448 -2.1606 -1.8762
   22SAPC  C220 2916   1.893   2.944   8.610  0.1146  0.3710 -0.3879
   22SAPC  H20R 2917   1.967   3.016   8.650  2.1310 -0.7673 -1.8805
   22SAPC  H20S 2918   1.811   2.992   8.553 -1.0637 -1.7713 -0.6086
   22SAPC  H20T 2919   1.947   2.875   8.542 -0.6321  1.9363 -2.6745
   22SAPC   C33 2920   2.884   2.813   9.943 -0.0748 -1.1238  0.0440
   22SAPC   H3X 2921   2.779   2.777   9.945 -0.8770  0.7504 -2.4172
   22SAPC   H3Y 2922   2.953   2.740   9.897  0.0750 -0.9882  0.0526
   22SAPC   C34 2923   2.873   2.939   9.854  0.1319  0.1203  0.3374
   22SAPC   H4X 2924   2.977   2.975   9.837 -0.1718 -0.6958 -4.8498
   22SAPC   H4Y 2925   2.818   3.017   9.912  0.7689  0.5637  0.3567
   22SAPC   C35 2926   2.806   2.927   9.715  0.0202 -0.4580 -0.5451
   22SAPC   H5X 2927   2.710   2.874   9.730  1.1495 -2.1679  1.2112
   22SAPC   H5Y 2928   2.866   2.873   9.638 -0.3206  1.0080 -1.8947
   22SAPC   C36 2929   2.763   3.061   9.648  0.3705  0.1168 -0.2023
   22SAPC   H6X 2930   2.707   3.115   9.727  1.4575  0.1534  0.5770
   22SAPC   H6Y 2931   2.708   3.041   9.554  1.1946 -0.2269 -0.6275
   22SAPC   C37 2932   2.879   3.152   9.603 -0.1673  0.2257 -0.5111
   22SAPC   H7X 2933   2.925   3.201   9.692 -0.2354 -1.1081  0.2921
   22SAPC   H7Y 2934   2.846   3.244   9.551 -0.0892  1.2264  1.1252
   22SAPC   C38 2935   2.993   3.087   9.514 -0.2282 -0.7423 -0.1098
   22SAPC   H8X 2936   3.024   3.000   9.576  0.7435 -1.1798 -1.1831
   22SAPC   H8Y 2937   3.078   3.153   9.486 -0.9488 -0.6400 -2.1897
   22SAPC   C39 2938   2.948   3.045   9.372  0.2329 -0.4681 -0.0438
   22SAPC   H9X 2939   2.868   2.970   9.387 -1.1774  0.6011 -1.8515
   22SAPC   H9Y 2940   3.029   2.984   9.327 -2.2245 -4.6700  0.6672
   22SAPC  C310 2941   2.905   3.166   9.283 -0.1973 -0.8590  0.1376
   22SAPC  H10X 2942   2.979   3.246   9.303  0.7520 -2.3062  3.0551
   22SAPC  H10Y 2943   2.809   3.213   9.312  0.6076 -0.1584  1.8412
   22SAPC  C311 2944   2.896   3.131   9.135 -1.4964  0.7563 -0.4786
   22SAPC  H11X 2945   2.828   3.044   9.121 -1.1969  0.6759 -1.5705
   22SAPC  H11Y 2946   3.002   3.101   9.117 -1.3677  1.4699 -0.9812
   22SAPC  C312 2947   2.846   3.240   9.046 -0.0747  0.5151  0.5593
   22SAPC  H12X 2948   2.916   3.327   9.042  1.8978 -1.0217 -0.8048
   22SAPC  H12Y 2949   2.750   3.276   9.089  1.3481  0.3203  4.2072
   22SAPC  C313 2950   2.835   3.184   8.900  0.2277  0.3693  0.2180
   22SAPC  H13X 2951   2.774   3.092   8.908  0.3032  0.3815  1.0290
   22SAPC  H13Y 2952   2.938   3.156   8.869  0.6047  0.1289  1.6121
   22SAPC  C314 2953   2.771   3.268   8.795  0.0346  0.6379  0.3183
   22SAPC  H14X 2954   2.830   3.360   8.778  2.4140 -1.0144 -0.9221
   22SAPC  H14Y 2955   2.678   3.306   8.843 -0.0698  1.1284 -0.2634
   22SAPC  C315 2956   2.757   3.197   8.660  0.1703 -0.6209 -0.4501
   22SAPC  H15X 2957   2.701   3.103   8.679 -0.9372  0.5812  2.9415
   22SAPC  H15Y 2958   2.858   3.169   8.621  0.1492 -0.2132 -0.8029
   22SAPC  C316 2959   2.695   3.288   8.553  0.2545  0.0353 -0.7284
   22SAPC  H16X 2960   2.741   3.386   8.580 -0.9222  0.3235  0.3127
   22SAPC  H16Y 2961   2.584   3.285   8.557  0.2383 -1.8516 -1.5887
   22SAPC  C317 2962   2.736   3.246   8.411 -0.0739  0.2792  0.9380
   22SAPC  H17X 2963   2.846   3.227   8.415 -0.5733 -3.1443  2.2001
   22SAPC  H17Y 2964   2.723   3.331   8.342 -2.9992 -1.0995 -0.3862
   22SAPC  C318 2965   2.672   3.119   8.355  0.4710  0.9283  0.1806
   22SAPC  H18X 2966   2.572   3.144   8.313  0.5216  1.6548  0.4766
   22SAPC  H18Y 2967   2.654   3.045   8.436 -1.1456  2.0841  0.9341
   22SAPC  H18Z 2968   2.740   3.065   8.285  0.4468  0.2376  0.6823
   23SAPC     N 2969   5.620   4.244  11.003 -0.5510 -0.1435 -0.2186
   23SAPC   C12 2970   5.473   4.238  11.035  0.0042 -0.0801  0.0659
   23SAPC  H12A 2971   5.461   4.222  11.141  0.0788 -0.9271 -0.0475
   23SAPC  H12B 2972   5.423   4.150  10.996 -0.8206 -0.0173  0.9512
   23SAPC   C13 2973   5.635   4.275  10.859 -1.0017 -0.3775  0.4915
   23SAPC  H13A 2974   5.737   4.290  10.828 -1.4025 -3.4662 -3.0072
   23SAPC  H13B 2975   5.591   4.197  10.798  1.3278 -1.3773 -0.0386
   23SAPC  H13C 2976   5.584   4.366  10.832 -0.4247 -1.0035 -3.2687
   23SAPC   C14 2977   5.682   4.362  11.072 -0.4983 -0.3701  0.6865
   23SAPC  H14A 2978   5.781   4.386  11.035 -0.1964 -1.0671  1.0435
   23SAPC  H14B 2979   5.610   4.443  11.064  0.6785  0.6962  0.5446
   23SAPC  H14C 2980   5.688   4.351  11.179  0.9336  1.1523  0.8029
   23SAPC   C15 2981   5.699   4.119  11.034 -0.2546 -0.2021  0.5308
   23SAPC  H15A 2982   5.702   4.100  11.140 -3.0771 -1.0012  0.5554
   23SAPC  H15B 2983   5.658   4.034  10.981 -2.2548  0.6547  0.5977
   23SAPC  H15C 2984   5.802   4.130  11.005 -0.7075  1.5043 -0.5294
   23SAPC   C11 2985   5.384   4.364  10.989 -0.0757 -0.1759  0.5925
   23SAPC  H11A 2986   5.442   4.454  11.021  3.1615 -2.8381  2.9257
   23SAPC  H11B 2987   5.289   4.365  11.046  0.6583 -0.4380  1.8639
   23SAPC     P 2988   5.240   4.272  10.797  0.3733 -0.3955 -0.1599
   23SAPC   O13 2989   5.192   4.190  10.904  0.4524  0.4076 -0.4494
   23SAPC   O14 2990   5.146   4.374  10.742  0.5981 -0.0550  1.2127
   23SAPC   O12 2991   5.365   4.360  10.848  0.3641  0.0575  0.2031
   23SAPC   O11 2992   5.309   4.181  10.690 -0.7073  0.0960 -0.5891
   23SAPC    C1 2993   5.406   4.232  10.598 -0.3268 -0.5967 -0.0204
   23SAPC    HA 2994   5.472   4.308  10.645 -0.7010 -1.0876  1.3349
   23SAPC    HB 2995   5.474   4.155  10.557  0.5241  0.2029 -0.1542
   23SAPC    C2 2996   5.336   4.297  10.476 -0.1335 -0.0581 -0.0902
   23SAPC    HS 2997   5.330   4.402  10.512 -0.9426 -0.5986  1.4456
   23SAPC   O21 2998   5.206   4.236  10.457  0.5237  0.2242 -0.1836
   23SAPC   C21 2999   5.120   4.321  10.396  0.1129 -1.1992 -0.0228
   23SAPC   O22 3000   5.148   4.440  10.378  0.1979  0.3178 -0.5055
   23SAPC   C22 3001   4.995   4.244  10.348 -0.2819 -0.1538  0.2522
   23SAPC   H2R 3002   5.015   4.135  10.345  1.1502  0.0937 -1.9387
   23SAPC   H2S 3003   4.910   4.276  10.412  0.1079  3.0124 -0.6303
   23SAPC    C3 3004   5.432   4.283  10.358 -0.2810 -0.0093  0.2686
   23SAPC    HX 3005   5.452   4.175  10.339  0.9792  0.4678 -1.3532
   23SAPC    HY 3006   5.529   4.330  10.382  0.4185 -1.3313  0.1249
   23SAPC   O31 3007   5.376   4.337  10.235 -0.0065 -0.7733  0.2927
   23SAPC   C31 3008   5.404   4.459  10.202  0.5381 -0.6413 -0.4537
   23SAPC   O32 3009   5.480   4.532  10.264  0.1618 -0.2067 -0.2051
   23SAPC   C32 3010   5.328   4.497  10.074  0.5601  0.3792 -0.1335
   23SAPC   H2X 3011   5.348   4.602  10.042  1.4173  0.0330 -0.7726
   23SAPC   H2Y 3012   5.219   4.489  10.095  0.8282 -0.7083  0.9217
   23SAPC   C23 3013   4.964   4.287  10.206 -0.3370 -0.5459  0.4584
   23SAPC   H3R 3014   4.990   4.393  10.187 -2.9481 -0.1047 -1.1802
   23SAPC   H3S 3015   4.854   4.279  10.187 -0.6036  1.1198  1.1566
   23SAPC   C24 3016   5.036   4.201  10.101 -0.4363  0.3669  0.1094
   23SAPC   H4R 3017   5.014   4.092  10.096  0.4933  0.1295  0.9592
   23SAPC   H4S 3018   5.137   4.193  10.146 -0.4449  0.2608  0.1110
   23SAPC   C25 3019   5.048   4.248   9.959  0.0481 -0.1515 -0.2414
   23SAPC   H5R 3020   5.009   4.350   9.953 -1.2721 -0.5273  1.4018
   23SAPC   C26 3021   5.076   4.170   9.850  0.2515  0.1819  0.2215
   23SAPC   H6R 3022   5.047   4.212   9.753  3.1729  2.2719  0.1330
   23SAPC   C27 3023   5.113   4.024   9.850 -0.0720 -0.3540 -0.2244
   23SAPC   H7R 3024   5.026   3.961   9.821  0.0641 -0.6359 -0.0213
   23SAPC   H7S 3025   5.147   3.991   9.951 -0.3165  0.5341  0.1586
   23SAPC   C28 3026   5.229   3.996   9.764 -0.8790  0.0193 -0.3860
   23SAPC   H8R 3027   5.323   4.044   9.796 -0.9887  0.1079 -0.1966
   23SAPC   C29 3028   5.237   3.906   9.659 -0.2133 -0.6288 -0.2064
   23SAPC   H9R 3029   5.332   3.914   9.604  0.0940 -0.7392  0.3008
   23SAPC  C210 3030   5.127   3.822   9.610  0.1331  0.4781 -0.0110
   23SAPC  H10R 3031   5.057   3.785   9.688 -0.3971 -0.4245 -0.8859
   23SAPC  H10S 3032   5.168   3.735   9.553 -0.4631 -0.1760  0.5279
   23SAPC  C211 3033   5.037   3.902   9.522 -0.2377 -0.5976  0.8136
   23SAPC  H11R 3034   5.011   4.001   9.562  1.2967  1.7864 -3.4717
   23SAPC  C212 3035   4.991   3.870   9.397  0.0052  0.5908  0.9684
   23SAPC  H12R 3036   4.920   3.937   9.346  1.2054 -0.9423 -3.1113
   23SAPC  C213 3037   5.015   3.742   9.322 -0.1728  0.3004  0.0821
   23SAPC  H13R 3038   4.944   3.730   9.237  1.7196  1.5896 -1.8023
   23SAPC  H13S 3039   4.991   3.657   9.389  1.8597 -1.2492 -1.0632
   23SAPC  C214 3040   5.152   3.724   9.264 -0.8061  0.2599 -0.3710
   23SAPC  H14R 3041   5.220   3.804   9.297  1.8035 -1.8472 -0.2594
   23SAPC  C215 3042   5.187   3.620   9.187  0.3232  0.2559  0.2389
   23SAPC  H15R 3043   5.281   3.627   9.129  0.8471 -1.7025  0.7723
   23SAPC  C216 3044   5.090   3.506   9.149 -0.3309 -0.2123  0.5588
   23SAPC  H16R 3045   4.986   3.512   9.186 -0.2061  0.1132  0.8665
   23SAPC  H16S 3046   5.143   3.412   9.175 -1.1930 -1.9587 -3.2711
   23SAPC  C217 3047   5.065   3.492   8.992 -0.0252 -0.4078 -0.4145
   23SAPC  H17R 3048   5.160   3.462   8.943 -0.1948 -0.7205 -0.5541
   23SAPC  H17S 3049   5.027   3.581   8.938 -1.8554 -0.4203  0.7499
   23SAPC  C218 3050   4.967   3.378   8.965 -0.2575 -0.5902 -0.4390
   23SAPC  H18R 3051   4.870   3.428   8.982  1.5567  3.3581 -0.5801
   23SAPC  H18S 3052   4.987   3.287   9.026 -0.1330  0.3594  0.9944
   23SAPC  C219 3053   4.966   3.345   8.811  0.2982 -0.0066 -0.0763
   23SAPC  H19R 3054   4.954   3.436   8.747  1.9122  2.1684  2.4930
   23SAPC  H19S 3055   4.866   3.297   8.818  0.5476 -0.2731  3.7997
   23SAPC  C220 3056   5.073   3.256   8.748 -0.0211 -0.5802  0.1345
   23SAPC  H20R 3057   5.046   3.235   8.643  0.9742  0.4377 -0.3373
   23SAPC  H20S 3058   5.086   3.159   8.802  1.4881 -0.4502  0.0574
   23SAPC  H20T 3059   5.169   3.312   8.745 -0.1625 -0.0841  2.6422
   23SAPC   C33 3060   5.354   4.388   9.973 -0.3784  0.1232 -0.0929
   23SAPC   H3X 3061   5.295   4.406   9.881 -1.6496  2.7473  1.1242
   23SAPC   H3Y 3062   5.307   4.295  10.012  1.8932  0.0082  2.7065
   23SAPC   C34 3063   5.503   4.376   9.938 -0.3601  0.2590  0.4420
   23SAPC   H4X 3064   5.558   4.359  10.032  0.7356  3.6001  0.5330
   23SAPC   H4Y 3065   5.541   4.472   9.897 -0.3707  0.2844  0.4922
   23SAPC   C35 3066   5.549   4.253   9.848  1.1604  0.3399 -1.2251
   23SAPC   H5X 3067   5.504   4.168   9.904  0.6973  1.7936  0.7476
   23SAPC   H5Y 3068   5.657   4.235   9.864  0.3519 -1.6817  3.8335
   23SAPC   C36 3069   5.519   4.258   9.699 -0.0837 -0.2024  0.2534
   23SAPC   H6X 3070   5.552   4.359   9.666  1.6393 -1.4642 -2.2335
   23SAPC   H6Y 3071   5.409   4.258   9.682 -0.1167 -2.0588  0.2531
   23SAPC   C37 3072   5.601   4.152   9.623 -0.0532 -0.9452  0.3064
   23SAPC   H7X 3073   5.556   4.050   9.610 -1.0978 -0.3678 -0.8352
   23SAPC   H7Y 3074   5.699   4.144   9.675  0.2167  0.6192  0.0714
   23SAPC   C38 3075   5.637   4.185   9.480  0.4510  0.0016 -0.0261
   23SAPC   H8X 3076   5.692   4.095   9.445  0.4212 -0.1659  0.3436
   23SAPC   H8Y 3077   5.692   4.281   9.473  0.4361 -0.1193 -2.8103
   23SAPC   C39 3078   5.500   4.207   9.395 -0.4340 -0.2313 -0.4630
   23SAPC   H9X 3079   5.436   4.278   9.451 -0.6904 -1.1507  0.4300
   23SAPC   H9Y 3080   5.445   4.112   9.404  0.1297 -0.4322  1.4179
   23SAPC  C310 3081   5.518   4.248   9.249  0.4670 -0.5966 -0.1488
   23SAPC  H10X 3082   5.605   4.192   9.209  0.5761 -1.6713  1.4870
   23SAPC  H10Y 3083   5.545   4.356   9.241  1.6816 -0.7124  1.6861
   23SAPC  C311 3084   5.393   4.218   9.164  0.5576  0.4435  0.1057
   23SAPC  H11X 3085   5.356   4.315   9.124  0.4273  0.7913  1.0334
   23SAPC  H11Y 3086   5.317   4.170   9.230  0.2758  0.1966 -0.4006
   23SAPC  C312 3087   5.427   4.110   9.053 -0.1629  0.1360  0.9115
   23SAPC  H12X 3088   5.452   4.009   9.092 -0.4389 -0.8969 -1.3716
   23SAPC  H12Y 3089   5.515   4.136   8.991 -0.3076 -1.3627  0.0006
   23SAPC  C313 3090   5.304   4.086   8.956  0.3460  0.0914  0.0387
   23SAPC  H13X 3091   5.343   4.053   8.857  0.2879  2.7794 -0.9591
   23SAPC  H13Y 3092   5.258   4.183   8.928  0.0318 -0.5052 -1.6832
   23SAPC  C314 3093   5.204   3.989   9.026  0.0890  0.4689 -0.5750
   23SAPC  H14X 3094   5.163   4.031   9.120  1.1533 -0.3293  0.2678
   23SAPC  H14Y 3095   5.244   3.889   9.052 -0.7227 -0.8554 -3.9159
   23SAPC  C315 3096   5.099   3.938   8.922 -0.3805  0.5041  0.5434
   23SAPC  H15X 3097   5.033   3.867   8.977  1.2314 -0.4811  1.2639
   23SAPC  H15Y 3098   5.167   3.882   8.855  0.1719  0.5062  1.0963
   23SAPC  C316 3099   5.043   4.040   8.825 -0.2519 -1.3605 -0.6503
   23SAPC  H16X 3100   5.122   4.094   8.769 -1.5602  3.6384  1.7294
   23SAPC  H16Y 3101   4.985   4.118   8.879  0.6540 -0.9246 -0.2839
   23SAPC  C317 3102   4.940   3.975   8.730 -0.2349 -0.2992  0.5923
   23SAPC  H17X 3103   4.876   4.060   8.696  0.2322  0.0118  0.4815
   23SAPC  H17Y 3104   4.876   3.908   8.791  0.0606 -1.5965 -0.4789
   23SAPC  C318 3105   5.010   3.915   8.612  0.6916  0.6833  0.1389
   23SAPC  H18X 3106   4.938   3.864   8.544 -0.7024 -0.2944  2.2547
   23SAPC  H18Y 3107   5.090   3.844   8.643  0.5394  0.7470  0.6823
   23SAPC  H18Z 3108   5.057   3.989   8.543 -0.4375  1.5042  0.2321
   24SAPC     N 3109   1.125   4.607  11.260 -0.1242  0.0559 -0.0633
   24SAPC   C12 3110   1.253   4.570  11.179  0.2753 -0.0562  0.1786
   24SAPC  H12A 3111   1.255   4.462  11.180  2.4202 -0.0760  1.4908
   24SAPC  H12B 3112   1.342   4.600  11.233  0.8277  1.0727 -1.3116
   24SAPC   C13 3113   1.009   4.533  11.200  0.6317 -0.7134  0.3101
   24SAPC  H13A 3114   0.969   4.577  11.110 -0.1991  0.3076  1.1429
   24SAPC  H13B 3115   1.027   4.430  11.176 -2.3275 -1.1486 -0.3740
   24SAPC  H13C 3116   0.929   4.549  11.271 -0.2833  0.8103 -0.9854
   24SAPC   C14 3117   1.139   4.557  11.405  0.6836 -0.2958  0.9105
   24SAPC  H14A 3118   1.216   4.612  11.457 -0.2086  1.0952  0.8054
   24SAPC  H14B 3119   1.042   4.571  11.452 -0.5272 -0.7439 -1.3484
   24SAPC  H14C 3120   1.158   4.451  11.416  1.8099 -0.0411  1.5427
   24SAPC   C15 3121   1.109   4.757  11.260 -0.8169  0.4904 -0.0756
   24SAPC  H15A 3122   1.132   4.796  11.358  0.4152  1.7328 -0.8046
   24SAPC  H15B 3123   1.184   4.800  11.194  0.5563 -2.2944 -0.4744
   24SAPC  H15C 3124   1.007   4.787  11.244 -1.9045 -2.3777  0.8554
   24SAPC   C11 3125   1.266   4.621  11.036  0.5988  0.6195 -0.1859
   24SAPC  H11A 3126   1.167   4.606  10.988 -0.2711  3.0361  0.7244
   24SAPC  H11B 3127   1.330   4.566  10.964 -1.5731 -1.1859 -0.8606
   24SAPC     P 3128   1.441   4.811  11.045 -0.6648  0.3519 -0.1979
   24SAPC   O13 3129   1.446   4.955  11.081  0.3079 -0.1424 -0.0805
   24SAPC   O14 3130   1.516   4.724  11.138 -0.0011  0.3090 -0.1462
   24SAPC   O12 3131   1.292   4.765  11.043 -0.3602  0.3982  0.4343
   24SAPC   O11 3132   1.493   4.792  10.894  0.1024 -0.3040  0.3963
   24SAPC    C1 3133   1.413   4.743  10.778 -0.5957 -0.3205 -1.2412
   24SAPC    HA 3134   1.413   4.633  10.766 -2.1242 -0.4155 -0.6129
   24SAPC    HB 3135   1.307   4.776  10.776 -1.0150 -1.5831 -0.6807
   24SAPC    C2 3136   1.470   4.787  10.642  0.5976 -0.6880  0.1974
   24SAPC    HS 3137   1.569   4.743  10.617 -0.0453 -1.4070 -1.2366
   24SAPC   O21 3138   1.475   4.929  10.634  0.0021 -0.5090 -0.2772
   24SAPC   C21 3139   1.589   4.990  10.596  0.0571  0.3484 -0.3534
   24SAPC   O22 3140   1.692   4.930  10.567 -0.1000 -0.1060  0.5785
   24SAPC   C22 3141   1.571   5.142  10.617  0.5740  0.3457  0.0915
   24SAPC   H2R 3142   1.476   5.167  10.565  0.9764 -0.5069 -1.1014
   24SAPC   H2S 3143   1.562   5.157  10.727 -0.2637 -1.3474  0.2845
   24SAPC    C3 3144   1.377   4.718  10.537  0.5341 -0.0244  0.3123
   24SAPC    HX 3145   1.276   4.755  10.565 -0.0645 -1.6862  0.4010
   24SAPC    HY 3146   1.372   4.610  10.560  1.0910 -0.1057  0.0713
   24SAPC   O31 3147   1.404   4.753  10.399 -0.1209  0.3265 -0.4282
   24SAPC   C31 3148   1.493   4.687  10.333  0.4312  0.3737 -0.2873
   24SAPC   O32 3149   1.560   4.597  10.385  0.7350 -0.7159 -0.3310
   24SAPC   C32 3150   1.502   4.732  10.187 -0.1206  0.6158 -0.0898
   24SAPC   H2X 3151   1.504   4.843  10.183 -0.0171  0.6462  0.5911
   24SAPC   H2Y 3152   1.403   4.702  10.146 -0.1211 -0.9432  0.9643
   24SAPC   C23 3153   1.694   5.231  10.569  0.5344  0.1816  0.3514
   24SAPC   H3R 3154   1.763   5.168  10.509  1.8418  1.4198  0.4966
   24SAPC   H3S 3155   1.747   5.268  10.660  1.8449  0.4832 -0.5026
   24SAPC   C24 3156   1.651   5.362  10.489  0.1516  0.3497 -0.4311
   24SAPC   H4R 3157   1.740   5.428  10.499 -0.5455  1.1951  0.4636
   24SAPC   H4S 3158   1.572   5.406  10.554 -0.7119 -0.6428 -0.7878
   24SAPC   C25 3159   1.606   5.344  10.351 -0.1321 -0.4721 -0.9318
   24SAPC   H5R 3160   1.497   5.362  10.344  0.0320  1.5854  0.9678
   24SAPC   C26 3161   1.675   5.313  10.244 -0.7177  0.2216  0.2729
   24SAPC   H6R 3162   1.637   5.317  10.141  2.7176 -1.3702 -1.2199
   24SAPC   C27 3163   1.825   5.288  10.244 -0.3339 -0.4118  0.5475
   24SAPC   H7R 3164   1.849   5.200  10.181  0.6244 -1.2244  1.9930
   24SAPC   H7S 3165   1.848   5.271  10.351 -0.7432  2.1620  1.1048
   24SAPC   C28 3166   1.901   5.411  10.195  0.0274 -0.5711 -0.4557
   24SAPC   H8R 3167   1.932   5.487  10.268 -1.4021  0.0628 -0.4612
   24SAPC   C29 3168   1.942   5.431  10.067 -0.1570 -0.7541  0.3520
   24SAPC   H9R 3169   1.989   5.527  10.042  1.0023 -0.9053  1.8249
   24SAPC  C210 3170   1.911   5.339   9.951 -0.2415  0.4759  0.4631
   24SAPC  H10R 3171   1.810   5.299   9.973  0.2516 -0.5560  0.8899
   24SAPC  H10S 3172   1.979   5.252   9.943 -0.5573  0.2836 -0.2189
   24SAPC  C211 3173   1.890   5.401   9.810  0.0411  0.2311 -0.4241
   24SAPC  H11R 3174   1.785   5.434   9.798 -0.2060  0.3844  1.7685
   24SAPC  C212 3175   1.979   5.405   9.708  0.6061  0.1842 -0.1817
   24SAPC  H12R 3176   1.949   5.456   9.615  0.4122  1.3097  0.4868
   24SAPC  C213 3177   2.116   5.342   9.721 -0.3827 -0.2363  0.1330
   24SAPC  H13R 3178   2.122   5.274   9.810 -2.0300 -0.6600 -0.0472
   24SAPC  H13S 3179   2.185   5.423   9.753 -1.3004  0.5780  0.1003
   24SAPC  C214 3180   2.162   5.265   9.597  0.0986 -0.5872  0.2045
   24SAPC  H14R 3181   2.185   5.158   9.605  2.3769 -0.1876 -0.3199
   24SAPC  C215 3182   2.209   5.318   9.482  0.3711 -0.0951 -0.6118
   24SAPC  H15R 3183   2.241   5.251   9.401  1.6757  1.1470 -1.1583
   24SAPC  C216 3184   2.213   5.469   9.448 -0.4763  0.1418 -1.0266
   24SAPC  H16R 3185   2.317   5.497   9.418 -0.5045 -0.3009 -1.5443
   24SAPC  H16S 3186   2.193   5.538   9.533  0.7922  0.8211 -1.2422
   24SAPC  C217 3187   2.122   5.505   9.333  0.1071 -0.1636  0.9054
   24SAPC  H17R 3188   2.110   5.614   9.316 -0.2298 -0.4789 -1.1452
   24SAPC  H17S 3189   2.020   5.466   9.354 -0.7611  0.9204 -1.0895
   24SAPC  C218 3190   2.169   5.464   9.192 -0.3845 -0.1180  0.0996
   24SAPC  H18R 3191   2.185   5.354   9.195  3.2936  0.3051  0.4036
   24SAPC  H18S 3192   2.263   5.516   9.164  0.1919 -0.6583  1.0109
   24SAPC  C219 3193   2.061   5.492   9.084 -0.3182 -0.0094  0.3663
   24SAPC  H19R 3194   2.018   5.591   9.110  0.0236  0.3099 -0.2464
   24SAPC  H19S 3195   1.990   5.408   9.070  0.5553 -0.6474 -0.4918
   24SAPC  C220 3196   2.125   5.518   8.950 -0.3505  0.2450  0.0903
   24SAPC  H20R 3197   2.049   5.523   8.869  0.3171  1.9202 -0.4845
   24SAPC  H20S 3198   2.202   5.442   8.924 -0.4959 -0.0633  0.5543
   24SAPC  H20T 3199   2.177   5.616   8.961  1.2152 -0.8467  3.9908
   24SAPC   C33 3200   1.623   4.669  10.114  0.4013  0.3132  0.4865
   24SAPC   H3X 3201   1.615   4.562  10.141 -0.1509  0.2982  0.2558
   24SAPC   H3Y 3202   1.720   4.707  10.155  1.7234 -3.8882  1.8030
   24SAPC   C34 3203   1.626   4.684   9.966  0.1684  0.2479 -0.3164
   24SAPC   H4X 3204   1.522   4.660   9.935 -0.8372  3.8148 -0.2476
   24SAPC   H4Y 3205   1.698   4.609   9.928  0.5176 -1.9738  4.1662
   24SAPC   C35 3206   1.674   4.827   9.944  0.8317  0.3168  0.3019
   24SAPC   H5X 3207   1.758   4.851  10.013 -0.0010  0.3150  1.3385
   24SAPC   H5Y 3208   1.588   4.893   9.970 -1.6579 -2.1469 -1.2414
   24SAPC   C36 3209   1.711   4.849   9.798  0.6524 -0.3761  0.0351
   24SAPC   H6X 3210   1.627   4.823   9.731  1.6316  1.3555 -1.9550
   24SAPC   H6Y 3211   1.790   4.774   9.775 -1.3396 -2.4730 -0.3120
   24SAPC   C37 3212   1.745   4.996   9.774  0.1095  0.4399  0.1430
   24SAPC   H7X 3213   1.854   5.009   9.784 -0.1917  1.0724  4.2689
   24SAPC   H7Y 3214   1.695   5.059   9.851  1.2144 -0.0158  1.2449
   24SAPC   C38 3215   1.691   5.049   9.637  0.2697  0.2044 -0.1218
   24SAPC   H8X 3216   1.582   5.027   9.648  0.3095 -0.0095 -0.1508
   24SAPC   H8Y 3217   1.732   4.975   9.565 -1.9290 -0.7379 -0.4970
   24SAPC   C39 3218   1.713   5.196   9.608  0.2542  1.0388 -0.0827
   24SAPC   H9X 3219   1.819   5.229   9.612  1.5183 -2.6896  1.3219
   24SAPC   H9Y 3220   1.672   5.261   9.688 -0.4407 -0.1982  0.5915
   24SAPC  C310 3221   1.654   5.240   9.466 -0.6426  0.9538 -0.2674
   24SAPC  H10X 3222   1.571   5.171   9.440  0.8391 -0.4611 -1.5201
   24SAPC  H10Y 3223   1.730   5.225   9.387 -1.0801  0.3264 -0.5798
   24SAPC  C311 3224   1.590   5.371   9.469  0.2723  0.1210  0.5365
   24SAPC  H11X 3225   1.571   5.402   9.364  1.0302 -0.8614  0.0950
   24SAPC  H11Y 3226   1.650   5.443   9.528  1.8939  1.5491 -2.6381
   24SAPC  C312 3227   1.448   5.370   9.529  0.2679  0.7191  0.0257
   24SAPC  H12X 3228   1.454   5.342   9.636 -0.5215 -0.4050 -0.2099
   24SAPC  H12Y 3229   1.386   5.289   9.484  1.1350 -0.0745  0.2225
   24SAPC  C313 3230   1.371   5.497   9.508  0.8311  0.1452 -0.1222
   24SAPC  H13X 3231   1.349   5.519   9.401 -0.3409 -0.0471  0.0688
   24SAPC  H13Y 3232   1.442   5.575   9.542  2.9402 -2.0528  0.7857
   24SAPC  C314 3233   1.257   5.515   9.600  0.5006  0.2591  0.0329
   24SAPC  H14X 3234   1.192   5.597   9.561  0.0309 -0.4859 -0.8065
   24SAPC  H14Y 3235   1.302   5.541   9.698  0.2743 -0.8122  0.4298
   24SAPC  C315 3236   1.161   5.398   9.607  0.0826 -0.4625 -0.4834
   24SAPC  H15X 3237   1.217   5.305   9.630 -0.1146 -0.3855  0.3304
   24SAPC  H15Y 3238   1.114   5.387   9.507  1.0309  1.7288 -1.2254
   24SAPC  C316 3239   1.055   5.409   9.716  0.1126  0.3473 -0.3353
   24SAPC  H16X 3240   0.988   5.322   9.725 -1.3848  1.2764 -1.8619
   24SAPC  H16Y 3241   0.990   5.497   9.695 -3.2247 -1.5312  1.5312
   24SAPC  C317 3242   1.121   5.459   9.849 -0.1058 -0.0556 -0.0281
   24SAPC  H17X 3243   1.148   5.565   9.829  1.7992 -0.1810  1.6402
   24SAPC  H17Y 3244   1.210   5.396   9.872 -0.6925 -0.8881  0.0183
   24SAPC  C318 3245   1.029   5.435   9.972 -0.1754  0.2611  0.4754
   24SAPC  H18X 3246   1.082   5.436  10.070 -0.1501  0.3770  0.4607
   24SAPC  H18Y 3247   0.990   5.332   9.984  1.1863 -0.1792  1.3934
   24SAPC  H18Z 3248   0.937   5.498   9.965 -0.7582 -0.7235 -1.1775
   25SAPC     N 3249   3.887   3.254   5.910  0.6018  1.0553  0.6233
   25SAPC   C12 3250   3.957   3.278   6.045  0.0415  0.1891  0.7196
   25SAPC  H12A 3251   3.912   3.217   6.122  0.2673 -1.4979 -0.4503
   25SAPC  H12B 3252   3.947   3.384   6.068  1.8720  0.8581 -1.2559
   25SAPC   C13 3253   3.924   3.341   5.802 -0.7549  0.1494  0.2613
   25SAPC  H13A 3254   3.868   3.323   5.711  0.8002  1.4757 -1.0366
   25SAPC  H13B 3255   3.913   3.447   5.821 -0.8470 -0.0439  1.3071
   25SAPC  H13C 3256   4.029   3.325   5.778 -0.5411 -0.4893  1.5443
   25SAPC   C14 3257   3.905   3.113   5.870 -0.9119 -0.0701 -0.3979
   25SAPC  H14A 3258   3.859   3.045   5.939  0.6786 -1.7501 -0.9034
   25SAPC  H14B 3259   3.871   3.104   5.768 -2.8537  0.7299  0.1309
   25SAPC  H14C 3260   4.009   3.088   5.885 -0.7481  0.7821 -0.0589
   25SAPC   C15 3261   3.738   3.280   5.928 -0.3099 -0.5034 -0.6704
   25SAPC  H15A 3262   3.717   3.374   5.976 -0.7709 -0.9236 -0.0382
   25SAPC  H15B 3263   3.685   3.246   5.840  0.1672 -2.4391 -0.2634
   25SAPC  H15C 3264   3.692   3.207   5.993 -0.3686  0.4357  0.3659
   25SAPC   C11 3265   4.110   3.241   6.045 -0.3310  0.5107  0.2043
   25SAPC  H11A 3266   4.159   3.280   6.137 -0.4034  0.3336  0.3184
   25SAPC  H11B 3267   4.156   3.299   5.962  0.1870 -1.2227 -0.7739
   25SAPC     P 3268   4.229   3.028   6.136  0.1503 -0.3342  0.3964
   25SAPC   O13 3269   4.225   2.885   6.093  0.0353  0.5294 -0.7185
   25SAPC   O14 3270   4.363   3.090   6.134 -0.3735  0.0336  0.0799
   25SAPC   O12 3271   4.132   3.105   6.035 -0.3826 -0.0690  0.0864
   25SAPC   O11 3272   4.168   3.050   6.281  0.1308  0.0624 -0.4706
   25SAPC    C1 3273   4.194   2.941   6.375 -0.4616 -0.5614 -0.2859
   25SAPC    HA 3274   4.151   2.845   6.340 -3.6218 -0.3535  2.5799
   25SAPC    HB 3275   4.304   2.924   6.377 -0.4722 -0.6449 -0.4487
   25SAPC    C2 3276   4.144   2.967   6.526  0.0126  0.3116  0.1064
   25SAPC    HS 3277   4.193   3.059   6.565  1.5360 -0.9722  1.3864
   25SAPC   O21 3278   4.183   2.855   6.600  0.4398 -0.3446 -0.6062
   25SAPC   C21 3279   4.307   2.860   6.645 -0.6489  0.1974  0.2475
   25SAPC   O22 3280   4.383   2.951   6.630 -0.2414  0.3429  0.1982
   25SAPC   C22 3281   4.349   2.730   6.719 -0.1903 -0.0057 -0.2649
   25SAPC   H2R 3282   4.444   2.696   6.671  0.7492  0.0116  1.4948
   25SAPC   H2S 3283   4.359   2.764   6.824  1.8802 -0.5881 -0.2314
   25SAPC    C3 3284   3.988   2.974   6.518  0.0655 -0.1007 -0.3306
   25SAPC    HX 3285   3.936   2.886   6.476 -0.8446  0.8516 -1.2422
   25SAPC    HY 3286   3.980   3.063   6.451  2.9070  1.3854  1.1113
   25SAPC   O31 3287   3.918   3.015   6.633  0.1703  0.5160 -0.2399
   25SAPC   C31 3288   3.891   2.920   6.718 -0.2684 -0.6131 -0.5579
   25SAPC   O32 3289   3.930   2.804   6.721 -0.2220 -0.2646  0.3463
   25SAPC   C32 3290   3.790   2.982   6.822  0.2507  0.4209  0.3613
   25SAPC   H2X 3291   3.695   3.010   6.772 -1.2021 -1.3092  1.9960
   25SAPC   H2Y 3292   3.843   3.069   6.867 -0.5929  1.1054  0.0615
   25SAPC   C23 3293   4.244   2.622   6.713  0.0110  0.5125  0.1244
   25SAPC   H3R 3294   4.249   2.557   6.624 -0.8476 -0.2118  0.5885
   25SAPC   H3S 3295   4.140   2.659   6.725 -0.8194 -1.2941 -1.1151
   25SAPC   C24 3296   4.254   2.514   6.830 -0.0303  0.5085  0.4604
   25SAPC   H4R 3297   4.190   2.430   6.793 -0.7862  1.2190  0.1251
   25SAPC   H4S 3298   4.207   2.562   6.918 -1.4464  1.2329 -0.6428
   25SAPC   C25 3299   4.394   2.455   6.840  0.0689 -0.3025 -0.3817
   25SAPC   H5R 3300   4.417   2.369   6.776  2.7658 -1.8141  2.3424
   25SAPC   C26 3301   4.492   2.499   6.912 -0.2237 -0.8609 -0.6491
   25SAPC   H6R 3302   4.593   2.457   6.899 -0.5932 -3.1712  2.6195
   25SAPC   C27 3303   4.495   2.610   7.019  0.0800 -0.3593 -0.2339
   25SAPC   H7R 3304   4.407   2.678   7.019 -1.5425 -2.2883  1.8799
   25SAPC   H7S 3305   4.587   2.671   7.003  0.4609 -1.1740 -1.2470
   25SAPC   C28 3306   4.504   2.546   7.152 -0.0109  0.3024 -0.0934
   25SAPC   H8R 3307   4.495   2.437   7.147 -0.0782  0.3439 -0.9927
   25SAPC   C29 3308   4.509   2.608   7.269 -0.1902 -0.8898 -0.8056
   25SAPC   H9R 3309   4.513   2.555   7.365  1.1581 -0.4262 -0.5798
   25SAPC  C210 3310   4.523   2.754   7.302 -0.6728  0.3425 -0.1595
   25SAPC  H10R 3311   4.436   2.796   7.357  0.3361  2.3795 -0.0190
   25SAPC  H10S 3312   4.517   2.814   7.208  0.0135 -1.0809 -1.1423
   25SAPC  C211 3313   4.658   2.778   7.380  0.0609  0.0495 -0.5864
   25SAPC  H11R 3314   4.732   2.699   7.357  0.7904  0.5046  0.1539
   25SAPC  C212 3315   4.692   2.863   7.479 -0.0329  0.1951 -0.9634
   25SAPC  H12R 3316   4.800   2.867   7.502 -0.2448 -2.2179  0.9162
   25SAPC  C213 3317   4.601   2.962   7.542 -0.1940  0.5681 -0.3067
   25SAPC  H13R 3318   4.516   2.973   7.471 -2.2541  0.7560  2.0461
   25SAPC  H13S 3319   4.652   3.061   7.543 -2.4786  1.8213  0.9309
   25SAPC  C214 3320   4.558   2.913   7.679  0.3804 -0.2363 -0.2645
   25SAPC  H14R 3321   4.532   2.807   7.695  0.2417  0.0029  1.1639
   25SAPC  C215 3322   4.551   2.991   7.789 -0.0693 -0.3869  0.2515
   25SAPC  H15R 3323   4.525   2.937   7.881  0.2641  0.6932  1.0044
   25SAPC  C216 3324   4.573   3.140   7.802  0.9073 -0.4572 -0.5354
   25SAPC  H16R 3325   4.498   3.192   7.865  0.3567 -0.5525 -1.1033
   25SAPC  H16S 3326   4.577   3.186   7.700  0.9575  0.2137 -0.2395
   25SAPC  C217 3327   4.709   3.164   7.867 -0.3011 -0.1026  0.2226
   25SAPC  H17R 3328   4.746   3.267   7.849 -0.7330  0.0028 -0.0771
   25SAPC  H17S 3329   4.777   3.089   7.820 -1.4433 -0.4865 -0.8981
   25SAPC  C218 3330   4.708   3.136   8.022  0.3907  1.0832  0.1665
   25SAPC  H18R 3331   4.680   3.031   8.045  0.0902  1.2978  0.8152
   25SAPC  H18S 3332   4.641   3.209   8.072  0.0428  0.8975 -0.0186
   25SAPC  C219 3333   4.844   3.164   8.089 -0.3515 -0.6111  0.0287
   25SAPC  H19R 3334   4.866   3.268   8.057 -0.1513 -0.1316  1.6221
   25SAPC  H19S 3335   4.921   3.097   8.046  0.4405  0.3208 -0.0543
   25SAPC  C220 3336   4.839   3.172   8.240  0.3750  0.1756  0.0118
   25SAPC  H20R 3337   4.850   3.065   8.269  2.0250  0.5948  1.1364
   25SAPC  H20S 3338   4.743   3.211   8.278  1.1391  1.8955  0.3052
   25SAPC  H20T 3339   4.920   3.237   8.281 -0.4869  2.6076 -1.9072
   25SAPC   C33 3340   3.758   2.889   6.938  0.8353  0.5365 -0.6666
   25SAPC   H3X 3341   3.850   2.870   6.998 -0.0169  1.2304  0.9290
   25SAPC   H3Y 3342   3.715   2.791   6.912  1.1959  0.1094  0.3083
   25SAPC   C34 3343   3.658   2.950   7.043 -0.3435  0.4814 -0.4294
   25SAPC   H4X 3344   3.561   2.962   6.989 -2.7048 -1.0100  3.0639
   25SAPC   H4Y 3345   3.684   3.056   7.059 -2.6927  1.1705 -0.7128
   25SAPC   C35 3346   3.631   2.857   7.161 -0.2544  0.0951  0.4450
   25SAPC   H5X 3347   3.706   2.887   7.238 -1.1133  3.7342  0.0382
   25SAPC   H5Y 3348   3.645   2.752   7.129 -0.3791  0.7985 -2.1556
   25SAPC   C36 3349   3.497   2.883   7.222 -0.2019  0.4887 -0.3768
   25SAPC   H6X 3350   3.422   2.874   7.140  0.3486  0.7750 -0.9120
   25SAPC   H6Y 3351   3.481   2.986   7.260 -1.4782  0.7379 -1.4959
   25SAPC   C37 3352   3.474   2.779   7.334  0.6705  0.1184  0.0271
   25SAPC   H7X 3353   3.571   2.762   7.385  0.3541 -0.1149  0.5527
   25SAPC   H7Y 3354   3.446   2.687   7.278 -0.4750  1.4858 -1.7823
   25SAPC   C38 3355   3.372   2.814   7.442  0.6188  0.2827 -0.0858
   25SAPC   H8X 3356   3.286   2.865   7.393  1.0261  2.0465  0.9677
   25SAPC   H8Y 3357   3.413   2.891   7.510  1.6186 -1.2691  1.1178
   25SAPC   C39 3358   3.311   2.699   7.514 -0.1893 -0.1215 -0.3603
   25SAPC   H9X 3359   3.405   2.651   7.551  0.7375  1.6759 -0.2904
   25SAPC   H9Y 3360   3.267   2.635   7.435 -0.8337  1.7243 -1.5575
   25SAPC  C310 3361   3.210   2.725   7.632 -0.6315 -0.1945 -0.1007
   25SAPC  H10X 3362   3.173   2.626   7.664 -0.4580 -0.0013  0.7026
   25SAPC  H10Y 3363   3.128   2.793   7.601  0.4032  1.2084  0.1105
   25SAPC  C311 3364   3.281   2.801   7.742 -0.8747  0.2500 -0.0848
   25SAPC  H11X 3365   3.296   2.900   7.694 -1.7327  0.2695 -0.3222
   25SAPC  H11Y 3366   3.378   2.751   7.765 -1.0834 -0.6213 -1.0415
   25SAPC  C312 3367   3.201   2.814   7.874  0.4399  0.4268  0.5875
   25SAPC  H12X 3368   3.130   2.729   7.866  1.3654 -0.5506  2.2244
   25SAPC  H12Y 3369   3.141   2.906   7.893  0.7759  0.4814  1.4284
   25SAPC  C313 3370   3.284   2.778   8.006  0.6092  0.1099 -0.3011
   25SAPC  H13X 3371   3.231   2.811   8.098  2.1773  0.2888  0.5737
   25SAPC  H13Y 3372   3.384   2.826   7.999  0.8779  0.0494  2.2714
   25SAPC  C314 3373   3.322   2.624   8.011  0.1984 -0.5054  0.1267
   25SAPC  H14X 3374   3.411   2.613   8.077  1.1649  0.3736 -0.9939
   25SAPC  H14Y 3375   3.346   2.603   7.904 -1.2103  0.4746 -0.4184
   25SAPC  C315 3376   3.196   2.549   8.058  0.8694  0.2030 -0.6843
   25SAPC  H15X 3377   3.118   2.550   7.979  0.3661 -2.3588 -0.2981
   25SAPC  H15Y 3378   3.159   2.611   8.143 -0.7202 -1.0169 -0.4497
   25SAPC  C316 3379   3.224   2.410   8.105 -0.2090  0.3130  0.5867
   25SAPC  H16X 3380   3.285   2.421   8.197  0.3048 -1.8862  0.5751
   25SAPC  H16Y 3381   3.279   2.365   8.020 -3.0643  0.4412 -1.4747
   25SAPC  C317 3382   3.102   2.310   8.119 -0.2050  0.2887 -0.1006
   25SAPC  H17X 3383   3.131   2.204   8.139 -2.4182 -1.0549 -3.2359
   25SAPC  H17Y 3384   3.040   2.311   8.027  1.7903  0.5495 -1.5078
   25SAPC  C318 3385   3.012   2.363   8.229  0.8059 -0.1485 -0.7899
   25SAPC  H18X 3386   3.050   2.356   8.334  0.5728 -0.5207 -0.7283
   25SAPC  H18Y 3387   2.922   2.299   8.238  1.0411 -0.2408  1.7882
   25SAPC  H18Z 3388   2.979   2.468   8.213 -2.0562 -0.7625  0.3956
   26SAPC     N 3389   1.185   4.607   6.109  0.7927  0.6720  0.4563
   26SAPC   C12 3390   1.119   4.642   6.237 -0.2989 -0.2061 -0.6036
   26SAPC  H12A 3391   1.039   4.714   6.222 -1.9737 -1.4725  1.5588
   26SAPC  H12B 3392   1.195   4.682   6.302 -0.7287 -1.0255  0.4525
   26SAPC   C13 3393   1.086   4.528   6.023  0.1468  0.6588 -0.6695
   26SAPC  H13A 3394   0.998   4.589   6.006 -1.0570 -1.5343 -3.1109
   26SAPC  H13B 3395   1.118   4.493   5.926 -1.6319 -0.7917 -0.8005
   26SAPC  H13C 3396   1.060   4.444   6.086  0.0078  0.9164 -0.3819
   26SAPC   C14 3397   1.223   4.737   6.043  0.3417 -0.0753  0.0876
   26SAPC  H14A 3398   1.285   4.719   5.956 -1.0799 -0.1090 -0.9573
   26SAPC  H14B 3399   1.138   4.797   6.015 -0.1334  0.7177  2.9417
   26SAPC  H14C 3400   1.282   4.793   6.114  1.5949 -1.6388  0.3319
   26SAPC   C15 3401   1.319   4.530   6.127  0.5699 -1.1366  0.0811
   26SAPC  H15A 3402   1.396   4.600   6.155 -0.9872  0.1346  1.4036
   26SAPC  H15B 3403   1.316   4.452   6.201 -1.3862 -0.3455  0.9180
   26SAPC  H15C 3404   1.348   4.480   6.035 -1.8893 -0.5727 -1.0876
   26SAPC   C11 3405   1.055   4.532   6.332 -0.0083 -0.5110  0.4968
   26SAPC  H11A 3406   0.975   4.480   6.276  0.8711 -1.2004 -0.1488
   26SAPC  H11B 3407   1.004   4.585   6.415 -1.4215  0.9508 -1.2345
   26SAPC     P 3408   1.244   4.458   6.489 -0.5547 -0.1537 -0.4252
   26SAPC   O13 3409   1.375   4.393   6.455 -0.4601  0.3552 -0.3405
   26SAPC   O14 3410   1.255   4.606   6.503 -0.3152  0.6942 -0.4883
   26SAPC   O12 3411   1.152   4.430   6.366  0.6081  0.0170 -0.5626
   26SAPC   O11 3412   1.184   4.398   6.617  0.2082 -0.1371  0.5536
   26SAPC    C1 3413   1.091   4.287   6.591 -0.1119  0.1643  0.0311
   26SAPC    HA 3414   1.002   4.326   6.536  0.6864  1.3032 -0.4905
   26SAPC    HB 3415   1.145   4.214   6.528  0.3378 -1.4140  2.1132
   26SAPC    C2 3416   1.044   4.215   6.721 -0.1650  0.0291  0.2085
   26SAPC    HS 3417   0.988   4.125   6.687 -0.0130 -0.0700  0.2193
   26SAPC   O21 3418   0.973   4.308   6.797  0.3716 -0.0521 -0.3385
   26SAPC   C21 3419   0.852   4.266   6.850 -0.7973  0.0730  0.6523
   26SAPC   O22 3420   0.811   4.152   6.824  0.3992  0.4896 -0.9222
   26SAPC   C22 3421   0.790   4.379   6.934  0.2397  0.6767  0.0739
   26SAPC   H2R 3422   0.862   4.435   6.996 -0.2255  0.6056  0.6899
   26SAPC   H2S 3423   0.743   4.445   6.858  1.2795 -0.1969 -1.3784
   26SAPC    C3 3424   1.166   4.156   6.802  0.1819 -0.0606 -0.4521
   26SAPC    HX 3425   1.236   4.240   6.821 -0.5123  0.3137  0.5018
   26SAPC    HY 3426   1.221   4.093   6.728  1.0802  0.0540  0.0970
   26SAPC   O31 3427   1.138   4.084   6.923 -0.4162 -0.8019 -0.3305
   26SAPC   C31 3428   1.084   3.952   6.898  0.4511 -0.7091 -0.2041
   26SAPC   O32 3429   1.069   3.915   6.781  0.8595  0.1456  0.1782
   26SAPC   C32 3430   1.051   3.882   7.028  0.2549  0.2417 -0.6534
   26SAPC   H2X 3431   1.101   3.783   7.020 -0.5008 -0.1294 -0.8913
   26SAPC   H2Y 3432   0.944   3.854   7.021  0.4352 -1.2981  1.7850
   26SAPC   C23 3433   0.670   4.323   7.015  0.3796 -0.5592 -0.2843
   26SAPC   H3R 3434   0.709   4.241   7.078  0.5435  0.1980  0.6294
   26SAPC   H3S 3435   0.601   4.262   6.952  0.5438 -1.9264  0.8010
   26SAPC   C24 3436   0.588   4.432   7.084 -0.5211  0.5207  0.0935
   26SAPC   H4R 3437   0.491   4.407   7.131  0.2041 -1.4227  0.6366
   26SAPC   H4S 3438   0.572   4.505   7.002  0.7769  0.7569  0.0344
   26SAPC   C25 3439   0.683   4.496   7.187  0.5607 -0.8299  0.7366
   26SAPC   H5R 3440   0.769   4.540   7.134 -0.0936 -2.8142 -2.2417
   26SAPC   C26 3441   0.669   4.505   7.321  0.3962  0.5581  0.7686
   26SAPC   H6R 3442   0.746   4.569   7.367 -1.9669  3.6283  0.7155
   26SAPC   C27 3443   0.554   4.453   7.407  0.4103  0.0733  0.6147
   26SAPC   H7R 3444   0.595   4.412   7.502  1.3099 -3.2867 -1.0363
   26SAPC   H7S 3445   0.504   4.364   7.362  1.0111  0.3990 -0.7571
   26SAPC   C28 3446   0.448   4.554   7.421  0.0202 -0.0053 -0.0467
   26SAPC   H8R 3447   0.423   4.613   7.331 -0.2413 -1.3458 -0.8917
   26SAPC   C29 3448   0.369   4.557   7.533 -0.2735 -0.2481  0.6262
   26SAPC   H9R 3449   0.293   4.636   7.542  0.4104  0.5189 -0.0653
   26SAPC  C210 3450   0.373   4.463   7.652  0.3685 -0.3787 -0.1582
   26SAPC  H10R 3451   0.388   4.360   7.614 -0.1077 -0.7349  0.5910
   26SAPC  H10S 3452   0.273   4.455   7.699  1.0127 -2.8884  0.9588
   26SAPC  C211 3453   0.459   4.496   7.767 -0.5449 -0.5991  0.3155
   26SAPC  H11R 3454   0.520   4.587   7.761  0.3057 -1.2585 -2.1709
   26SAPC  C212 3455   0.460   4.419   7.872 -0.4274  0.1094 -0.7954
   26SAPC  H12R 3456   0.538   4.442   7.946  0.4415  0.0347 -1.6626
   26SAPC  C213 3457   0.384   4.296   7.892  0.2464  0.5807 -0.5401
   26SAPC  H13R 3458   0.354   4.245   7.798 -0.7596 -0.5352  0.3547
   26SAPC  H13S 3459   0.302   4.311   7.967 -0.2437 -1.2392 -0.6756
   26SAPC  C214 3460   0.476   4.192   7.952  0.1716  0.8100 -0.4782
   26SAPC  H14R 3461   0.550   4.147   7.884  1.0391  0.1513  0.8663
   26SAPC  C215 3462   0.475   4.144   8.079 -0.3462  0.0409 -0.8982
   26SAPC  H15R 3463   0.543   4.063   8.107  0.9626  0.7905 -1.8039
   26SAPC  C216 3464   0.389   4.189   8.195 -0.2957  0.2637  0.0415
   26SAPC  H16R 3465   0.361   4.107   8.264 -0.3316  0.0686 -0.2023
   26SAPC  H16S 3466   0.289   4.212   8.151 -0.5136  0.8465  0.8189
   26SAPC  C217 3467   0.421   4.307   8.288  0.4839  0.0421  0.4971
   26SAPC  H17R 3468   0.413   4.407   8.240 -0.2457  0.3099  1.1638
   26SAPC  H17S 3469   0.527   4.287   8.316  0.4867 -1.7327 -0.6168
   26SAPC  C218 3470   0.337   4.316   8.417 -0.3339 -0.5533  0.2183
   26SAPC  H18R 3471   0.240   4.354   8.377 -1.5692 -0.1064  3.3350
   26SAPC  H18S 3472   0.384   4.400   8.473  2.8662 -1.0459 -1.4784
   26SAPC  C219 3473   0.319   4.205   8.522 -0.5210  0.6848  0.5024
   26SAPC  H19R 3474   0.277   4.116   8.471  3.3036 -0.9643 -0.1585
   26SAPC  H19S 3475   0.254   4.233   8.608 -0.9954 -1.0514  0.7375
   26SAPC  C220 3476   0.447   4.161   8.590  0.4269  0.5624  0.1106
   26SAPC  H20R 3477   0.483   4.075   8.528 -0.3880  1.4283 -1.6513
   26SAPC  H20S 3478   0.436   4.124   8.694 -3.5519 -0.9321 -0.6719
   26SAPC  H20T 3479   0.523   4.240   8.571 -0.9701  1.4831 -2.0504
   26SAPC   C33 3480   1.096   3.950   7.163  0.3008  0.0104  0.3367
   26SAPC   H3X 3481   1.026   4.032   7.190  0.7751  1.2660 -1.9893
   26SAPC   H3Y 3482   1.197   3.995   7.161 -0.4495  1.7766 -1.7483
   26SAPC   C34 3483   1.088   3.847   7.281 -0.6418  0.0628 -0.3873
   26SAPC   H4X 3484   0.994   3.791   7.263 -0.8546  0.1213  0.5072
   26SAPC   H4Y 3485   1.081   3.901   7.378  0.5101 -2.8014  1.4112
   26SAPC   C35 3486   1.215   3.761   7.298  1.0879 -0.3494  0.2192
   26SAPC   H5X 3487   1.303   3.825   7.317  0.4180  0.2861  1.3119
   26SAPC   H5Y 3488   1.231   3.703   7.205 -1.7072  1.3626 -1.4784
   26SAPC   C36 3489   1.201   3.665   7.418  0.2869 -0.5331  0.5970
   26SAPC   H6X 3490   1.267   3.577   7.404  0.5315 -0.0494 -1.7401
   26SAPC   H6Y 3491   1.098   3.622   7.428  0.5986 -1.4393  0.0589
   26SAPC   C37 3492   1.232   3.741   7.548  0.4990  0.1255  0.6164
   26SAPC   H7X 3493   1.162   3.825   7.567  0.3814  0.3716 -0.8264
   26SAPC   H7Y 3494   1.337   3.778   7.548  0.2684  0.8015  1.4316
   26SAPC   C38 3495   1.201   3.660   7.678  0.4116 -0.8708 -0.3122
   26SAPC   H8X 3496   1.281   3.583   7.677  0.6794 -0.6064  0.5022
   26SAPC   H8Y 3497   1.111   3.595   7.674 -0.1157 -0.1242 -3.1886
   26SAPC   C39 3498   1.241   3.737   7.806  0.6567  0.0130 -0.1703
   26SAPC   H9X 3499   1.189   3.835   7.797 -2.2098 -1.1057  2.5738
   26SAPC   H9Y 3500   1.351   3.752   7.808  0.4147  1.9595  0.9966
   26SAPC  C310 3501   1.202   3.669   7.941  0.3568  0.4206  0.0793
   26SAPC  H10X 3502   1.212   3.560   7.918 -1.6116 -0.0472  1.2015
   26SAPC  H10Y 3503   1.096   3.699   7.956  1.1603  2.6920  1.5719
   26SAPC  C311 3504   1.291   3.709   8.055  0.3221  0.3598 -0.9894
   26SAPC  H11X 3505   1.283   3.819   8.066 -0.6967  0.0875  2.0412
   26SAPC  H11Y 3506   1.396   3.682   8.029  0.3059 -2.3388  1.2059
   26SAPC  C312 3507   1.255   3.647   8.193 -0.1042  0.3428  0.9837
   26SAPC  H12X 3508   1.226   3.542   8.171 -3.3537  1.0286  1.3995
   26SAPC  H12Y 3509   1.159   3.694   8.225  0.5087  2.3873 -0.0383
   26SAPC  C313 3510   1.361   3.651   8.302 -0.0500  0.2348 -0.9216
   26SAPC  H13X 3511   1.326   3.612   8.399  0.0666  1.9612 -0.1471
   26SAPC  H13Y 3512   1.397   3.755   8.320  0.0716 -0.0381  0.4851
   26SAPC  C314 3513   1.484   3.565   8.274 -0.1342  0.7318 -0.3536
   26SAPC  H14X 3514   1.545   3.597   8.187 -1.0937  0.1820 -1.2458
   26SAPC  H14Y 3515   1.447   3.465   8.244  1.1204 -0.5311  2.0387
   26SAPC  C315 3516   1.576   3.538   8.392 -0.0588  0.0523  0.6732
   26SAPC  H15X 3517   1.517   3.520   8.485  1.3573  0.6581  1.7382
   26SAPC  H15Y 3518   1.620   3.637   8.418 -2.9527  1.4521  0.6104
   26SAPC  C316 3519   1.678   3.422   8.376  0.3338  0.6616  0.5202
   26SAPC  H16X 3520   1.725   3.442   8.277 -0.3869  0.0685  0.0420
   26SAPC  H16Y 3521   1.621   3.327   8.374  1.2359  0.0326  2.4235
   26SAPC  C317 3522   1.781   3.427   8.488  0.7752 -0.8479 -0.2748
   26SAPC  H17X 3523   1.727   3.401   8.582  0.1412 -1.3136 -0.7567
   26SAPC  H17Y 3524   1.805   3.533   8.507 -1.2727  0.1499 -2.6440
   26SAPC  C318 3525   1.895   3.322   8.475 -1.0199  0.9241  0.4669
   26SAPC  H18X 3526   1.973   3.358   8.405 -1.6867  2.0783  0.2849
   26SAPC  H18Y 3527   1.852   3.224   8.445 -1.8246  0.9751  1.3819
   26SAPC  H18Z 3528   1.957   3.309   8.567  2.6150 -0.3850 -1.9550
   27SAPC     N 3529   2.041   5.332   6.776 -0.8856  0.1196  0.1042
   27SAPC   C12 3530   1.932   5.401   6.693  0.1607 -0.0582  0.4870
   27SAPC  H12A 3531   1.875   5.321   6.649  1.9782 -0.8026 -0.6236
   27SAPC  H12B 3532   1.974   5.452   6.608 -1.6174  4.0531  1.8232
   27SAPC   C13 3533   2.146   5.423   6.828 -0.1215  0.2706 -0.0399
   27SAPC  H13A 3534   2.224   5.365   6.875  1.5179  2.0784 -0.4283
   27SAPC  H13B 3535   2.200   5.466   6.745 -0.9939 -0.5485 -1.0797
   27SAPC  H13C 3536   2.096   5.496   6.889 -3.0889 -0.2211 -1.6968
   27SAPC   C14 3537   1.985   5.256   6.888  0.5267 -0.9582 -0.5577
   27SAPC  H14A 3538   2.058   5.211   6.953  0.1129  0.6877  1.1272
   27SAPC  H14B 3539   1.927   5.321   6.951  0.8583 -0.9264 -0.2803
   27SAPC  H14C 3540   1.914   5.180   6.860 -0.1852 -2.1633  3.8420
   27SAPC   C15 3541   2.117   5.236   6.697 -0.6210  0.2730  0.1497
   27SAPC  H15A 3542   2.171   5.170   6.763 -1.5608 -1.7094 -0.9671
   27SAPC  H15B 3543   2.052   5.172   6.639  0.5712 -0.0561 -0.8753
   27SAPC  H15C 3544   2.170   5.282   6.615 -1.3331 -1.0739 -1.1249
   27SAPC   C11 3545   1.840   5.501   6.764 -0.2397 -0.2335  0.9176
   27SAPC  H11A 3546   1.786   5.443   6.842 -0.8679 -0.7657  0.0929
   27SAPC  H11B 3547   1.757   5.540   6.702 -0.2775 -0.3728  0.8810
   27SAPC     P 3548   1.949   5.735   6.723  0.0606  0.1055 -0.0157
   27SAPC   O13 3549   2.058   5.817   6.777  0.0868  0.4790 -0.4538
   27SAPC   O14 3550   1.972   5.698   6.578 -0.1204  0.2858 -0.1579
   27SAPC   O12 3551   1.915   5.613   6.823 -0.0965 -0.3744 -0.1613
   27SAPC   O11 3552   1.814   5.820   6.731  0.5375  0.0108 -0.1834
   27SAPC    C1 3553   1.736   5.833   6.846 -0.1971  0.0990  0.7658
   27SAPC    HA 3554   1.631   5.861   6.823 -1.3588 -4.3235 -0.1418
   27SAPC    HB 3555   1.719   5.736   6.898  0.5093 -1.2394 -1.3734
   27SAPC    C2 3556   1.795   5.948   6.936  0.7591  0.1787 -0.4896
   27SAPC    HS 3557   1.898   5.932   6.975  0.1513  0.9176  1.5490
   27SAPC   O21 3558   1.697   5.975   7.040  0.1809 -0.4769 -0.1793
   27SAPC   C21 3559   1.726   5.902   7.153  0.7693 -1.1042 -0.3087
   27SAPC   O22 3560   1.811   5.822   7.165  0.3423 -0.4239 -0.1835
   27SAPC   C22 3561   1.631   5.940   7.266  0.0640  0.0121  0.5804
   27SAPC   H2R 3562   1.687   6.018   7.323  2.1475 -0.4419 -0.7262
   27SAPC   H2S 3563   1.534   5.971   7.222 -1.0274 -1.7234  1.6643
   27SAPC    C3 3564   1.817   6.077   6.850  0.0290  0.1192  0.0263
   27SAPC    HX 3565   1.718   6.111   6.812 -0.3739 -1.6497 -0.5926
   27SAPC    HY 3566   1.883   6.057   6.762 -2.0115 -0.2934 -1.4873
   27SAPC   O31 3567   1.858   6.180   6.933  0.8337 -0.4014 -0.4258
   27SAPC   C31 3568   1.990   6.197   6.957  0.4266  0.0017 -0.3606
   27SAPC   O32 3569   2.082   6.145   6.895 -0.0175  1.1013  0.4526
   27SAPC   C32 3570   2.010   6.289   7.085  1.3040  0.2588  0.1368
   27SAPC   H2X 3571   1.939   6.375   7.076  0.6379 -0.2387  0.5810
   27SAPC   H2Y 3572   2.112   6.334   7.078  2.1505 -1.6417 -0.4763
   27SAPC   C23 3573   1.599   5.813   7.342 -0.1372 -0.1915  0.3984
   27SAPC   H3R 3574   1.696   5.785   7.389  1.5309 -0.1740 -2.7239
   27SAPC   H3S 3575   1.581   5.725   7.277 -0.6158  0.0332  0.2290
   27SAPC   C24 3576   1.492   5.825   7.452  0.6985  0.5733 -0.8896
   27SAPC   H4R 3577   1.466   5.734   7.510 -0.7177  0.2313 -1.9952
   27SAPC   H4S 3578   1.402   5.850   7.392  0.6723  0.8330 -0.7479
   27SAPC   C25 3579   1.506   5.944   7.544 -1.1647 -0.1189 -0.5357
   27SAPC   H5R 3580   1.499   6.047   7.508  1.6050  0.6736  0.8964
   27SAPC   C26 3581   1.522   5.928   7.682  0.6492 -1.0626  0.5369
   27SAPC   H6R 3582   1.538   6.024   7.733 -0.1683 -0.0494 -1.0138
   27SAPC   C27 3583   1.523   5.809   7.767 -0.4159  0.8063 -0.2257
   27SAPC   H7R 3584   1.459   5.725   7.733 -2.1455  1.4514  1.2708
   27SAPC   H7S 3585   1.497   5.832   7.873 -1.4890  0.0237 -0.3089
   27SAPC   C28 3586   1.663   5.754   7.760 -0.0300 -0.3593 -0.0764
   27SAPC   H8R 3587   1.701   5.758   7.656  1.3217  1.4097  0.4257
   27SAPC   C29 3588   1.736   5.714   7.854 -0.3778  0.5754 -0.1123
   27SAPC   H9R 3589   1.843   5.695   7.832 -0.9151 -0.3066 -2.2500
   27SAPC  C210 3590   1.691   5.706   8.003  0.7758 -0.7146 -0.3027
   27SAPC  H10R 3591   1.670   5.600   8.030 -0.0866 -0.2796  0.8133
   27SAPC  H10S 3592   1.599   5.764   8.026  2.9381  2.0681  2.1644
   27SAPC  C211 3593   1.807   5.744   8.091 -0.5327 -0.6794 -0.5462
   27SAPC  H11R 3594   1.855   5.840   8.065  1.0336 -1.5593 -1.0258
   27SAPC  C212 3595   1.850   5.686   8.208  0.8371  0.1042 -0.0572
   27SAPC  H12R 3596   1.938   5.730   8.257  0.3436  1.1332 -0.0687
   27SAPC  C213 3597   1.796   5.558   8.267  0.7358  0.4452 -0.3348
   27SAPC  H13R 3598   1.788   5.478   8.191  1.4666  0.3878 -0.3566
   27SAPC  H13S 3599   1.688   5.573   8.287  0.4060 -1.9026 -0.0591
   27SAPC  C214 3600   1.861   5.499   8.386  0.1868  0.0125 -0.7972
   27SAPC  H14R 3601   1.932   5.419   8.361  1.6979  0.7631  0.8624
   27SAPC  C215 3602   1.856   5.555   8.509  0.0537  1.0296  0.0520
   27SAPC  H15R 3603   1.911   5.512   8.594  0.0644  2.5882  0.8858
   27SAPC  C216 3604   1.771   5.670   8.545  0.1118 -0.4833 -0.4079
   27SAPC  H16R 3605   1.688   5.644   8.614 -0.4234  1.0308 -0.4300
   27SAPC  H16S 3606   1.715   5.715   8.459 -0.7851 -1.9680 -0.6373
   27SAPC  C217 3607   1.847   5.782   8.616 -0.4349 -0.2541  0.1831
   27SAPC  H17R 3608   1.775   5.867   8.618 -1.4211 -1.0321 -0.8250
   27SAPC  H17S 3609   1.932   5.805   8.547  0.7782  1.6183  2.1666
   27SAPC  C218 3610   1.893   5.742   8.759 -0.5817 -0.3712  0.1108
   27SAPC  H18R 3611   1.969   5.661   8.748  0.2814  0.6082 -1.4313
   27SAPC  H18S 3612   1.807   5.691   8.807 -0.3824 -0.9673 -0.1527
   27SAPC  C219 3613   1.953   5.847   8.844 -0.5578 -0.6142 -0.6796
   27SAPC  H19R 3614   2.025   5.891   8.772 -0.9430 -0.0240 -0.7136
   27SAPC  H19S 3615   2.002   5.802   8.932  1.7732  1.3547 -0.8601
   27SAPC  C220 3616   1.859   5.964   8.879  0.5024 -0.4789 -0.3254
   27SAPC  H20R 3617   1.782   5.913   8.941  0.7058  0.0695  0.3936
   27SAPC  H20S 3618   1.823   6.012   8.785  0.0400 -1.0525 -0.4475
   27SAPC  H20T 3619   1.917   6.047   8.924  2.5857  1.1843 -5.2798
   27SAPC   C33 3620   1.976   6.213   7.219  0.0275  0.6519  0.2666
   27SAPC   H3X 3621   1.869   6.186   7.208 -0.1822  1.3418  0.5598
   27SAPC   H3Y 3622   1.972   6.280   7.308 -0.5189 -0.4266  1.0754
   27SAPC   C34 3623   2.061   6.091   7.249  0.0202  0.1155  0.0036
   27SAPC   H4X 3624   2.163   6.094   7.205  0.9171  0.1105  1.9756
   27SAPC   H4Y 3625   2.006   6.010   7.198  1.7382 -1.2524  0.2120
   27SAPC   C35 3626   2.068   6.062   7.397 -0.6056 -0.0324 -0.3817
   27SAPC   H5X 3627   2.134   6.138   7.444  2.3067 -1.3236 -2.0826
   27SAPC   H5Y 3628   2.115   5.964   7.416 -1.5215 -0.5250 -0.6157
   27SAPC   C36 3629   1.925   6.049   7.468  0.3127  0.2258 -0.6517
   27SAPC   H6X 3630   1.878   5.963   7.417  1.6712 -1.0315  0.1468
   27SAPC   H6Y 3631   1.866   6.143   7.458 -0.7962 -0.3624  0.1663
   27SAPC   C37 3632   1.943   6.006   7.608 -0.0403  0.0790 -0.0173
   27SAPC   H7X 3633   1.976   5.899   7.606  0.3616  0.1550  1.6522
   27SAPC   H7Y 3634   1.843   5.998   7.655  0.0891 -0.6126  0.1498
   27SAPC   C38 3635   2.036   6.100   7.684 -0.5568  0.1835  0.4338
   27SAPC   H8X 3636   2.009   6.204   7.656  0.1121 -0.0115 -1.0765
   27SAPC   H8Y 3637   2.142   6.086   7.655 -0.7214  0.0100 -0.1008
   27SAPC   C39 3638   2.020   6.100   7.838 -0.4226  0.0667 -0.4251
   27SAPC   H9X 3639   1.910   6.098   7.859 -0.4551 -0.0034 -0.6030
   27SAPC   H9Y 3640   2.073   6.185   7.885  1.8831 -0.8658 -1.2116
   27SAPC  C310 3641   2.084   5.969   7.898  0.4011  0.5327  0.0763
   27SAPC  H10X 3642   2.184   5.951   7.853  0.1651 -0.5059 -0.0513
   27SAPC  H10Y 3643   2.013   5.889   7.869  1.0986  0.2034 -0.7405
   27SAPC  C311 3644   2.099   5.973   8.057 -0.6823 -0.5272 -0.0856
   27SAPC  H11X 3645   2.126   5.868   8.085  3.1210  0.0785 -0.8589
   27SAPC  H11Y 3646   2.000   6.002   8.096 -0.8982  0.1288 -1.0933
   27SAPC  C312 3647   2.207   6.060   8.121 -0.5313 -0.8213 -0.0403
   27SAPC  H12X 3648   2.188   6.164   8.086  0.1795  0.5685  3.2632
   27SAPC  H12Y 3649   2.308   6.028   8.088  0.8458  1.1796  1.9240
   27SAPC  C313 3650   2.184   6.059   8.269  0.9620 -0.8598 -0.3996
   27SAPC  H13X 3651   2.080   6.092   8.288  1.0053 -1.1749  0.3925
   27SAPC  H13Y 3652   2.233   6.148   8.316  1.3110 -0.0459 -2.1963
   27SAPC  C314 3653   2.205   5.933   8.343  0.2354  0.0950  0.7750
   27SAPC  H14X 3654   2.161   5.845   8.290 -0.1147  1.4411 -1.3104
   27SAPC  H14Y 3655   2.150   5.943   8.438 -2.8705 -0.7447 -0.8112
   27SAPC  C315 3656   2.347   5.892   8.364  0.2834  0.0430  0.0452
   27SAPC  H15X 3657   2.395   5.883   8.264  3.3058 -2.8322  1.5764
   27SAPC  H15Y 3658   2.364   5.796   8.417 -0.4604  1.0553  2.2539
   27SAPC  C316 3659   2.428   5.998   8.450  0.1097  0.3528  0.0865
   27SAPC  H16X 3660   2.423   6.097   8.402  1.9663  0.5402  0.1883
   27SAPC  H16Y 3661   2.538   5.979   8.449  0.4226  1.8855  1.2580
   27SAPC  C317 3662   2.380   6.010   8.595  0.7247 -0.2982 -0.5220
   27SAPC  H17X 3663   2.286   6.069   8.582 -0.3563 -1.4507  1.5568
   27SAPC  H17Y 3664   2.441   6.065   8.670 -1.6158  2.0071 -0.1413
   27SAPC  C318 3665   2.352   5.880   8.658  0.5758 -0.8402 -0.8445
   27SAPC  H18X 3666   2.270   5.830   8.603  0.0353 -0.3296 -0.5104
   27SAPC  H18Y 3667   2.320   5.910   8.760 -0.2536 -0.2735 -1.2607
   27SAPC  H18Z 3668   2.443   5.816   8.663  0.4994 -0.8790  0.4246
   28SAPC     N 3669   0.960   6.137   6.475 -0.3599 -0.5582 -0.4428
   28SAPC   C12 3670   0.985   6.252   6.572  0.0547  0.1624 -0.5102
   28SAPC  H12A 3671   1.091   6.261   6.590  0.7768 -2.6129 -2.6027
   28SAPC  H12B 3672   0.953   6.215   6.668  0.7103  1.3276  0.1808
   28SAPC   C13 3673   0.973   6.002   6.530 -0.4542  0.8250  0.2211
   28SAPC  H13A 3674   0.987   5.920   6.460 -3.3038  0.4943 -0.0728
   28SAPC  H13B 3675   1.060   5.996   6.594  1.1544  1.1088 -1.8193
   28SAPC  H13C 3676   0.893   5.964   6.591  1.7058 -3.4191  0.8311
   28SAPC   C14 3677   0.825   6.150   6.419 -0.2226  0.1916 -0.0591
   28SAPC  H14A 3678   0.750   6.147   6.497  0.2621 -1.7146  0.3694
   28SAPC  H14B 3679   0.822   6.244   6.365  1.3561 -0.3472 -1.1715
   28SAPC  H14C 3680   0.792   6.070   6.356 -1.0794  0.7857 -0.3790
   28SAPC   C15 3681   1.068   6.145   6.368  0.3700 -0.1514 -0.2860
   28SAPC  H15A 3682   1.172   6.135   6.397 -0.2117 -0.5925  1.8239
   28SAPC  H15B 3683   1.056   6.066   6.295  0.0536  0.3157 -0.7527
   28SAPC  H15C 3684   1.051   6.244   6.328 -0.9544 -0.2519 -0.0033
   28SAPC   C11 3685   0.906   6.390   6.561 -0.4020 -0.3714 -0.3293
   28SAPC  H11A 3686   0.923   6.446   6.655 -0.4566 -1.2693  0.2222
   28SAPC  H11B 3687   0.796   6.374   6.553 -0.4391  0.6741 -2.9797
   28SAPC     P 3688   0.914   6.602   6.404  0.0637 -0.1781  0.0985
   28SAPC   O13 3689   0.994   6.647   6.292 -0.2001 -0.4396  0.2359
   28SAPC   O14 3690   0.767   6.588   6.376 -0.4349  0.0957  0.2905
   28SAPC   O12 3691   0.962   6.460   6.450  0.4716  0.0103  0.3776
   28SAPC   O11 3692   0.940   6.687   6.531 -0.5512  0.1188  0.2127
   28SAPC    C1 3693   1.077   6.717   6.568 -0.1203 -0.5890 -0.3434
   28SAPC    HA 3694   1.135   6.632   6.609  2.8782  2.4033  2.1589
   28SAPC    HB 3695   1.131   6.756   6.479  0.6087 -2.1154 -0.6052
   28SAPC    C2 3696   1.078   6.836   6.672  0.1531  1.0828 -0.4248
   28SAPC    HS 3697   1.183   6.870   6.684 -0.0981  1.7305  0.0158
   28SAPC   O21 3698   1.031   6.771   6.798  0.0656  0.3951 -0.1023
   28SAPC   C21 3699   1.110   6.796   6.901  0.3754 -0.5536  0.2574
   28SAPC   O22 3700   1.202   6.875   6.912  0.0901 -0.1695 -0.1424
   28SAPC   C22 3701   1.080   6.695   7.004 -0.3645 -0.3738 -0.3085
   28SAPC   H2R 3702   0.975   6.695   7.040 -0.1705 -0.2554  0.2667
   28SAPC   H2S 3703   1.106   6.596   6.961 -1.5176 -2.4328  3.3253
   28SAPC    C3 3704   0.988   6.953   6.647  0.7103 -0.1384  0.5951
   28SAPC    HX 3705   0.883   6.918   6.650  0.7136 -0.1392  0.7009
   28SAPC    HY 3706   0.999   6.987   6.542  0.3609 -0.5523  0.4236
   28SAPC   O31 3707   1.004   7.053   6.753 -0.5664 -0.3100 -0.7670
   28SAPC   C31 3708   1.101   7.133   6.715  0.4602 -1.0532 -0.0616
   28SAPC   O32 3709   1.161   7.120   6.609 -0.3669  0.1648 -0.3561
   28SAPC   C32 3710   1.136   7.240   6.817  0.1857  0.1322 -0.1166
   28SAPC   H2X 3711   1.059   7.319   6.803 -0.1499  0.0168  1.0083
   28SAPC   H2Y 3712   1.232   7.284   6.785  0.3651 -0.9893 -1.2188
   28SAPC   C23 3713   1.166   6.706   7.138 -0.7028  0.0283 -0.4203
   28SAPC   H3R 3714   1.146   6.804   7.186  3.4433  1.3275 -0.9662
   28SAPC   H3S 3715   1.273   6.728   7.122 -0.2990  0.2054  2.0546
   28SAPC   C24 3716   1.164   6.585   7.234 -0.3981 -0.2220 -0.1562
   28SAPC   H4R 3717   1.191   6.501   7.167  1.3634 -0.4973  0.8332
   28SAPC   H4S 3718   1.238   6.582   7.317 -1.3805  0.8642  0.8021
   28SAPC   C25 3719   1.030   6.574   7.295  0.4559  0.1929 -0.4195
   28SAPC   H5R 3720   0.955   6.521   7.235 -1.3279  2.4490 -0.2971
   28SAPC   C26 3721   0.983   6.613   7.410  0.1445  0.2093 -0.3534
   28SAPC   H6R 3722   0.874   6.611   7.426  0.2578 -1.3798  0.3520
   28SAPC   C27 3723   1.066   6.668   7.522 -0.1367 -0.3828 -0.0880
   28SAPC   H7R 3724   1.101   6.771   7.498  0.1800 -0.8946 -1.9926
   28SAPC   H7S 3725   1.168   6.626   7.534  0.2154  0.2137 -0.9161
   28SAPC   C28 3726   0.982   6.676   7.644 -0.4960 -0.4406  0.2063
   28SAPC   H8R 3727   0.907   6.756   7.649 -0.4131 -0.4326  3.3070
   28SAPC   C29 3728   0.995   6.605   7.760 -0.3041  0.5930 -0.1293
   28SAPC   H9R 3729   0.918   6.625   7.836  0.0920  0.5227  0.2911
   28SAPC  C210 3730   1.096   6.498   7.788 -1.0356 -0.4403  0.2706
   28SAPC  H10R 3731   1.189   6.533   7.837 -0.6398  0.8840 -1.3158
   28SAPC  H10S 3732   1.131   6.445   7.697  0.4004  0.2599  0.3914
   28SAPC  C211 3733   1.031   6.390   7.877 -0.6068 -0.7765  0.2230
   28SAPC  H11R 3734   0.973   6.314   7.823  0.0121  0.7007 -2.6857
   28SAPC  C212 3735   1.033   6.401   8.010  0.3751  0.6383  0.5418
   28SAPC  H12R 3736   0.972   6.334   8.073 -1.4600 -0.5930 -2.3361
   28SAPC  C213 3737   1.093   6.509   8.093  0.0736  0.1254  0.2141
   28SAPC  H13R 3738   1.010   6.553   8.153  0.4126 -0.9165  1.4907
   28SAPC  H13S 3739   1.136   6.593   8.034  0.4037 -0.4464 -0.3706
   28SAPC  C214 3740   1.198   6.452   8.184 -0.5198  1.0892 -0.4052
   28SAPC  H14R 3741   1.267   6.376   8.144 -2.8405 -1.8527  0.7616
   28SAPC  C215 3742   1.201   6.489   8.314 -0.1296  0.5970 -0.4446
   28SAPC  H15R 3743   1.285   6.449   8.372 -0.6067  0.0997 -0.0917
   28SAPC  C216 3744   1.119   6.590   8.390  0.2218 -0.1433 -0.0236
   28SAPC  H16R 3745   1.034   6.642   8.340 -1.7108 -0.8336  2.3552
   28SAPC  H16S 3746   1.180   6.670   8.436 -1.7542  0.8605  0.9672
   28SAPC  C217 3747   1.045   6.515   8.509 -0.7026  0.1629  0.2632
   28SAPC  H17R 3748   1.011   6.416   8.471 -0.5248  0.7313 -1.4513
   28SAPC  H17S 3749   0.951   6.568   8.533  0.8373  2.4634  1.5806
   28SAPC  C218 3750   1.138   6.498   8.627 -0.0737 -0.9972  0.4300
   28SAPC  H18R 3751   1.147   6.600   8.670 -0.2291 -0.7388 -0.1429
   28SAPC  H18S 3752   1.232   6.465   8.580 -0.0941  0.2095 -0.4961
   28SAPC  C219 3753   1.082   6.398   8.727  0.8359  0.0692  0.7797
   28SAPC  H19R 3754   0.975   6.379   8.708  1.0378 -0.4374  0.1316
   28SAPC  H19S 3755   1.078   6.447   8.827  0.7256  0.7099  0.4703
   28SAPC  C220 3756   1.143   6.262   8.749 -0.1438 -0.6563 -0.2160
   28SAPC  H20R 3757   1.243   6.270   8.795 -0.7780  0.0114  1.0920
   28SAPC  H20S 3758   1.158   6.212   8.651  3.1511  1.3465 -0.8906
   28SAPC  H20T 3759   1.077   6.195   8.808  0.2479 -1.2631 -0.4560
   28SAPC   C33 3760   1.161   7.193   6.968 -0.6781 -0.2991  0.2951
   28SAPC   H3X 3761   1.229   7.106   6.967  1.5768  1.3737  0.9665
   28SAPC   H3Y 3762   1.067   7.170   7.024  0.7825 -1.8643  2.2295
   28SAPC   C34 3763   1.225   7.309   7.050 -1.8234 -0.3271  0.0233
   28SAPC   H4X 3764   1.173   7.406   7.035  0.6225  0.9476 -0.7226
   28SAPC   H4Y 3765   1.333   7.317   7.026 -1.5750 -0.4007  1.0509
   28SAPC   C35 3766   1.227   7.281   7.197  0.3195  0.0631  0.2120
   28SAPC   H5X 3767   1.305   7.208   7.227  3.1120  1.8784 -2.1512
   28SAPC   H5Y 3768   1.123   7.245   7.216  0.0887  1.8526  2.8913
   28SAPC   C36 3769   1.229   7.407   7.284 -0.4649 -0.0911 -0.1781
   28SAPC   H6X 3770   1.146   7.474   7.254 -1.8942 -0.9158  1.7285
   28SAPC   H6Y 3771   1.326   7.462   7.276 -0.8249  0.4118 -1.2340
   28SAPC   C37 3772   1.205   7.370   7.425 -0.5867  0.2149 -0.6561
   28SAPC   H7X 3773   1.270   7.288   7.464  0.1937  2.0550  2.2064
   28SAPC   H7Y 3774   1.099   7.343   7.441 -0.1711 -1.0449  0.1331
   28SAPC   C38 3775   1.239   7.484   7.522 -0.0007 -0.9836  0.7683
   28SAPC   H8X 3776   1.176   7.572   7.497  0.8521 -0.4270  0.5510
   28SAPC   H8Y 3777   1.344   7.509   7.495  0.1562 -2.2115  0.2093
   28SAPC   C39 3778   1.232   7.433   7.661  0.5787  0.9252 -1.0466
   28SAPC   H9X 3779   1.331   7.390   7.688  0.1142  0.8548  0.6175
   28SAPC   H9Y 3780   1.162   7.351   7.683 -0.0168  0.9616 -2.7031
   28SAPC  C310 3781   1.194   7.542   7.762 -0.5081 -0.4400  0.0806
   28SAPC  H10X 3782   1.195   7.490   7.860 -1.6795 -1.3246 -0.3439
   28SAPC  H10Y 3783   1.093   7.581   7.739 -1.6958 -2.9834  0.6194
   28SAPC  C311 3784   1.295   7.653   7.770 -0.0413  0.0842 -0.3600
   28SAPC  H11X 3785   1.293   7.709   7.674 -3.0872 -0.7918 -0.9265
   28SAPC  H11Y 3786   1.394   7.614   7.800 -0.6119 -1.0677  0.0902
   28SAPC  C312 3787   1.263   7.760   7.877  0.5831  0.3014  0.0706
   28SAPC  H12X 3788   1.248   7.709   7.975 -1.3327 -2.3943 -1.4795
   28SAPC  H12Y 3789   1.172   7.818   7.850  0.8866 -0.8724 -4.2260
   28SAPC  C313 3790   1.378   7.866   7.869  0.3076  0.1019 -0.6060
   28SAPC  H13X 3791   1.369   7.925   7.775  2.8717 -0.2785 -1.1679
   28SAPC  H13Y 3792   1.474   7.810   7.868  0.1392 -0.2075  0.0402
   28SAPC  C314 3793   1.373   7.957   7.997 -0.3951 -0.0396  0.6053
   28SAPC  H14X 3794   1.341   7.904   8.090  0.3624 -0.4984  0.6111
   28SAPC  H14Y 3795   1.303   8.042   7.981  1.0518  1.5359  2.2714
   28SAPC  C315 3796   1.513   8.020   8.027 -0.0968  0.3838  0.0895
   28SAPC  H15X 3797   1.568   8.053   7.936  1.3608  2.1092  1.5109
   28SAPC  H15Y 3798   1.587   7.946   8.065  1.4594  2.1927  0.7614
   28SAPC  C316 3799   1.497   8.142   8.121  0.4483 -0.4477  0.0098
   28SAPC  H16X 3800   1.399   8.189   8.100  0.5238  0.1045  0.8544
   28SAPC  H16Y 3801   1.580   8.211   8.096  1.0521 -0.0554  2.7945
   28SAPC  C317 3802   1.497   8.094   8.267  0.4607 -0.4634 -0.3322
   28SAPC  H17X 3803   1.412   8.023   8.265 -2.3392  2.6282 -2.6099
   28SAPC  H17Y 3804   1.460   8.169   8.340  0.0379  1.0878 -2.0441
   28SAPC  C318 3805   1.636   8.044   8.316  0.4082  0.2299  0.5155
   28SAPC  H18X 3806   1.718   8.119   8.326 -0.1242  0.9044 -0.0345
   28SAPC  H18Y 3807   1.672   7.968   8.243  1.4404  1.1547  0.0177
   28SAPC  H18Z 3808   1.629   8.001   8.418  2.2415  1.7501  1.3589
   29SAPC     N 3809   1.962   4.486   6.237 -0.1621 -0.0649 -0.3372
   29SAPC   C12 3810   1.979   4.412   6.367  0.4624 -0.5457 -0.5328
   29SAPC  H12A 3811   1.877   4.406   6.403  0.3107 -0.1393 -0.8779
   29SAPC  H12B 3812   2.014   4.485   6.439 -0.9177  0.1327 -0.5138
   29SAPC   C13 3813   2.097   4.516   6.187  0.0755 -0.3722  0.3872
   29SAPC  H13A 3814   2.148   4.591   6.244 -0.4509  0.1249  0.2148
   29SAPC  H13B 3815   2.160   4.429   6.175 -0.2524 -0.5986  0.2608
   29SAPC  H13C 3816   2.090   4.566   6.092 -1.2276  0.6873  1.0078
   29SAPC   C14 3817   1.901   4.392   6.139  0.2208  0.3148  0.0842
   29SAPC  H14A 3818   1.875   4.431   6.042  0.2630  0.4430  0.1253
   29SAPC  H14B 3819   1.962   4.303   6.132 -0.9820 -0.4262 -2.1363
   29SAPC  H14C 3820   1.815   4.349   6.188 -0.2677 -1.1824 -1.9428
   29SAPC   C15 3821   1.882   4.604   6.260 -0.3059 -0.4335  0.4056
   29SAPC  H15A 3822   1.888   4.660   6.168  0.8722  1.2518  1.4473
   29SAPC  H15B 3823   1.779   4.583   6.284 -1.9745  3.8898 -1.8599
   29SAPC  H15C 3824   1.926   4.669   6.334  0.1967  1.5374 -1.5460
   29SAPC   C11 3825   2.048   4.275   6.366 -0.2917 -0.8783  1.0143
   29SAPC  H11A 3826   2.073   4.246   6.470  1.2849 -1.1086  0.5909
   29SAPC  H11B 3827   2.147   4.272   6.316  0.9190 -1.4387  3.3134
   29SAPC     P 3828   1.836   4.131   6.381  0.2431 -0.1567  0.1519
   29SAPC   O13 3829   1.719   4.203   6.315 -0.0351  0.3479  0.4712
   29SAPC   O14 3830   1.833   3.988   6.390 -0.1106  1.0930  0.5116
   29SAPC   O12 3831   1.970   4.169   6.311 -0.3107 -0.4155 -0.1517
   29SAPC   O11 3832   1.831   4.192   6.530  0.3205 -0.1697  0.1534
   29SAPC    C1 3833   1.886   4.121   6.645 -0.2693 -0.9487  0.9705
   29SAPC    HA 3834   1.979   4.068   6.614 -1.4894 -2.9053  0.4435
   29SAPC    HB 3835   1.920   4.190   6.725  1.5707  1.4462 -1.6990
   29SAPC    C2 3836   1.785   4.008   6.693 -0.1839 -0.1846  0.2565
   29SAPC    HS 3837   1.717   3.998   6.605  1.7000  0.7984 -1.3983
   29SAPC   O21 3838   1.719   4.063   6.804 -0.2347 -0.8628 -0.5539
   29SAPC   C21 3839   1.607   4.016   6.841  0.2092 -0.3432 -0.2944
   29SAPC   O22 3840   1.541   3.934   6.785  0.2662  0.0058  0.6621
   29SAPC   C22 3841   1.567   4.080   6.972  0.6364  0.2366 -0.3510
   29SAPC   H2R 3842   1.649   4.145   7.010  0.5218 -0.8665  1.9146
   29SAPC   H2S 3843   1.471   4.134   6.958  0.5933  0.3064  0.1783
   29SAPC    C3 3844   1.866   3.881   6.726  0.4662 -0.1806  0.1609
   29SAPC    HX 3845   1.924   3.845   6.638  0.4068  0.5898 -0.1985
   29SAPC    HY 3846   1.788   3.803   6.746  0.8095 -0.5385  0.1185
   29SAPC   O31 3847   1.943   3.905   6.845  0.1270  0.5654 -0.6616
   29SAPC   C31 3848   2.072   3.920   6.829 -0.3771  1.3917 -0.4794
   29SAPC   O32 3849   2.138   3.925   6.732  0.2713  0.5258  0.4753
   29SAPC   C32 3850   2.131   3.945   6.975  0.1928  0.2357  0.8472
   29SAPC   H2X 3851   2.110   3.848   7.026  2.0728 -0.0826  1.0861
   29SAPC   H2Y 3852   2.077   4.028   7.026  2.7107  1.0302  2.3792
   29SAPC   C23 3853   1.531   3.973   7.077 -0.2063 -0.2964  0.1840
   29SAPC   H3R 3854   1.426   3.947   7.050  0.0456  0.4421 -1.5692
   29SAPC   H3S 3855   1.523   4.025   7.175  0.9303  0.2047  0.0281
   29SAPC   C24 3856   1.613   3.841   7.091 -0.5525 -0.2156 -0.4829
   29SAPC   H4R 3857   1.630   3.784   6.997 -0.6672  0.0749 -0.6819
   29SAPC   H4S 3858   1.547   3.780   7.156 -0.4821  2.9217  2.8677
   29SAPC   C25 3859   1.747   3.865   7.156  0.3670 -0.6709  1.1787
   29SAPC   H5R 3860   1.818   3.919   7.092 -2.0500  1.4417  0.1083
   29SAPC   C26 3861   1.783   3.821   7.278  0.1008 -0.0866  0.1829
   29SAPC   H6R 3862   1.880   3.865   7.305  1.1767  0.8135 -4.3175
   29SAPC   C27 3863   1.706   3.734   7.383  0.5357 -0.6680  0.1100
   29SAPC   H7R 3864   1.675   3.635   7.343 -1.2956  0.6436 -2.0436
   29SAPC   H7S 3865   1.606   3.782   7.394  1.4980  1.5883 -0.3464
   29SAPC   C28 3866   1.773   3.722   7.524  0.7718 -0.2114  0.8226
   29SAPC   H8R 3867   1.875   3.763   7.529  0.9820 -0.5468 -0.5438
   29SAPC   C29 3868   1.722   3.663   7.635 -0.0182 -0.1264 -0.1235
   29SAPC   H9R 3869   1.785   3.654   7.725 -0.4430 -2.3002  0.0233
   29SAPC  C210 3870   1.585   3.600   7.651 -0.4808 -0.1580 -0.6561
   29SAPC  H10R 3871   1.513   3.660   7.592  0.8711  0.9267 -1.2701
   29SAPC  H10S 3872   1.548   3.624   7.753  1.8827  1.6207 -0.1349
   29SAPC  C211 3873   1.570   3.454   7.622 -0.2896 -0.0630 -0.4923
   29SAPC  H11R 3874   1.586   3.437   7.515  0.9392 -0.4588 -0.2534
   29SAPC  C212 3875   1.541   3.351   7.712 -0.3918 -0.0407 -0.7043
   29SAPC  H12R 3876   1.555   3.250   7.672  2.3337  0.4825 -1.2943
   29SAPC  C213 3877   1.526   3.364   7.865 -0.1814  0.1493  0.3778
   29SAPC  H13R 3878   1.475   3.462   7.875 -2.2436 -0.9098  0.7192
   29SAPC  H13S 3879   1.625   3.377   7.915  0.7113  1.3647 -1.5474
   29SAPC  C214 3880   1.425   3.282   7.923 -0.1300  0.2733 -0.9025
   29SAPC  H14R 3881   1.323   3.315   7.901 -1.3032 -2.2506  0.3239
   29SAPC  C215 3882   1.449   3.179   8.013  0.0586  0.6992  0.4541
   29SAPC  H15R 3883   1.361   3.124   8.050 -1.1989  2.1378 -0.2455
   29SAPC  C216 3884   1.580   3.135   8.075 -0.1830  0.5812  0.1274
   29SAPC  H16R 3885   1.603   3.182   8.173  1.3476  1.1809 -0.4893
   29SAPC  H16S 3886   1.668   3.172   8.018 -0.2278 -1.1824 -1.1641
   29SAPC  C217 3887   1.588   2.977   8.097 -0.7884 -0.1004  0.6160
   29SAPC  H17R 3888   1.488   2.934   8.119 -0.7271  0.4866  2.2252
   29SAPC  H17S 3889   1.639   2.957   8.194  1.8960  1.1180 -0.4498
   29SAPC  C218 3890   1.646   2.908   7.968 -0.0569  0.4541  0.0414
   29SAPC  H18R 3891   1.753   2.937   7.975  0.7567 -1.5922 -2.3114
   29SAPC  H18S 3892   1.621   2.955   7.871  1.8974  0.0520 -0.7085
   29SAPC  C219 3893   1.631   2.757   7.958 -0.7911  0.1015  0.3536
   29SAPC  H19R 3894   1.528   2.719   7.969 -0.2232 -1.5636  0.1318
   29SAPC  H19S 3895   1.694   2.717   8.040 -0.6707  0.7144  0.5695
   29SAPC  C220 3896   1.711   2.710   7.834 -0.2808 -0.1652  0.1691
   29SAPC  H20R 3897   1.748   2.607   7.855  0.4425  0.6032  2.9852
   29SAPC  H20S 3898   1.795   2.778   7.812  0.2121 -1.3624 -2.0201
   29SAPC  H20T 3899   1.655   2.715   7.738  1.7040 -0.7477 -1.0928
   29SAPC   C33 3900   2.281   3.976   6.978  0.6752 -0.2642  0.0604
   29SAPC   H3X 3901   2.300   4.054   6.900  1.7164  0.2379  0.7974
   29SAPC   H3Y 3902   2.336   3.886   6.944  0.4460 -0.4211  0.1066
   29SAPC   C34 3903   2.332   4.026   7.109  0.1144 -0.5828  0.1856
   29SAPC   H4X 3904   2.279   4.117   7.146  3.0333  1.8880 -1.3022
   29SAPC   H4Y 3905   2.434   4.065   7.092 -0.8341  1.8532 -0.5303
   29SAPC   C35 3906   2.346   3.923   7.215 -0.4690 -0.1776 -0.3971
   29SAPC   H5X 3907   2.412   3.842   7.177  0.9853  2.0156 -2.9154
   29SAPC   H5Y 3908   2.247   3.879   7.237  0.2058 -1.1762  0.7890
   29SAPC   C36 3909   2.402   3.969   7.353 -0.6926 -0.2031 -0.6442
   29SAPC   H6X 3910   2.332   4.018   7.423 -1.2689  0.4950 -1.6710
   29SAPC   H6Y 3911   2.489   4.036   7.335  0.6684 -1.7117  0.1740
   29SAPC   C37 3912   2.474   3.847   7.416 -0.2079 -0.0198 -0.0032
   29SAPC   H7X 3913   2.549   3.822   7.338 -0.0563  2.6561 -0.8070
   29SAPC   H7Y 3914   2.400   3.765   7.427  0.9798 -1.1734 -0.3278
   29SAPC   C38 3915   2.544   3.883   7.548  0.1820  0.7185 -0.7038
   29SAPC   H8X 3916   2.482   3.961   7.597 -0.4513  1.7154 -2.9752
   29SAPC   H8Y 3917   2.642   3.923   7.512  0.8386  0.7573  1.0329
   29SAPC   C39 3918   2.584   3.761   7.639 -0.1281 -0.6791 -0.1516
   29SAPC   H9X 3919   2.606   3.675   7.573  2.9240  0.4197 -0.7036
   29SAPC   H9Y 3920   2.491   3.732   7.693 -0.9091  2.3293  0.3010
   29SAPC  C310 3921   2.678   3.789   7.757 -0.3471 -0.6986  0.4252
   29SAPC  H10X 3922   2.632   3.863   7.826  1.6398  1.2201 -0.1746
   29SAPC  H10Y 3923   2.752   3.852   7.705 -0.4245 -1.3590 -0.4987
   29SAPC  C311 3924   2.749   3.676   7.817  0.4026  1.2097  0.2723
   29SAPC  H11X 3925   2.850   3.705   7.852  0.7914  0.1053  0.1082
   29SAPC  H11Y 3926   2.767   3.601   7.736 -1.7031  1.5697 -0.5871
   29SAPC  C312 3927   2.678   3.610   7.938 -0.5216 -0.5071 -0.3166
   29SAPC  H12X 3928   2.575   3.579   7.911 -1.9445  1.5915  2.2198
   29SAPC  H12Y 3929   2.656   3.681   8.020  1.9456 -0.2190  0.1865
   29SAPC  C313 3930   2.749   3.487   7.977 -0.2288  0.4208  0.2166
   29SAPC  H13X 3931   2.766   3.420   7.891 -1.4969  1.4658 -0.8842
   29SAPC  H13Y 3932   2.674   3.430   8.036 -1.8829  2.2083 -0.0575
   29SAPC  C314 3933   2.870   3.505   8.070 -0.6149 -0.4775 -0.3886
   29SAPC  H14X 3934   2.938   3.574   8.014 -0.5858 -1.3211 -1.4216
   29SAPC  H14Y 3935   2.924   3.411   8.093 -1.8922 -0.7484  1.7160
   29SAPC  C315 3936   2.850   3.574   8.204 -0.3604  0.5412 -0.5345
   29SAPC  H15X 3937   2.768   3.513   8.249 -0.1311  0.3993 -0.3053
   29SAPC  H15Y 3938   2.812   3.675   8.177 -0.4022  0.5804 -0.3279
   29SAPC  C316 3939   2.980   3.592   8.294  0.0337 -0.2020 -0.5830
   29SAPC  H16X 3940   3.039   3.676   8.251  1.3960 -1.4551 -1.2823
   29SAPC  H16Y 3941   3.035   3.496   8.278 -1.5193 -1.1335 -0.5207
   29SAPC  C317 3942   2.945   3.604   8.443  0.1903 -0.2362  0.2087
   29SAPC  H17X 3943   2.871   3.524   8.464  1.1921 -0.9191  1.2441
   29SAPC  H17Y 3944   2.891   3.700   8.460 -0.5056 -0.2606 -1.6639
   29SAPC  C318 3945   3.058   3.579   8.535 -0.3330 -0.0811 -0.8697
   29SAPC  H18X 3946   3.140   3.652   8.520 -1.0493  0.4621 -2.2113
   29SAPC  H18Y 3947   3.101   3.476   8.533  0.7286  0.2960  0.5849
   29SAPC  H18Z 3948   3.015   3.590   8.637 -3.4792 -0.1155 -2.0890
   30SAPC     N 3949   4.627   5.211   6.207  0.1408 -0.1865  0.0158
   30SAPC   C12 3950   4.669   5.292   6.323 -0.4534 -0.0235  0.4542
   30SAPC  H12A 3951   4.763   5.249   6.352 -0.5750 -3.0356 -2.9422
   30SAPC  H12B 3952   4.599   5.271   6.402 -0.4446  2.5718  1.2524
   30SAPC   C13 3953   4.504   5.287   6.148 -0.6309 -0.4464  0.0116
   30SAPC  H13A 3954   4.470   5.237   6.059 -0.1150  1.4995 -1.3504
   30SAPC  H13B 3955   4.427   5.289   6.224  0.6269 -0.1510  1.3239
   30SAPC  H13C 3956   4.528   5.388   6.118 -0.8560 -0.2247  0.5615
   30SAPC   C14 3957   4.735   5.202   6.104  0.1918 -0.1603 -0.6097
   30SAPC  H14A 3958   4.707   5.129   6.029 -2.0146 -0.2232  0.2009
   30SAPC  H14B 3959   4.774   5.294   6.062  0.4124  0.5307  1.0462
   30SAPC  H14C 3960   4.816   5.158   6.159  0.0783  1.7864  1.2284
   30SAPC   C15 3961   4.594   5.067   6.249 -0.2833 -1.3330 -0.0783
   30SAPC  H15A 3962   4.586   5.005   6.161 -1.8216 -1.1509 -0.0923
   30SAPC  H15B 3963   4.668   5.030   6.317 -1.3179 -0.2961  1.6938
   30SAPC  H15C 3964   4.498   5.070   6.298 -0.8695 -1.5874 -1.1649
   30SAPC   C11 3965   4.680   5.444   6.295 -0.2862  0.6904  0.2317
   30SAPC  H11A 3966   4.695   5.493   6.393  0.2929 -0.4126  0.7204
   30SAPC  H11B 3967   4.581   5.485   6.267 -0.5099  0.4224  0.6218
   30SAPC     P 3968   4.931   5.491   6.246  0.1355  0.0465  0.0358
   30SAPC   O13 3969   5.020   5.412   6.155 -0.7821  0.0465 -0.2014
   30SAPC   O14 3970   4.962   5.637   6.263  0.3742  0.0079  0.1347
   30SAPC   O12 3971   4.778   5.481   6.199 -0.1457 -0.4397  0.0869
   30SAPC   O11 3972   4.936   5.425   6.384 -0.4671  0.2258  0.1549
   30SAPC    C1 3973   5.047   5.455   6.467 -0.2635  0.2689 -0.1800
   30SAPC    HA 3974   5.141   5.427   6.415 -1.3838 -0.9810 -1.6443
   30SAPC    HB 3975   5.055   5.565   6.480  1.9562  0.1274 -0.0305
   30SAPC    C2 3976   5.031   5.394   6.609 -0.6106 -0.2442  0.3381
   30SAPC    HS 3977   5.046   5.284   6.602  0.4714 -0.1827  1.3417
   30SAPC   O21 3978   4.897   5.407   6.663 -0.0258 -0.0010 -0.3032
   30SAPC   C21 3979   4.831   5.525   6.664  0.4872  0.5199 -0.3373
   30SAPC   O22 3980   4.876   5.637   6.648 -0.3096 -0.2979 -0.1084
   30SAPC   C22 3981   4.686   5.485   6.676 -0.9450 -0.1920 -0.0866
   30SAPC   H2R 3982   4.633   5.582   6.667  3.8546  2.7076 -0.5659
   30SAPC   H2S 3983   4.656   5.435   6.582  1.5813  1.9007 -2.1877
   30SAPC    C3 3984   5.139   5.451   6.705  0.1570  0.4733 -0.2460
   30SAPC    HX 3985   5.116   5.559   6.712 -1.3292  0.1284  0.8891
   30SAPC    HY 3986   5.241   5.441   6.663  0.6054 -0.3750  0.9772
   30SAPC   O31 3987   5.133   5.376   6.829 -0.5325 -0.2591  0.1220
   30SAPC   C31 3988   5.187   5.439   6.941  0.2468  0.7768  0.2025
   30SAPC   O32 3989   5.241   5.546   6.948  0.2207  0.3954 -0.1995
   30SAPC   C32 3990   5.137   5.356   7.061 -0.0880  0.8094  0.0303
   30SAPC   H2X 3991   5.182   5.254   7.056 -1.6882  0.0964 -0.4588
   30SAPC   H2Y 3992   5.029   5.335   7.047  0.4516 -0.5964 -2.7705
   30SAPC   C23 3993   4.652   5.410   6.803  0.3375  0.4281  0.2284
   30SAPC   H3R 3994   4.727   5.335   6.833  1.8828  1.1789 -1.5526
   30SAPC   H3S 3995   4.562   5.349   6.777  2.3283 -2.9018  0.6242
   30SAPC   C24 3996   4.608   5.496   6.924 -0.2929  0.1493 -0.4856
   30SAPC   H4R 3997   4.555   5.430   6.996  0.7516 -0.4760 -0.2717
   30SAPC   H4S 3998   4.534   5.569   6.883  2.9184  2.7968 -2.0376
   30SAPC   C25 3999   4.717   5.574   6.993 -0.0816  0.6550 -0.3119
   30SAPC   H5R 4000   4.739   5.676   6.957 -1.8062  1.3933  0.5899
   30SAPC   C26 4001   4.783   5.527   7.103  0.5621  0.0981 -0.3815
   30SAPC   H6R 4002   4.856   5.593   7.152  0.1094  0.2803  0.0549
   30SAPC   C27 4003   4.754   5.401   7.184  1.0411 -0.3040 -0.1093
   30SAPC   H7R 4004   4.846   5.350   7.223  0.8626 -1.0936 -0.6923
   30SAPC   H7S 4005   4.698   5.323   7.128 -1.3053  1.6889 -0.6865
   30SAPC   C28 4006   4.658   5.432   7.301  0.7039  0.0801  0.7740
   30SAPC   H8R 4007   4.551   5.433   7.278  1.2408  0.1814 -2.0882
   30SAPC   C29 4008   4.704   5.468   7.426 -0.2892  0.5543  0.4383
   30SAPC   H9R 4009   4.624   5.495   7.496 -0.2786  0.2083  0.5827
   30SAPC  C210 4010   4.845   5.469   7.474  0.6586 -0.0947  0.3410
   30SAPC  H10R 4011   4.892   5.569   7.463  2.7794 -0.9670  0.8275
   30SAPC  H10S 4012   4.915   5.396   7.428  0.9401  0.2537  0.2076
   30SAPC  C211 4013   4.848   5.443   7.621  0.3078  0.5862  0.2375
   30SAPC  H11R 4014   4.844   5.337   7.650  0.2473  0.4519 -0.2557
   30SAPC  C212 4015   4.837   5.537   7.716 -1.1535  0.0884 -0.7865
   30SAPC  H12R 4016   4.839   5.503   7.820  1.8957 -2.5451 -1.5526
   30SAPC  C213 4017   4.821   5.692   7.704  0.8832  0.0218 -0.3609
   30SAPC  H13R 4018   4.823   5.715   7.595 -1.2989 -0.7152 -0.6138
   30SAPC  H13S 4019   4.905   5.748   7.751 -1.0901  1.7275  1.3281
   30SAPC  C214 4020   4.692   5.743   7.767 -0.2141  0.0815  0.0558
   30SAPC  H14R 4021   4.607   5.741   7.696  0.7476  0.8409 -1.1733
   30SAPC  C215 4022   4.684   5.808   7.888 -0.6357 -0.5022 -0.2068
   30SAPC  H15R 4023   4.596   5.860   7.929  0.5099 -0.7852  2.9383
   30SAPC  C216 4024   4.789   5.832   7.995 -0.4930  0.4499  0.0710
   30SAPC  H16R 4025   4.785   5.936   8.035 -1.0274  0.1873  0.7143
   30SAPC  H16S 4026   4.896   5.821   7.968  0.3938  1.2782  2.9216
   30SAPC  C217 4027   4.770   5.716   8.096  0.2114 -0.2615 -0.5317
   30SAPC  H17R 4028   4.854   5.718   8.168 -0.9004 -4.7226  1.2358
   30SAPC  H17S 4029   4.781   5.616   8.049 -0.7494 -0.9708  0.7002
   30SAPC  C218 4030   4.644   5.720   8.182 -0.1349  0.7399 -0.0587
   30SAPC  H18R 4031   4.632   5.635   8.253 -0.6538  0.7447 -0.1408
   30SAPC  H18S 4032   4.559   5.718   8.111 -0.1564  2.3440 -0.1022
   30SAPC  C219 4033   4.627   5.854   8.266  0.2556 -0.0489 -0.5006
   30SAPC  H19R 4034   4.613   5.939   8.196 -2.9847 -1.6410 -1.9568
   30SAPC  H19S 4035   4.719   5.868   8.327 -0.0058 -1.0759  0.1630
   30SAPC  C220 4036   4.511   5.821   8.361 -0.3068 -0.3604 -0.2709
   30SAPC  H20R 4037   4.521   5.723   8.412  2.3947 -0.2245 -0.3809
   30SAPC  H20S 4038   4.422   5.803   8.297 -1.2702  0.8032  0.6905
   30SAPC  H20T 4039   4.496   5.903   8.435  0.4357 -0.6122  0.1631
   30SAPC   C33 4040   5.175   5.413   7.197 -0.1036  0.1611 -0.2315
   30SAPC   H3X 4041   5.098   5.489   7.222  0.2522  1.1817 -2.0639
   30SAPC   H3Y 4042   5.271   5.468   7.184 -0.3965  0.5116 -0.9963
   30SAPC   C34 4043   5.182   5.320   7.314 -0.2418  0.5705  0.0593
   30SAPC   H4X 4044   5.223   5.218   7.297 -2.5103 -0.2045 -1.2895
   30SAPC   H4Y 4045   5.076   5.294   7.336 -0.4778  1.2518 -0.2438
   30SAPC   C35 4046   5.248   5.380   7.430  0.4645  0.5723 -0.8271
   30SAPC   H5X 4047   5.228   5.490   7.431  0.0510  0.5006  0.1188
   30SAPC   H5Y 4048   5.357   5.359   7.437  0.6832  1.9926  0.7309
   30SAPC   C36 4049   5.209   5.322   7.571  0.3006  0.2249 -0.4613
   30SAPC   H6X 4050   5.238   5.216   7.587 -3.0799 -0.4556  2.1756
   30SAPC   H6Y 4051   5.100   5.303   7.585  0.5251  0.4706  1.9792
   30SAPC   C37 4052   5.263   5.409   7.686  0.0104  0.1863  0.2416
   30SAPC   H7X 4053   5.208   5.505   7.685 -0.1298  0.1571 -2.6761
   30SAPC   H7Y 4054   5.369   5.433   7.666 -0.1022  1.2468  0.8275
   30SAPC   C38 4055   5.245   5.348   7.823 -0.1441  0.7240 -0.3031
   30SAPC   H8X 4056   5.328   5.385   7.887 -1.7158  0.1859  2.1768
   30SAPC   H8Y 4057   5.259   5.238   7.816 -1.2843  0.4795  0.8868
   30SAPC   C39 4058   5.116   5.385   7.886 -0.3596  0.4585 -0.3888
   30SAPC   H9X 4059   5.035   5.333   7.831  0.8074 -4.8450  2.2923
   30SAPC   H9Y 4060   5.100   5.493   7.865 -1.7358  0.8965  2.5211
   30SAPC  C310 4061   5.090   5.341   8.035 -0.2538  0.3666 -0.2841
   30SAPC  H10X 4062   5.135   5.240   8.038  1.1272  0.9796  0.6866
   30SAPC  H10Y 4063   4.983   5.345   8.064  0.0337  0.9088  0.7548
   30SAPC  C311 4064   5.179   5.422   8.122 -0.3189 -0.6198 -0.2010
   30SAPC  H11X 4065   5.167   5.525   8.081 -2.3498 -1.4686 -1.9458
   30SAPC  H11Y 4066   5.287   5.399   8.117 -0.5977 -1.7051 -1.8457
   30SAPC  C312 4067   5.143   5.416   8.271  0.1309  0.0245 -0.0101
   30SAPC  H12X 4068   5.236   5.449   8.321  1.2600 -1.6454 -0.9266
   30SAPC  H12Y 4069   5.134   5.312   8.309 -1.4355  0.2718  0.3683
   30SAPC  C313 4070   5.028   5.507   8.307 -0.3022  0.1075  0.3911
   30SAPC  H13X 4071   4.948   5.462   8.245  0.7269  0.2640 -1.0978
   30SAPC  H13Y 4072   5.041   5.610   8.268 -1.3055 -0.5664 -1.8915
   30SAPC  C314 4073   4.985   5.501   8.450 -0.7441  0.7704 -0.1179
   30SAPC  H14X 4074   5.075   5.528   8.510  1.7021 -3.4178 -1.5324
   30SAPC  H14Y 4075   4.962   5.397   8.479 -1.2869  0.4240 -1.7060
   30SAPC  C315 4076   4.871   5.593   8.482 -0.0845 -0.2466  0.6016
   30SAPC  H15X 4077   4.783   5.585   8.415  0.4954 -3.0836  0.0652
   30SAPC  H15Y 4078   4.907   5.699   8.475  1.7355 -0.8712 -0.3723
   30SAPC  C316 4079   4.823   5.589   8.629  0.0662  0.3931  0.2002
   30SAPC  H16X 4080   4.820   5.484   8.665 -0.5863 -0.3429 -1.8302
   30SAPC  H16Y 4081   4.720   5.630   8.633 -0.1630 -0.0971 -0.3798
   30SAPC  C317 4082   4.917   5.679   8.710 -0.1493  0.4233  0.2934
   30SAPC  H17X 4083   4.912   5.782   8.670  3.2289  1.5177  2.3278
   30SAPC  H17Y 4084   5.023   5.650   8.696  0.2410  2.5510 -1.4975
   30SAPC  C318 4085   4.885   5.667   8.861 -0.3913 -0.1120  0.7282
   30SAPC  H18X 4086   4.780   5.680   8.896 -1.8949 -1.9758 -2.6325
   30SAPC  H18Y 4087   4.946   5.739   8.920  0.3733 -0.3746  0.2698
   30SAPC  H18Z 4088   4.924   5.567   8.887  2.6481  0.1641 -2.1251
   31SAPC     N 4089   0.262   6.101   5.973  0.0445  0.1109 -0.1824
   31SAPC   C12 4090   0.131   6.027   5.957  0.1558  1.0484 -0.5200
   31SAPC  H12A 4091   0.148   5.926   5.921  1.7408  0.8701  0.6006
   31SAPC  H12B 4092   0.065   6.080   5.890  0.3533 -1.6038 -3.0047
   31SAPC   C13 4093   0.319   6.131   5.840 -0.4300  0.6581 -0.2613
   31SAPC  H13A 4094   0.398   6.202   5.826 -1.0042  1.1321 -1.2023
   31SAPC  H13B 4095   0.354   6.044   5.786 -1.3029  0.8730 -1.1950
   31SAPC  H13C 4096   0.232   6.170   5.789 -0.4345  3.0323  1.3756
   31SAPC   C14 4097   0.246   6.230   6.047  0.2057  0.2284  0.1012
   31SAPC  H14A 4098   0.216   6.203   6.147 -1.9119 -2.8657 -1.2248
   31SAPC  H14B 4099   0.332   6.295   6.045  1.0144 -0.8248 -1.9320
   31SAPC  H14C 4100   0.165   6.291   6.009  0.8480 -0.5995 -2.8406
   31SAPC   C15 4101   0.365   6.012   6.044  0.2993 -0.0723  0.6671
   31SAPC  H15A 4102   0.376   5.919   5.990 -0.0511  0.9882 -1.3202
   31SAPC  H15B 4103   0.456   6.070   6.046 -0.5225  1.3009 -0.3855
   31SAPC  H15C 4104   0.338   5.987   6.146 -0.4167 -0.0818  0.4837
   31SAPC   C11 4105   0.046   6.011   6.087  0.0796  0.0081 -0.0593
   31SAPC  H11A 4106  -0.045   5.956   6.056  1.1020 -0.8714 -1.6556
   31SAPC  H11B 4107   0.017   6.112   6.123 -1.0470 -0.0817 -0.6968
   31SAPC     P 4108   0.143   5.945   6.328 -0.3066  0.0252 -0.2289
   31SAPC   O13 4109   0.032   5.870   6.393 -0.1834 -0.0677  0.5908
   31SAPC   O14 4110   0.284   5.902   6.350  0.6991  0.5087 -0.1009
   31SAPC   O12 4111   0.121   5.927   6.174  0.0638  0.3401 -0.2398
   31SAPC   O11 4112   0.124   6.097   6.350 -0.1527  0.0525  0.1769
   31SAPC    C1 4113   0.210   6.169   6.438  0.0512  0.0093  0.2834
   31SAPC    HA 4114   0.318   6.160   6.412  0.0350 -0.4136  0.3461
   31SAPC    HB 4115   0.199   6.278   6.423 -0.4243 -0.2047 -1.1379
   31SAPC    C2 4116   0.181   6.146   6.588  0.0801  0.0453 -0.2863
   31SAPC    HS 4117   0.242   6.058   6.618  0.6540 -0.1119 -1.8318
   31SAPC   O21 4118   0.043   6.131   6.621  0.2452 -0.3843 -0.2254
   31SAPC   C21 4119   0.012   6.036   6.708  0.3492 -0.0783 -0.7998
   31SAPC   O22 4120   0.076   5.959   6.771  0.1081  0.4165 -0.7527
   31SAPC   C22 4121  -0.141   6.052   6.739  0.3546 -0.0033  0.1934
   31SAPC   H2R 4122  -0.169   6.150   6.784 -0.6856 -1.5500  3.1816
   31SAPC   H2S 4123  -0.190   6.028   6.643  3.5422 -1.4080 -1.2364
   31SAPC    C3 4124   0.231   6.264   6.675 -0.0760 -0.1002  0.2666
   31SAPC    HX 4125   0.168   6.351   6.650 -0.6541 -0.3456  0.8472
   31SAPC    HY 4126   0.335   6.294   6.649 -0.5513  2.0175  0.6311
   31SAPC   O31 4127   0.215   6.237   6.818  0.5771 -0.1357  0.8223
   31SAPC   C31 4128   0.313   6.165   6.875  0.8189  0.1577  0.9295
   31SAPC   O32 4129   0.406   6.119   6.815 -0.3288 -0.3826 -0.1089
   31SAPC   C32 4130   0.290   6.144   7.018 -0.2579  0.2263 -0.4616
   31SAPC   H2X 4131   0.266   6.245   7.058 -2.8585 -0.8740  0.9296
   31SAPC   H2Y 4132   0.379   6.093   7.061 -2.7162 -3.7654  0.3490
   31SAPC   C23 4133  -0.179   5.947   6.841  0.5671  0.5841 -0.6314
   31SAPC   H3R 4134  -0.127   5.966   6.937 -0.8976  3.1477 -0.2434
   31SAPC   H3S 4135  -0.145   5.850   6.799 -0.2675  0.7092 -1.6411
   31SAPC   C24 4136  -0.328   5.943   6.877  0.1038 -0.5384 -0.3133
   31SAPC   H4R 4137  -0.355   5.840   6.909  0.4975 -0.3107  0.7998
   31SAPC   H4S 4138  -0.386   5.950   6.782  0.4693  1.7641 -0.4301
   31SAPC   C25 4139  -0.358   6.065   6.965 -0.0818  0.2745  0.3132
   31SAPC   H5R 4140  -0.372   6.160   6.912  0.2355  1.5960  2.4521
   31SAPC   C26 4141  -0.364   6.060   7.103  0.0526  0.2095  0.8930
   31SAPC   H6R 4142  -0.415   6.144   7.153 -1.2280  0.4639 -0.7488
   31SAPC   C27 4143  -0.341   5.944   7.193  0.3161 -0.1632  0.1770
   31SAPC   H7R 4144  -0.249   5.967   7.251 -0.0302 -0.5986  0.9200
   31SAPC   H7S 4145  -0.316   5.851   7.137  0.6234 -0.5578  0.9557
   31SAPC   C28 4146  -0.461   5.919   7.280 -0.0633 -0.0046 -0.7359
   31SAPC   H8R 4147  -0.559   5.926   7.230 -1.2544 -0.8508  1.3837
   31SAPC   C29 4148  -0.455   5.887   7.410 -0.0839 -0.0383  0.1731
   31SAPC   H9R 4149  -0.550   5.888   7.465 -1.6200 -0.7159 -2.3271
   31SAPC  C210 4150  -0.332   5.882   7.501 -0.0311 -0.3638  1.1905
   31SAPC  H10R 4151  -0.363   5.913   7.603 -1.2133  1.7004  0.2682
   31SAPC  H10S 4152  -0.249   5.938   7.453  1.5567 -2.3289  1.5102
   31SAPC  C211 4153  -0.290   5.737   7.513 -0.1343  0.9305 -1.0249
   31SAPC  H11R 4154  -0.265   5.679   7.423  1.3989 -1.2658  0.7153
   31SAPC  C212 4155  -0.259   5.670   7.630 -0.5387  0.2271 -0.0778
   31SAPC  H12R 4156  -0.235   5.563   7.618  0.2826  0.4321 -0.3327
   31SAPC  C213 4157  -0.268   5.716   7.771 -0.5935 -0.2313 -0.2137
   31SAPC  H13R 4158  -0.269   5.635   7.847  0.5247  0.2359  0.3147
   31SAPC  H13S 4159  -0.364   5.771   7.786 -0.8207 -0.7319  0.1952
   31SAPC  C214 4160  -0.155   5.811   7.798  0.5658  0.3588 -0.6532
   31SAPC  H14R 4161  -0.099   5.843   7.709 -0.8549  2.0472 -0.9909
   31SAPC  C215 4162  -0.119   5.863   7.915  0.4491 -0.6665  0.3652
   31SAPC  H15R 4163  -0.030   5.927   7.918  0.8608 -1.2475  1.0282
   31SAPC  C216 4164  -0.192   5.853   8.050 -0.1484  0.1552  0.3391
   31SAPC  H16R 4165  -0.300   5.828   8.045 -0.3122  0.6099  1.4114
   31SAPC  H16S 4166  -0.193   5.957   8.091  0.8401 -0.5086  2.1358
   31SAPC  C217 4167  -0.123   5.771   8.165 -0.1472  0.1390  0.4061
   31SAPC  H17R 4168  -0.036   5.833   8.195  0.6768  0.6755 -2.7456
   31SAPC  H17S 4169  -0.078   5.672   8.143 -2.0471 -0.5846 -0.4324
   31SAPC  C218 4170  -0.219   5.757   8.285  0.0655  0.8482 -0.4920
   31SAPC  H18R 4171  -0.299   5.691   8.245 -0.2957  1.2847 -0.5038
   31SAPC  H18S 4172  -0.256   5.858   8.316 -0.3980 -0.2296  2.8618
   31SAPC  C219 4173  -0.156   5.681   8.403  0.1086 -0.4616  0.3921
   31SAPC  H19R 4174  -0.071   5.744   8.436  0.2906 -0.4567 -0.0811
   31SAPC  H19S 4175  -0.112   5.587   8.364  2.0919  0.2273  0.8634
   31SAPC  C220 4176  -0.241   5.643   8.527  0.0364  0.0790 -0.1509
   31SAPC  H20R 4177  -0.318   5.569   8.494  0.1054 -0.3002  0.5165
   31SAPC  H20S 4178  -0.296   5.730   8.569  1.9780  0.4990  1.7031
   31SAPC  H20T 4179  -0.180   5.585   8.599  1.8112  0.3343 -1.3940
   31SAPC   C33 4180   0.169   6.059   7.062  0.1064 -0.1534 -0.3099
   31SAPC   H3X 4181   0.196   5.951   7.057  1.4918  0.1778 -0.2170
   31SAPC   H3Y 4182   0.082   6.081   6.995 -1.6717  0.2739  2.0063
   31SAPC   C34 4183   0.136   6.088   7.214  0.2987  0.0392 -0.0917
   31SAPC   H4X 4184   0.036   6.048   7.241  0.3821 -1.2057 -1.4724
   31SAPC   H4Y 4185   0.126   6.198   7.223  0.0303 -0.0541  0.7783
   31SAPC   C35 4186   0.235   6.027   7.310 -0.8947  0.3089  0.5861
   31SAPC   H5X 4187   0.326   6.091   7.309  0.0168 -0.9333  1.4080
   31SAPC   H5Y 4188   0.263   5.924   7.281  0.7794  0.1774  2.4776
   31SAPC   C36 4189   0.192   6.019   7.461 -0.7645  0.4861 -0.1650
   31SAPC   H6X 4190   0.098   5.961   7.468 -1.6934  1.8860 -0.5193
   31SAPC   H6Y 4191   0.177   6.123   7.499 -0.2803  0.2832  0.6099
   31SAPC   C37 4192   0.312   5.954   7.533 -0.1478 -0.2332  0.0636
   31SAPC   H7X 4193   0.406   5.991   7.488 -1.6566  2.3500 -1.1845
   31SAPC   H7Y 4194   0.298   5.847   7.508 -1.2045 -0.4375  1.3776
   31SAPC   C38 4195   0.310   5.964   7.688 -0.1585 -0.9701  0.4637
   31SAPC   H8X 4196   0.212   5.921   7.719 -0.3451 -1.6968 -1.0413
   31SAPC   H8Y 4197   0.304   6.070   7.720 -1.0420 -0.8204 -0.1499
   31SAPC   C39 4198   0.428   5.901   7.764  0.2395 -0.2975 -0.2785
   31SAPC   H9X 4199   0.520   5.959   7.741 -0.7176  0.5233 -2.2752
   31SAPC   H9Y 4200   0.452   5.800   7.724 -2.2458 -1.1717  0.2802
   31SAPC  C310 4201   0.392   5.882   7.919 -0.2717  0.2181 -0.3768
   31SAPC  H10X 4202   0.359   5.777   7.933  0.2037  0.3369  2.1258
   31SAPC  H10Y 4203   0.310   5.953   7.944  0.6157  0.4916  1.9254
   31SAPC  C311 4204   0.505   5.926   8.010  0.2979  0.2930 -0.4480
   31SAPC  H11X 4205   0.456   5.953   8.106  1.7286  0.4628  0.2692
   31SAPC  H11Y 4206   0.549   6.021   7.974  0.5912  0.3350  0.0056
   31SAPC  C312 4207   0.609   5.826   8.038  0.1786 -0.0759  0.1401
   31SAPC  H12X 4208   0.665   5.805   7.944 -1.0149  1.5917 -0.9997
   31SAPC  H12Y 4209   0.558   5.734   8.073  0.0778  0.1273  0.5380
   31SAPC  C313 4210   0.705   5.869   8.153 -0.6763  0.4110  0.1629
   31SAPC  H13X 4211   0.643   5.892   8.242  0.2586 -0.8477  1.1790
   31SAPC  H13Y 4212   0.770   5.955   8.130  2.4123 -1.5364  1.0439
   31SAPC  C314 4213   0.800   5.752   8.197  1.1626 -0.2828  0.0531
   31SAPC  H14X 4214   0.875   5.736   8.116  3.5434  1.4302  1.7736
   31SAPC  H14Y 4215   0.744   5.657   8.210  2.6602 -1.1468  0.4223
   31SAPC  C315 4216   0.875   5.786   8.327 -0.0751  0.3133 -0.4105
   31SAPC  H15X 4217   0.919   5.690   8.363  3.6094  2.5060  1.4659
   31SAPC  H15Y 4218   0.796   5.797   8.405 -1.4429 -3.7614 -0.9591
   31SAPC  C316 4219   0.977   5.904   8.322  0.3197 -0.4077 -0.3285
   31SAPC  H16X 4220   1.003   5.915   8.215  0.4125  0.3257 -0.2350
   31SAPC  H16Y 4221   1.059   5.867   8.387 -0.9991 -1.6969  0.6923
   31SAPC  C317 4222   0.920   6.028   8.380 -0.0414 -0.4236  0.8522
   31SAPC  H17X 4223   0.897   6.017   8.488  2.6032 -1.1719  1.4039
   31SAPC  H17Y 4224   0.824   6.049   8.328  0.6568  1.0988  0.1083
   31SAPC  C318 4225   1.009   6.154   8.362  0.2703 -0.1687  0.3355
   31SAPC  H18X 4226   1.094   6.140   8.432  1.4619 -0.7669 -1.1671
   31SAPC  H18Y 4227   0.961   6.251   8.387 -0.4474 -0.7844  1.4121
   31SAPC  H18Z 4228   1.062   6.152   8.264  0.5215 -0.7545  0.4795
   32SAPC     N 4229   0.696   1.146   6.041  0.7004 -0.1883  0.0912
   32SAPC   C12 4230   0.764   1.130   6.174 -0.1781 -0.3663  0.1111
   32SAPC  H12A 4231   0.867   1.099   6.166 -0.2490 -1.7564  3.0187
   32SAPC  H12B 4232   0.719   1.044   6.220  2.3466 -2.7538 -1.5687
   32SAPC   C13 4233   0.547   1.182   6.056 -0.9380 -0.7459  0.7072
   32SAPC  H13A 4234   0.542   1.289   6.068  2.9560 -0.3505  0.1349
   32SAPC  H13B 4235   0.493   1.162   5.964  0.6127  1.4083 -0.7892
   32SAPC  H13C 4236   0.500   1.127   6.136  0.2393 -2.5702  0.2179
   32SAPC   C14 4237   0.775   1.256   5.966  0.7278 -0.1617 -0.2753
   32SAPC  H14A 4238   0.743   1.270   5.863  1.5304 -0.3422 -0.5521
   32SAPC  H14B 4239   0.765   1.346   6.025  3.0104 -0.0096 -0.0481
   32SAPC  H14C 4240   0.881   1.244   5.955  1.1820  2.8571 -0.1699
   32SAPC   C15 4241   0.712   1.011   5.977  0.6359  0.4531  0.0193
   32SAPC  H15A 4242   0.655   0.935   6.028 -1.1109  0.8468 -1.2554
   32SAPC  H15B 4243   0.670   1.013   5.877  3.8883 -1.6446 -1.6040
   32SAPC  H15C 4244   0.817   0.985   5.971  0.8355  0.8418  1.5896
   32SAPC   C11 4245   0.754   1.248   6.279  0.1941 -0.2615 -0.4965
   32SAPC  H11A 4246   0.788   1.208   6.376 -2.5393 -3.5729 -0.7067
   32SAPC  H11B 4247   0.654   1.294   6.294  0.8142  1.5818 -1.6124
   32SAPC     P 4248   0.994   1.372   6.264 -0.3685 -0.1317  0.8636
   32SAPC   O13 4249   1.060   1.278   6.172 -0.4876  0.2624  0.1180
   32SAPC   O14 4250   1.044   1.513   6.259  0.6385 -0.2731 -0.0047
   32SAPC   O12 4251   0.839   1.360   6.238 -0.7364 -0.2930  0.0658
   32SAPC   O11 4252   1.013   1.317   6.405  0.1723 -0.5412  0.6787
   32SAPC    C1 4253   0.975   1.383   6.523 -0.0912 -0.2104  0.3474
   32SAPC    HA 4254   0.936   1.486   6.503  1.2274  0.6233  1.8889
   32SAPC    HB 4255   0.883   1.336   6.565 -0.1399  0.0810  0.5696
   32SAPC    C2 4256   1.093   1.384   6.618  0.0971  0.2269  0.0658
   32SAPC    HS 4257   1.167   1.437   6.554 -0.1618  1.6088  0.8701
   32SAPC   O21 4258   1.132   1.248   6.641  0.0645  0.9973 -0.1722
   32SAPC   C21 4259   1.260   1.220   6.654  0.5210 -0.1286  0.2133
   32SAPC   O22 4260   1.347   1.309   6.654  0.0897 -0.4672 -0.5100
   32SAPC   C22 4261   1.287   1.072   6.667 -0.3108 -0.1420  0.4873
   32SAPC   H2R 4262   1.201   1.018   6.714 -1.2642  2.4770  1.9889
   32SAPC   H2S 4263   1.312   1.038   6.565  2.4102 -1.3205  1.4483
   32SAPC    C3 4264   1.052   1.467   6.744  0.3188  0.0540  0.0474
   32SAPC    HX 4265   0.956   1.429   6.785 -0.0668 -0.0828 -0.9501
   32SAPC    HY 4266   1.040   1.575   6.720  0.9357 -0.1905 -1.5356
   32SAPC   O31 4267   1.153   1.472   6.849  0.1894  0.6769 -0.4914
   32SAPC   C31 4268   1.251   1.553   6.832  0.0059 -0.1594 -0.5621
   32SAPC   O32 4269   1.268   1.626   6.737 -0.0613 -0.1505 -0.3088
   32SAPC   C32 4270   1.365   1.543   6.936  0.1787  0.2144 -0.0213
   32SAPC   H2X 4271   1.453   1.576   6.877 -0.7466  0.6062 -1.2121
   32SAPC   H2Y 4272   1.390   1.448   6.988  3.3127  2.5517  3.3173
   32SAPC   C23 4273   1.407   1.060   6.757  0.0413  0.0788  0.1718
   32SAPC   H3R 4274   1.488   1.127   6.722  1.1639  1.7761  5.2130
   32SAPC   H3S 4275   1.447   0.956   6.749 -0.5829 -0.0792 -1.2394
   32SAPC   C24 4276   1.371   1.085   6.907 -0.2012  0.1105  0.0589
   32SAPC   H4R 4277   1.330   1.188   6.912  0.1801  0.2375  0.6144
   32SAPC   H4S 4278   1.466   1.075   6.963 -0.6986  0.0492  0.9125
   32SAPC   C25 4279   1.278   0.978   6.960 -0.4531  0.0678  0.2682
   32SAPC   H5R 4280   1.219   0.925   6.884 -0.9436  0.7466  0.1688
   32SAPC   C26 4281   1.258   0.962   7.092  0.0315  0.0227  0.9452
   32SAPC   H6R 4282   1.186   0.882   7.117 -1.3344 -0.1069 -2.6748
   32SAPC   C27 4283   1.320   1.048   7.202  0.2542 -0.2800  0.2013
   32SAPC   H7R 4284   1.287   1.153   7.187 -0.2029 -0.4679 -0.1390
   32SAPC   H7S 4285   1.431   1.042   7.198  0.4698  2.5029 -0.4613
   32SAPC   C28 4286   1.256   1.003   7.336  0.1662 -0.5968 -0.5078
   32SAPC   H8R 4287   1.292   0.904   7.366  0.5063 -0.1082  0.7659
   32SAPC   C29 4288   1.176   1.070   7.419  0.4173 -0.2782  0.3385
   32SAPC   H9R 4289   1.148   1.023   7.514 -0.2096  3.0338  1.9547
   32SAPC  C210 4290   1.125   1.213   7.418 -0.1297  0.4867 -0.1745
   32SAPC  H10R 4291   1.014   1.214   7.414 -0.1439  1.0509  0.2665
   32SAPC  H10S 4292   1.150   1.270   7.326 -3.4301 -2.6040 -3.2814
   32SAPC  C211 4293   1.174   1.286   7.539 -0.5284 -0.6949  0.2733
   32SAPC  H11R 4294   1.278   1.321   7.536 -1.1450  1.4999  2.1370
   32SAPC  C212 4295   1.104   1.305   7.650  0.6511  0.2157  0.5097
   32SAPC  H12R 4296   1.157   1.349   7.736  2.9775 -0.1763 -0.6363
   32SAPC  C213 4297   0.973   1.249   7.691 -0.5403 -0.2355 -0.7081
   32SAPC  H13R 4298   0.980   1.171   7.770  0.4252  0.8050  0.2690
   32SAPC  H13S 4299   0.928   1.200   7.602  2.1512 -0.4852 -2.0234
   32SAPC  C214 4300   0.886   1.366   7.737  0.2624  0.1013  0.5955
   32SAPC  H14R 4301   0.817   1.396   7.657 -0.3484 -1.8681  0.3362
   32SAPC  C215 4302   0.886   1.427   7.858  0.1840  0.4048 -0.0966
   32SAPC  H15R 4303   0.815   1.508   7.880 -1.9882 -1.8075  1.5841
   32SAPC  C216 4304   0.979   1.382   7.971 -0.4159 -0.5613 -0.3472
   32SAPC  H16R 4305   0.992   1.468   8.040  1.0237 -0.1121 -1.1442
   32SAPC  H16S 4306   1.078   1.347   7.935 -1.1837 -0.8259 -2.3347
   32SAPC  C217 4307   0.927   1.253   8.046 -0.4949  0.1822  0.3348
   32SAPC  H17R 4308   0.940   1.160   7.985 -0.0319 -2.6287  4.3341
   32SAPC  H17S 4309   0.816   1.252   8.058 -0.4603  1.2212  0.7845
   32SAPC  C218 4310   0.999   1.232   8.169 -0.3060 -0.2749 -0.7390
   32SAPC  H18R 4311   0.965   1.315   8.236 -1.2776  1.3249 -3.0865
   32SAPC  H18S 4312   1.110   1.226   8.157 -0.3962 -0.6891 -1.3726
   32SAPC  C219 4313   0.960   1.101   8.245  0.0431  0.4165  0.5958
   32SAPC  H19R 4314   0.984   1.013   8.182 -0.2220  0.6996  0.0957
   32SAPC  H19S 4315   0.849   1.103   8.259  0.1931 -1.4979  2.7072
   32SAPC  C220 4316   1.010   1.080   8.385 -0.4231 -0.2718  0.4427
   32SAPC  H20R 4317   0.968   0.988   8.431  0.5101 -0.1311  1.6275
   32SAPC  H20S 4318   0.979   1.173   8.438 -0.4764  1.3602 -2.2810
   32SAPC  H20T 4319   1.121   1.083   8.382 -0.3740 -1.2542 -3.0168
   32SAPC   C33 4320   1.351   1.640   7.053 -0.4465 -0.5400 -0.2675
   32SAPC   H3X 4321   1.303   1.734   7.018  1.5252  1.5932  2.3414
   32SAPC   H3Y 4322   1.454   1.669   7.083 -0.0185  0.6939 -2.6706
   32SAPC   C34 4323   1.255   1.579   7.158 -0.3353 -0.0803 -0.1822
   32SAPC   H4X 4324   1.301   1.490   7.207 -0.2695 -0.0676 -0.2197
   32SAPC   H4Y 4325   1.159   1.551   7.110  0.3289 -1.1789 -0.9214
   32SAPC   C35 4326   1.226   1.685   7.271  0.2765  0.4145 -0.0519
   32SAPC   H5X 4327   1.181   1.776   7.226  0.4019 -0.7094 -2.5708
   32SAPC   H5Y 4328   1.316   1.715   7.329 -1.8682  1.7248  2.8952
   32SAPC   C36 4329   1.139   1.617   7.375 -0.5765  0.6133 -0.1144
   32SAPC   H6X 4330   1.197   1.542   7.434 -0.9536  1.6248  1.6110
   32SAPC   H6Y 4331   1.057   1.560   7.326 -0.1379 -0.5509  0.4584
   32SAPC   C37 4332   1.080   1.722   7.469 -0.2279 -0.0891  0.5919
   32SAPC   H7X 4333   1.050   1.809   7.406  0.8484 -1.1838 -1.5426
   32SAPC   H7Y 4334   1.159   1.758   7.539 -0.5773  2.4096 -0.1856
   32SAPC   C38 4335   0.960   1.664   7.538 -0.2032  0.2397  0.5671
   32SAPC   H8X 4336   1.004   1.592   7.610  3.2747 -0.1611 -1.7151
   32SAPC   H8Y 4337   0.896   1.610   7.466  0.5349 -0.6381  0.5542
   32SAPC   C39 4338   0.870   1.760   7.615  0.5270  0.3748 -0.3871
   32SAPC   H9X 4339   0.793   1.696   7.664 -0.4734  1.1195 -0.9470
   32SAPC   H9Y 4340   0.816   1.826   7.544 -2.0017 -1.4321 -0.2504
   32SAPC  C310 4341   0.943   1.845   7.722  0.7151  0.6478 -0.1952
   32SAPC  H10X 4342   0.990   1.926   7.662 -0.8772  0.8378 -1.2483
   32SAPC  H10Y 4343   1.024   1.781   7.762 -0.7985 -2.1133 -1.2688
   32SAPC  C311 4344   0.852   1.869   7.842 -0.1836  0.2931 -0.3509
   32SAPC  H11X 4345   0.786   1.780   7.853 -0.2359  0.0955 -1.9854
   32SAPC  H11Y 4346   0.779   1.951   7.832  0.2761  0.6366 -0.9451
   32SAPC  C312 4347   0.927   1.882   7.972 -0.3086 -0.0366  0.0147
   32SAPC  H12X 4348   1.011   1.952   7.948  0.4159 -2.0676 -4.4660
   32SAPC  H12Y 4349   0.977   1.788   8.001  1.1439  0.4424 -0.8031
   32SAPC  C313 4350   0.844   1.936   8.092  0.3692 -0.5532 -0.2825
   32SAPC  H13X 4351   0.814   2.043   8.081 -0.1449 -0.6925 -0.2546
   32SAPC  H13Y 4352   0.913   1.932   8.179  2.4715 -0.3310 -1.8662
   32SAPC  C314 4353   0.702   1.872   8.107 -0.3085  1.1336 -0.8951
   32SAPC  H14X 4354   0.730   1.765   8.089 -0.9233  0.8763 -0.3526
   32SAPC  H14Y 4355   0.635   1.912   8.028 -0.2755  0.3755 -1.3195
   32SAPC  C315 4356   0.639   1.891   8.252 -0.1145 -0.0558  0.3766
   32SAPC  H15X 4357   0.545   1.833   8.246 -0.1560  0.1237 -2.0201
   32SAPC  H15Y 4358   0.623   2.001   8.261 -2.3255 -0.3568  0.6144
   32SAPC  C316 4359   0.726   1.830   8.360  0.8838 -0.2049 -0.5068
   32SAPC  H16X 4360   0.805   1.905   8.385  0.2707  1.0802 -2.2344
   32SAPC  H16Y 4361   0.777   1.739   8.321  2.1365 -0.4313  1.5125
   32SAPC  C317 4362   0.654   1.778   8.488  0.1699 -0.6103  0.0770
   32SAPC  H17X 4363   0.618   1.675   8.463  0.4111 -0.2782 -1.8522
   32SAPC  H17Y 4364   0.565   1.838   8.518  2.0641  3.2986 -1.4488
   32SAPC  C318 4365   0.737   1.771   8.610 -0.0537  0.3571  1.3280
   32SAPC  H18X 4366   0.670   1.758   8.698 -0.3739  1.1427  1.2126
   32SAPC  H18Y 4367   0.798   1.863   8.626  2.7847 -1.6014  2.5143
   32SAPC  H18Z 4368   0.796   1.677   8.604  0.9918  1.0654 -0.6227
   33POPC     N 4369   1.916   0.760  10.968 -0.0503 -0.1237 -0.8267
   33POPC   C12 4370   1.997   0.749  10.840  0.9466  0.3459  0.5054
   33POPC  H12A 4371   1.931   0.700  10.769  1.4060 -0.4594  0.6268
   33POPC  H12B 4372   2.080   0.680  10.850  0.2307 -0.2950  2.5628
   33POPC   C13 4373   1.871   0.632  11.006 -0.7026  0.6338  0.4282
   33POPC  H13A 4374   1.798   0.633  11.085 -0.3697 -0.0612  0.7536
   33POPC  H13B 4375   1.833   0.581  10.919  2.2896  0.0047 -0.6504
   33POPC  H13C 4376   1.954   0.567  11.030  0.3727  1.6775 -0.3546
   33POPC   C14 4377   2.011   0.807  11.079  0.5026  0.0043 -0.1907
   33POPC  H14A 4378   2.052   0.905  11.059 -0.9577  0.3544 -1.7119
   33POPC  H14B 4379   1.991   0.793  11.184 -0.7452  0.9892 -0.2696
   33POPC  H14C 4380   2.094   0.739  11.063 -1.3762 -2.5172  0.1516
   33POPC   C15 4381   1.813   0.857  10.962 -0.3649  1.0070 -0.3953
   33POPC  H15A 4382   1.745   0.850  11.047  0.7303 -0.8960  0.3854
   33POPC  H15B 4383   1.765   0.846  10.866  0.5137 -2.3984 -0.5932
   33POPC  H15C 4384   1.854   0.956  10.956  1.5983  0.2018 -0.7893
   33POPC   C11 4385   2.038   0.881  10.765 -0.0223  0.0696  0.0391
   33POPC  H11A 4386   2.130   0.877  10.702  0.3034  3.8405  0.0695
   33POPC  H11B 4387   2.076   0.950  10.843 -0.0868  0.3000 -0.1314
   33POPC     P 4388   1.893   0.879  10.555  0.2052 -0.8209 -0.4049
   33POPC   O13 4389   1.768   0.948  10.513 -0.1999 -0.4670 -0.2779
   33POPC   O14 4390   1.887   0.735  10.572 -0.2132  0.3487  0.5891
   33POPC   O12 4391   1.931   0.940  10.696 -0.3305 -0.5062 -0.2183
   33POPC   O11 4392   2.017   0.926  10.471 -0.5480  0.4318  0.5026
   33POPC    C1 4393   2.067   1.063  10.460 -0.5393 -0.4770 -0.5910
   33POPC    HA 4394   1.990   1.138  10.487  0.3898 -0.0494  0.9571
   33POPC    HB 4395   2.150   1.079  10.532 -0.8015  0.0570 -0.4004
   33POPC    C2 4396   2.117   1.097  10.315  0.5765  0.0782 -0.4101
   33POPC    HS 4397   2.171   1.194  10.318 -2.2019  1.8092 -1.3402
   33POPC   O21 4398   2.001   1.111  10.230  0.0152  0.3355 -0.1227
   33POPC   C21 4399   1.976   1.229  10.180 -0.1733 -0.2873 -0.3928
   33POPC   O22 4400   2.041   1.333  10.206  0.1738  0.6634 -0.2363
   33POPC   C22 4401   1.854   1.229  10.089 -0.2771 -0.5212 -0.3862
   33POPC   H2R 4402   1.778   1.297  10.133  0.3861  0.0523 -0.1011
   33POPC   H2S 4403   1.801   1.132  10.082 -1.8293  0.2945 -0.3323
   33POPC    C3 4404   2.223   0.996  10.254 -0.2829 -0.6584  0.2140
   33POPC    HX 4405   2.186   0.892  10.270  0.0711 -1.8102 -4.6906
   33POPC    HY 4406   2.324   1.007  10.299 -0.6729  0.2836  0.9028
   33POPC   O31 4407   2.230   1.023  10.111 -0.3365  0.0096 -0.2928
   33POPC   C31 4408   2.295   1.125  10.067  0.4911  0.2420  0.1985
   33POPC   O32 4409   2.360   1.201  10.138 -0.0371 -0.3108  0.3919
   33POPC   C32 4410   2.281   1.116   9.914 -0.5105  0.7535  0.3197
   33POPC   H2X 4411   2.194   1.171   9.872  0.3256 -0.1450 -2.9218
   33POPC   H2Y 4412   2.263   1.010   9.884  1.7615  0.6305 -0.8117
   33POPC   C23 4413   1.900   1.280   9.951  0.3584  0.9713 -0.1235
   33POPC   H3R 4414   1.979   1.207   9.925 -0.8433 -1.5663  2.8135
   33POPC   H3S 4415   1.948   1.380   9.955  0.2044  1.2515 -2.9326
   33POPC   C24 4416   1.782   1.275   9.851  0.0306 -0.0617  0.6491
   33POPC   H4R 4417   1.713   1.355   9.886 -1.6182 -1.1639  0.0131
   33POPC   H4S 4418   1.716   1.185   9.849 -1.2423  0.8453  0.6977
   33POPC   C25 4419   1.821   1.291   9.701 -0.1725  0.4185  0.3915
   33POPC   H5R 4420   1.881   1.382   9.681 -0.8371  0.9567  0.8453
   33POPC   H5S 4421   1.731   1.311   9.638 -0.5215 -0.8736  0.4540
   33POPC   C26 4422   1.893   1.168   9.643  0.4671 -0.6232 -1.4352
   33POPC   H6R 4423   1.835   1.075   9.663  0.8239 -0.7257 -0.8482
   33POPC   H6S 4424   1.983   1.163   9.708  0.3327 -1.4570 -1.2988
   33POPC   C27 4425   1.945   1.191   9.501 -0.2388 -0.3070 -0.1574
   33POPC   H7R 4426   2.012   1.108   9.470  0.1898  0.0635 -0.2246
   33POPC   H7S 4427   2.007   1.283   9.505  3.4140 -2.6451  1.1275
   33POPC   C28 4428   1.834   1.221   9.387  0.7421  0.0999  0.0995
   33POPC   H8R 4429   1.870   1.246   9.285 -2.6489 -2.4839 -1.9394
   33POPC   H8S 4430   1.776   1.312   9.412  0.4547  0.2518 -1.0979
   33POPC   C29 4431   1.759   1.083   9.394  0.6721  0.6905  0.0347
   33POPC   H91 4432   1.691   1.068   9.479  0.3285  2.6822  0.1547
   33POPC  C210 4433   1.767   0.980   9.305 -0.1184  0.0159 -0.0145
   33POPC  H101 4434   1.720   0.881   9.317 -0.4668  0.1173 -0.5331
   33POPC  C211 4435   1.869   0.979   9.190 -0.2187 -0.1582 -0.2297
   33POPC  H11R 4436   1.963   0.956   9.244 -1.0764 -0.9253  0.9983
   33POPC  H11S 4437   1.870   1.071   9.127  2.1982  1.8244  2.3957
   33POPC  C212 4438   1.835   0.860   9.095  0.2285 -0.6250 -0.5842
   33POPC  H12R 4439   1.728   0.867   9.070  0.7390  2.4255 -2.2772
   33POPC  H12S 4440   1.862   0.762   9.142  0.0924 -0.6807 -0.6237
   33POPC  C213 4441   1.902   0.870   8.962  0.4479  0.0185  0.8192
   33POPC  H13R 4442   1.877   0.966   8.912  1.2219  0.1461  0.6580
   33POPC  H13S 4443   1.864   0.786   8.900  2.1970 -1.1651  1.2655
   33POPC  C214 4444   2.060   0.859   8.969  0.1552  0.5294  0.0256
   33POPC  H14R 4445   2.090   0.760   9.009  0.9001  0.4303 -0.7413
   33POPC  H14S 4446   2.101   0.937   9.036  1.0051  0.1340 -0.0326
   33POPC  C215 4447   2.123   0.869   8.835  0.0694 -1.0889 -1.0484
   33POPC  H15R 4448   2.233   0.860   8.845  0.6444  1.4543 -3.6241
   33POPC  H15S 4449   2.116   0.971   8.790 -1.4765 -0.3706  0.6871
   33POPC  C216 4450   2.099   0.765   8.730 -0.1731  0.1860  0.2143
   33POPC  H16R 4451   1.994   0.784   8.696  0.9460  2.3876 -2.4468
   33POPC  H16S 4452   2.118   0.664   8.770 -0.0924  0.3369  0.5637
   33POPC  C217 4453   2.174   0.790   8.600 -0.0532  0.3423  0.1767
   33POPC  H17R 4454   2.278   0.812   8.631 -0.0612 -0.6116  0.9224
   33POPC  H17S 4455   2.130   0.879   8.550  0.4608  1.5180  1.7213
   33POPC  C218 4456   2.170   0.668   8.509  0.2965  0.3658 -0.1536
   33POPC  H18R 4457   2.070   0.621   8.523 -0.6151  1.8693 -1.2584
   33POPC  H18S 4458   2.244   0.589   8.533  0.0574  0.1380 -0.1574
   33POPC  H18T 4459   2.185   0.707   8.406 -1.0567 -2.1629 -1.4241
   33POPC   C33 4460   2.411   1.166   9.853 -0.8874  0.2333  1.0185
   33POPC   H3X 4461   2.498   1.115   9.900 -1.0878  1.0710  2.3264
   33POPC   H3Y 4462   2.420   1.276   9.867  0.6468  0.2245  0.3371
   33POPC   C34 4463   2.417   1.134   9.698  0.0684 -0.1752 -0.6140
   33POPC   H4X 4464   2.415   1.023   9.698 -2.4304 -0.1837 -1.1283
   33POPC   H4Y 4465   2.505   1.176   9.646 -1.1776  0.3890 -2.3452
   33POPC   C35 4466   2.307   1.193   9.612 -0.7247 -0.0032 -0.8009
   33POPC   H5X 4467   2.295   1.303   9.620 -2.2367 -0.1315 -0.9599
   33POPC   H5Y 4468   2.217   1.142   9.652 -1.0089  1.5735  0.6744
   33POPC   C36 4469   2.340   1.167   9.468  0.2412 -0.1373 -0.3726
   33POPC   H6X 4470   2.443   1.194   9.437  0.1166 -1.4707 -2.1173
   33POPC   H6Y 4471   2.278   1.230   9.401  1.3874 -1.4819 -2.8280
   33POPC   C37 4472   2.326   1.023   9.426  0.1650 -0.3400  0.1301
   33POPC   H7X 4473   2.245   0.976   9.486 -0.3761  0.3646 -0.0197
   33POPC   H7Y 4474   2.416   0.965   9.453  1.5922  2.3692  1.7020
   33POPC   C38 4475   2.295   1.004   9.272 -0.3502  0.3476  0.0881
   33POPC   H8X 4476   2.193   1.046   9.257 -0.0393  1.2474  0.4181
   33POPC   H8Y 4477   2.307   0.894   9.260  2.1284  0.6212 -0.6415
   33POPC   C39 4478   2.401   1.074   9.180  0.1387  0.1571 -0.7230
   33POPC   H9X 4479   2.422   1.175   9.220 -1.2041  0.2468 -0.2170
   33POPC   H9Y 4480   2.352   1.095   9.082 -1.3482  1.5692  0.2755
   33POPC  C310 4481   2.537   1.010   9.154 -0.2773 -0.7223 -1.0177
   33POPC  H10X 4482   2.508   0.913   9.107 -0.4170 -0.4690 -1.4583
   33POPC  H10Y 4483   2.591   0.999   9.251 -3.0301  3.3907  1.2807
   33POPC  C311 4484   2.621   1.092   9.057  0.3477  0.0722 -0.3752
   33POPC  H11X 4485   2.729   1.086   9.084  0.6341 -1.4947 -1.7549
   33POPC  H11Y 4486   2.595   1.199   9.076 -2.8665 -0.5047 -0.9727
   33POPC  C312 4487   2.598   1.055   8.909 -0.1796 -0.9055 -0.4330
   33POPC  H12X 4488   2.490   1.074   8.896 -0.2536 -0.2018  1.0465
   33POPC  H12Y 4489   2.618   0.948   8.887 -0.1110 -1.0498  0.2991
   33POPC  C313 4490   2.683   1.137   8.806  0.0664  0.6612 -1.0203
   33POPC  H13X 4491   2.664   1.246   8.820  0.7747  0.8065 -1.1432
   33POPC  H13Y 4492   2.629   1.109   8.714 -1.4832  0.9299 -0.2295
   33POPC  C314 4493   2.829   1.109   8.796  0.0415 -0.7821  0.0661
   33POPC  H14X 4494   2.866   1.005   8.782  2.6369 -0.0211  0.6780
   33POPC  H14Y 4495   2.882   1.143   8.887  0.5216  0.1789 -0.5492
   33POPC  C315 4496   2.898   1.193   8.687 -0.8681 -0.4423 -0.2624
   33POPC  H15X 4497   2.876   1.299   8.712  2.1214 -0.0605  1.2005
   33POPC  H15Y 4498   2.854   1.156   8.592  1.8779  0.2476 -1.9104
   33POPC  C316 4499   3.053   1.195   8.688 -0.4224  0.6036  0.1179
   33POPC  H16X 4500   3.070   1.264   8.603 -0.5491  1.9190  1.1393
   33POPC  H16Y 4501   3.094   1.096   8.659 -3.0488 -0.4553 -0.2768
   33POPC  H16Z 4502   3.097   1.224   8.785  2.1657  1.0745 -1.1314
   34POPC     N 4503   3.132   3.605  10.805 -0.2484 -0.7216  0.3398
   34POPC   C12 4504   3.092   3.552  10.663  0.4424  0.7833  0.2972
   34POPC  H12A 4505   3.166   3.594  10.596  0.9457  0.9923  0.9778
   34POPC  H12B 4506   2.997   3.597  10.637 -0.7304 -0.9676  1.3520
   34POPC   C13 4507   3.268   3.574  10.840 -0.0598  0.0215 -0.5527
   34POPC  H13A 4508   3.273   3.466  10.845 -1.9197 -0.0368  1.3519
   34POPC  H13B 4509   3.343   3.625  10.780  0.4379  0.2209  0.2159
   34POPC  H13C 4510   3.295   3.603  10.940  2.7167  0.3509 -1.2974
   34POPC   C14 4511   3.129   3.754  10.809 -0.4220 -0.2406  0.3840
   34POPC  H14A 4512   3.204   3.790  10.740 -0.8788 -1.0196 -0.5353
   34POPC  H14B 4513   3.037   3.793  10.769 -2.3887 -4.1886  0.6173
   34POPC  H14C 4514   3.132   3.799  10.907 -1.9509 -0.5888  0.6110
   34POPC   C15 4515   3.039   3.556  10.903  0.4350  0.0881 -0.4526
   34POPC  H15A 4516   3.020   3.453  10.879 -2.9880  0.4947  0.0190
   34POPC  H15B 4517   2.952   3.619  10.915  1.5697  1.1979  3.2042
   34POPC  H15C 4518   3.072   3.548  11.006  1.5111  0.0634 -0.7886
   34POPC   C11 4519   3.071   3.397  10.646  0.2052  0.0226  0.3606
   34POPC  H11A 4520   3.157   3.343  10.691 -0.7346 -0.4985  1.5943
   34POPC  H11B 4521   3.057   3.373  10.538  0.0383 -0.9519  0.5902
   34POPC     P 4522   2.820   3.388  10.676  0.1055 -0.5321  0.3286
   34POPC   O13 4523   2.827   3.514  10.598  0.0042 -0.1962  0.0115
   34POPC   O14 4524   2.727   3.386  10.789  0.2811  0.0871 -0.3816
   34POPC   O12 4525   2.958   3.347  10.719 -0.4320 -0.0086  0.0346
   34POPC   O11 4526   2.773   3.269  10.586 -0.2331  0.1677 -0.0645
   34POPC    C1 4527   2.698   3.298  10.465 -0.6158 -1.0081 -0.0271
   34POPC    HA 4528   2.647   3.396  10.469  1.1934 -0.0201  4.6395
   34POPC    HB 4529   2.615   3.224  10.458 -0.7681 -1.0573  1.9087
   34POPC    C2 4530   2.802   3.293  10.345  0.3919 -0.6731 -0.2829
   34POPC    HS 4531   2.876   3.374  10.366 -0.5942  0.4837 -1.1382
   34POPC   O21 4532   2.724   3.308  10.228 -0.5138 -0.1685  0.4322
   34POPC   C21 4533   2.739   3.429  10.177 -0.2248 -0.1453  0.3771
   34POPC   O22 4534   2.805   3.522  10.225  0.5724  1.0183  0.5038
   34POPC   C22 4535   2.672   3.433  10.035  0.7729  0.0029  0.0776
   34POPC   H2R 4536   2.563   3.423  10.048  0.9041 -1.5289  0.1325
   34POPC   H2S 4537   2.701   3.333   9.997 -1.6060 -0.5655 -0.3902
   34POPC    C3 4538   2.876   3.154  10.338  0.2232 -0.4407 -0.1503
   34POPC    HX 4539   2.802   3.072  10.325 -0.9408  0.5542  0.0402
   34POPC    HY 4540   2.934   3.128  10.430 -1.4523 -2.7176  0.3580
   34POPC   O31 4541   2.971   3.148  10.222  0.4997 -0.9070  0.5961
   34POPC   C31 4542   3.093   3.209  10.234  0.1592  0.0891 -0.0378
   34POPC   O32 4543   3.132   3.270  10.330 -0.5183 -0.1323 -0.4183
   34POPC   C32 4544   3.162   3.204  10.101 -0.9632  0.2699  0.4856
   34POPC   H2X 4545   3.107   3.142  10.026  0.0454  0.3891 -0.3829
   34POPC   H2Y 4546   3.258   3.150  10.118 -0.6762 -0.0114 -1.6734
   34POPC   C23 4547   2.717   3.533   9.933  0.1032  0.1586 -0.0652
   34POPC   H3R 4548   2.826   3.519   9.917  0.4240  0.8222  1.3855
   34POPC   H3S 4549   2.698   3.631   9.980  2.5744 -0.1095  1.7217
   34POPC   C24 4550   2.645   3.515   9.795 -0.3918 -0.2132  0.3449
   34POPC   H4R 4551   2.536   3.532   9.809 -1.7097 -2.8031 -4.3620
   34POPC   H4S 4552   2.663   3.412   9.757 -0.2023 -0.4761  1.1337
   34POPC   C25 4553   2.692   3.612   9.680 -0.1207  0.1619  0.0758
   34POPC   H5R 4554   2.797   3.601   9.647  0.0162  1.9766 -0.1906
   34POPC   H5S 4555   2.662   3.712   9.717 -0.5062 -0.7146  2.2691
   34POPC   C26 4556   2.607   3.572   9.553 -0.2206  0.2554  0.1267
   34POPC   H6R 4557   2.504   3.612   9.566 -0.1656  0.6850 -0.6945
   34POPC   H6S 4558   2.591   3.462   9.562  0.1262  0.4093  4.9005
   34POPC   C27 4559   2.667   3.619   9.417  0.1321  0.0951  0.4786
   34POPC   H7R 4560   2.776   3.620   9.433  0.2772  1.6256 -0.4512
   34POPC   H7S 4561   2.636   3.723   9.395  1.0678 -0.1417 -2.3102
   34POPC   C28 4562   2.636   3.538   9.299  0.0877 -0.7854  0.6177
   34POPC   H8R 4563   2.659   3.436   9.337 -0.8845 -0.5928  1.8261
   34POPC   H8S 4564   2.714   3.564   9.226  1.2980 -1.8394  1.4815
   34POPC   C29 4565   2.492   3.545   9.253  0.0940  0.0678 -0.4711
   34POPC   H91 4566   2.417   3.526   9.331 -0.3192  2.4352 -0.2125
   34POPC  C210 4567   2.446   3.570   9.128 -0.3429  0.5381  0.5198
   34POPC  H101 4568   2.340   3.562   9.101 -0.4895  2.4861  0.4262
   34POPC  C211 4569   2.527   3.601   9.001  0.1151  0.2943 -0.8041
   34POPC  H11R 4570   2.572   3.509   8.959 -1.3216 -0.5161 -0.6294
   34POPC  H11S 4571   2.600   3.676   9.037  0.2935 -0.0419 -0.4740
   34POPC  C212 4572   2.445   3.663   8.890 -0.6633  0.7680  1.0361
   34POPC  H12R 4573   2.396   3.754   8.928  2.9058  3.0889  0.5315
   34POPC  H12S 4574   2.364   3.594   8.856 -0.7327  0.6316  1.4732
   34POPC  C213 4575   2.542   3.690   8.778  0.2910  0.1375  0.2197
   34POPC  H13R 4576   2.595   3.597   8.748 -1.3024 -0.2016 -1.7709
   34POPC  H13S 4577   2.622   3.757   8.816 -0.7713  0.7240  1.4875
   34POPC  C214 4578   2.482   3.760   8.658 -0.3260  0.1820  0.2628
   34POPC  H14R 4579   2.427   3.850   8.693 -0.1480  0.0399  0.9192
   34POPC  H14S 4580   2.408   3.695   8.607 -2.3989  1.4984  1.4464
   34POPC  C215 4581   2.586   3.792   8.545 -0.5454 -0.2312 -0.6665
   34POPC  H15R 4582   2.613   3.693   8.503  1.6184 -0.6421  1.5006
   34POPC  H15S 4583   2.678   3.847   8.574 -0.0292 -0.7386 -1.3011
   34POPC  C216 4584   2.523   3.885   8.441  0.3801  0.7061 -0.5596
   34POPC  H16R 4585   2.528   3.989   8.480 -0.7290  0.2236  0.9524
   34POPC  H16S 4586   2.417   3.851   8.430  0.0029  0.8979  1.9869
   34POPC  C217 4587   2.594   3.879   8.300  0.1000 -0.7620  0.0213
   34POPC  H17R 4588   2.533   3.940   8.230  0.3695  0.1336  0.5494
   34POPC  H17S 4589   2.600   3.772   8.272 -1.7471 -0.5570 -1.3575
   34POPC  C218 4590   2.731   3.940   8.289  0.1623  0.1075  0.4048
   34POPC  H18R 4591   2.798   3.902   8.369 -0.8475 -0.5538  0.9651
   34POPC  H18S 4592   2.741   4.050   8.304  2.2926 -0.4761  5.0130
   34POPC  H18T 4593   2.778   3.928   8.189 -0.8032  0.1543 -0.0699
   34POPC   C33 4594   3.204   3.346  10.056  0.4857  0.4204 -0.1433
   34POPC   H3X 4595   3.284   3.329   9.981  1.5977 -2.5128  1.5441
   34POPC   H3Y 4596   3.254   3.400  10.139 -0.4045  1.8183 -0.4751
   34POPC   C34 4597   3.082   3.413  10.001  1.1633  0.2180 -0.2860
   34POPC   H4X 4598   3.090   3.523  10.016  1.1732  0.2704 -0.6776
   34POPC   H4Y 4599   2.991   3.391  10.060  0.2689 -0.5610 -1.8977
   34POPC   C35 4600   3.053   3.379   9.855  0.6326 -0.1480  0.2777
   34POPC   H5X 4601   2.955   3.409   9.814 -0.2562 -1.6340  1.2401
   34POPC   H5Y 4602   3.066   3.268   9.856 -0.8740 -0.3459  0.3119
   34POPC   C36 4603   3.150   3.445   9.752  0.8179  0.4709  0.1669
   34POPC   H6X 4604   3.242   3.383   9.750  0.1340 -0.5530 -0.5999
   34POPC   H6Y 4605   3.163   3.551   9.784  0.1223 -0.1609  2.8047
   34POPC   C37 4606   3.093   3.449   9.608 -0.3276 -0.0877  0.3141
   34POPC   H7X 4607   3.001   3.511   9.603 -0.0466  0.4818  1.5579
   34POPC   H7Y 4608   3.067   3.344   9.587 -0.0075 -0.2581  0.7560
   34POPC   C38 4609   3.186   3.504   9.501  0.3548  0.4084  1.1789
   34POPC   H8X 4610   3.274   3.438   9.492 -0.6114 -0.8404  0.5084
   34POPC   H8Y 4611   3.207   3.612   9.518 -0.5151  0.7141  0.3790
   34POPC   C39 4612   3.123   3.495   9.364  0.8423 -0.6078  0.4951
   34POPC   H9X 4613   3.035   3.561   9.380  0.8347 -1.0939  2.8137
   34POPC   H9Y 4614   3.104   3.390   9.334  0.4573 -1.4048  3.2406
   34POPC  C310 4615   3.205   3.558   9.252 -0.1270 -0.2008 -0.3137
   34POPC  H10X 4616   3.284   3.485   9.223  0.8479 -0.0891  1.8337
   34POPC  H10Y 4617   3.248   3.654   9.289 -0.6302 -0.7225  1.7915
   34POPC  C311 4618   3.147   3.586   9.116 -0.4315 -0.5000  0.5074
   34POPC  H11X 4619   3.118   3.490   9.070 -3.9228  1.3733 -1.6267
   34POPC  H11Y 4620   3.225   3.632   9.052  1.0058 -3.1307  0.2513
   34POPC  C312 4621   3.019   3.675   9.120 -0.6471  0.2359  0.0419
   34POPC  H12X 4622   3.038   3.772   9.173  0.0079 -0.0994  0.4365
   34POPC  H12Y 4623   2.946   3.615   9.178  0.7882 -2.1754 -0.5110
   34POPC  C313 4624   2.964   3.701   8.980 -0.3300 -0.3724 -0.2342
   34POPC  H13X 4625   2.862   3.746   8.981 -1.3990 -2.3897 -3.0060
   34POPC  H13Y 4626   2.957   3.605   8.923 -0.6104 -1.8769  2.1896
   34POPC  C314 4627   3.047   3.798   8.895 -0.5788 -0.2928 -0.2555
   34POPC  H14X 4628   3.131   3.743   8.846  0.7397  2.5486 -1.4462
   34POPC  H14Y 4629   3.074   3.885   8.959 -1.7371 -1.0415  1.2944
   34POPC  C315 4630   2.976   3.849   8.770 -0.3574  0.1395 -0.3496
   34POPC  H15X 4631   2.937   3.760   8.718 -1.7158  0.6609 -0.2747
   34POPC  H15Y 4632   3.068   3.885   8.720 -0.5370  0.6588 -0.3243
   34POPC  C316 4633   2.869   3.953   8.794 -0.6060 -0.1834  0.5703
   34POPC  H16X 4634   2.911   4.045   8.840  0.8419  0.0448 -1.0940
   34POPC  H16Y 4635   2.783   3.905   8.844 -0.7373  0.7923  1.3089
   34POPC  H16Z 4636   2.828   3.984   8.696  0.0084 -0.4429  0.2220
   35POPC     N 4637   3.123   6.150  11.157  0.3818  0.0606 -0.3624
   35POPC   C12 4638   3.219   6.228  11.070 -0.4571 -0.7271 -0.4485
   35POPC  H12A 4639   3.157   6.293  11.009  0.3905 -0.8344 -1.4673
   35POPC  H12B 4640   3.261   6.161  10.995 -0.9307  2.3307 -3.7106
   35POPC   C13 4641   3.206   6.068  11.250  0.3136 -0.2994 -0.0272
   35POPC  H13A 4642   3.286   6.121  11.300  1.8864 -1.9650 -0.6405
   35POPC  H13B 4643   3.140   6.016  11.317 -0.0618 -1.4681 -1.2564
   35POPC  H13C 4644   3.254   5.983  11.203 -0.1405 -1.6250  1.8219
   35POPC   C14 4645   3.045   6.239  11.242  0.4324  0.3487 -0.0775
   35POPC  H14A 4646   3.022   6.329  11.186  0.5046 -0.5688 -1.6363
   35POPC  H14B 4647   2.955   6.198  11.285  0.7787 -0.4701 -0.1157
   35POPC  H14C 4648   3.098   6.286  11.323  2.0541 -0.3957 -0.6675
   35POPC   C15 4649   3.028   6.073  11.061  0.1575  0.2775  0.6129
   35POPC  H15A 4650   2.959   6.130  11.001 -0.0888  1.5610  2.0405
   35POPC  H15B 4651   2.971   6.003  11.120 -0.6345  1.5254  1.3687
   35POPC  H15C 4652   3.087   6.008  10.999 -0.2618  1.1751 -0.7595
   35POPC   C11 4653   3.339   6.319  11.127  0.4793 -0.5693 -0.4201
   35POPC  H11A 4654   3.409   6.349  11.046  0.4173  0.0120 -0.2651
   35POPC  H11B 4655   3.393   6.250  11.195  2.0787  1.1167  0.0900
   35POPC     P 4656   3.230   6.562  11.141  0.1170  0.0849  0.4524
   35POPC   O13 4657   3.331   6.665  11.155  0.5268  0.3472 -0.5847
   35POPC   O14 4658   3.095   6.596  11.197 -0.0246  0.3411  0.4099
   35POPC   O12 4659   3.290   6.432  11.208 -0.4667  0.0385 -0.1736
   35POPC   O11 4660   3.209   6.531  10.987 -0.2810  0.0028 -0.2671
   35POPC    C1 4661   3.309   6.542  10.882  0.1626 -0.1704 -0.0169
   35POPC    HA 4662   3.280   6.476  10.797 -2.8494  1.5662 -0.4700
   35POPC    HB 4663   3.415   6.528  10.914  0.6694 -0.6773 -1.7730
   35POPC    C2 4664   3.305   6.681  10.822 -0.0599 -0.0830  1.2608
   35POPC    HS 4665   3.335   6.756  10.898 -0.2051  0.9663  0.3136
   35POPC   O21 4666   3.179   6.699  10.763  0.6735  0.1537 -0.5708
   35POPC   C21 4667   3.091   6.760  10.843  0.0295  0.4810 -0.6557
   35POPC   O22 4668   3.126   6.809  10.950  1.1328  0.0014 -0.9573
   35POPC   C22 4669   2.944   6.760  10.784  0.6292  0.2669 -0.4101
   35POPC   H2R 4670   2.905   6.658  10.804  2.9120 -0.7048 -0.5223
   35POPC   H2S 4671   2.951   6.762  10.673  2.0978 -0.9286 -0.3721
   35POPC    C3 4672   3.400   6.697  10.701 -0.3139  0.1129  0.2298
   35POPC    HX 4673   3.502   6.679  10.743  0.4277 -0.7588 -1.8569
   35POPC    HY 4674   3.383   6.799  10.661  1.6712  0.5393  0.3338
   35POPC   O31 4675   3.385   6.595  10.603  0.3017  0.0699 -0.4398
   35POPC   C31 4676   3.473   6.604  10.502 -0.0725 -0.8448 -0.5956
   35POPC   O32 4677   3.539   6.705  10.477  0.8541  0.3768 -0.6467
   35POPC   C32 4678   3.467   6.480  10.416 -0.0629  0.0604  0.2778
   35POPC   H2X 4679   3.375   6.418  10.429  0.2674 -0.4125  0.4079
   35POPC   H2Y 4680   3.550   6.421  10.462 -2.2109 -2.9910  0.5691
   35POPC   C23 4681   2.846   6.872  10.825  0.2346  0.2351  0.2303
   35POPC   H3R 4682   2.863   6.894  10.933  0.9192  1.5623 -0.1225
   35POPC   H3S 4683   2.746   6.834  10.796  0.6339 -0.7384  0.1113
   35POPC   C24 4684   2.880   7.011  10.759 -0.5485  0.2186  0.5411
   35POPC   H4R 4685   2.868   7.012  10.649 -0.5857 -0.8887  0.5291
   35POPC   H4S 4686   2.980   7.054  10.786 -0.4158 -0.0903  0.5392
   35POPC   C25 4687   2.774   7.118  10.808 -0.2691  0.5974  0.0677
   35POPC   H5R 4688   2.779   7.129  10.918 -0.3902 -0.1778  0.1556
   35POPC   H5S 4689   2.673   7.075  10.792 -0.0127 -0.6334  1.5792
   35POPC   C26 4690   2.784   7.248  10.723 -0.4206  0.0673 -0.3553
   35POPC   H6R 4691   2.789   7.222  10.615 -3.6683  1.6332 -1.0141
   35POPC   H6S 4692   2.877   7.301  10.754 -0.7888  0.5734 -0.0992
   35POPC   C27 4693   2.664   7.341  10.752  0.0043 -0.4129 -0.4658
   35POPC   H7R 4694   2.672   7.378  10.856  1.1077 -2.1645  0.1011
   35POPC   H7S 4695   2.572   7.281  10.736 -0.7073  0.5244  0.0156
   35POPC   C28 4696   2.629   7.462  10.657  0.0855  0.1456 -0.5299
   35POPC   H8R 4697   2.551   7.525  10.706 -0.3261 -1.4511  0.9540
   35POPC   H8S 4698   2.572   7.409  10.578 -1.3387  1.2847 -0.3061
   35POPC   C29 4699   2.748   7.542  10.608  0.4035 -0.2545 -0.5942
   35POPC   H91 4700   2.842   7.528  10.662 -0.8195  0.7703  1.9528
   35POPC  C210 4701   2.752   7.610  10.488  0.5346 -0.2027 -0.2329
   35POPC  H101 4702   2.846   7.663  10.467  0.7963 -0.1628  0.9643
   35POPC  C211 4703   2.637   7.627  10.393  0.5539 -0.1991 -0.6268
   35POPC  H11R 4704   2.584   7.724  10.400 -1.1651 -1.2092  1.6008
   35POPC  H11S 4705   2.554   7.558  10.420 -0.3689  1.3264  0.5742
   35POPC  C212 4706   2.669   7.594  10.250 -0.1390  0.8337  0.0599
   35POPC  H12R 4707   2.711   7.492  10.249 -2.5234 -0.2036  0.3463
   35POPC  H12S 4708   2.750   7.661  10.214  0.4531 -1.0049 -2.2895
   35POPC  C213 4709   2.541   7.603  10.166  0.3457  0.0268 -0.8772
   35POPC  H13R 4710   2.510   7.709  10.151 -1.1481 -0.5418 -2.0930
   35POPC  H13S 4711   2.460   7.545  10.214 -1.5706 -0.1907 -4.0896
   35POPC  C214 4712   2.564   7.544  10.026  1.0544  0.6541  0.0765
   35POPC  H14R 4713   2.602   7.441  10.033 -1.2274 -0.2722 -0.2604
   35POPC  H14S 4714   2.635   7.604   9.966  0.2698  0.5153 -1.0261
   35POPC  C215 4715   2.439   7.538   9.943  0.5844 -0.3410 -0.3651
   35POPC  H15R 4716   2.416   7.645   9.925 -1.3361 -0.6772 -0.0929
   35POPC  H15S 4717   2.356   7.487   9.996 -0.4019  0.5898 -0.9694
   35POPC  C216 4718   2.456   7.462   9.806  0.1376 -1.2968 -0.7261
   35POPC  H16R 4719   2.366   7.467   9.741  0.7431  0.4289 -1.4949
   35POPC  H16S 4720   2.479   7.354   9.822 -0.3209 -1.5141 -1.4959
   35POPC  C217 4721   2.569   7.516   9.717  0.3343 -0.4897  0.1408
   35POPC  H17R 4722   2.568   7.627   9.717  1.2673 -0.4698 -0.0088
   35POPC  H17S 4723   2.530   7.497   9.614  0.1606  0.3362  0.0401
   35POPC  C218 4724   2.709   7.455   9.736 -0.0303 -0.4195 -0.1555
   35POPC  H18R 4725   2.710   7.345   9.724 -1.1186 -0.6067  1.2499
   35POPC  H18S 4726   2.760   7.481   9.831 -0.8558  0.8096 -0.0103
   35POPC  H18T 4727   2.770   7.494   9.651 -1.8734 -1.0825 -1.8857
   35POPC   C33 4728   3.506   6.497  10.267  0.0407  0.3585  0.5467
   35POPC   H3X 4729   3.589   6.570  10.257  0.9729 -0.5427  1.4849
   35POPC   H3Y 4730   3.412   6.538  10.224 -1.4814 -0.1488  3.1979
   35POPC   C34 4731   3.540   6.367  10.188  0.4516 -0.0938 -0.1013
   35POPC   H4X 4732   3.451   6.301  10.192 -1.2458  2.0997  0.9175
   35POPC   H4Y 4733   3.631   6.318  10.228  0.8491 -0.2284 -1.1454
   35POPC   C35 4734   3.563   6.395  10.037  0.0043  0.3568 -1.1176
   35POPC   H5X 4735   3.648   6.465  10.031  1.3845 -0.9189  1.7166
   35POPC   H5Y 4736   3.474   6.446   9.994 -1.1619 -0.4260  0.2743
   35POPC   C36 4737   3.586   6.270   9.957  0.4030  0.3228  0.0290
   35POPC   H6X 4738   3.515   6.189   9.982  1.6208 -0.2124  2.0048
   35POPC   H6Y 4739   3.683   6.223   9.984  0.2665  1.2127  2.2532
   35POPC   C37 4740   3.595   6.295   9.810 -0.1382  0.2972  0.3790
   35POPC   H7X 4741   3.677   6.367   9.793 -1.7593  1.7208 -2.1715
   35POPC   H7Y 4742   3.502   6.347   9.779 -0.4923 -0.7331 -0.3847
   35POPC   C38 4743   3.614   6.168   9.720 -0.2573  0.2006  0.9213
   35POPC   H8X 4744   3.521   6.109   9.733  0.3663 -1.0765 -0.0840
   35POPC   H8Y 4745   3.705   6.113   9.755  1.3738  1.8145 -0.6012
   35POPC   C39 4746   3.613   6.203   9.566  0.1986  0.4049  0.3539
   35POPC   H9X 4747   3.701   6.263   9.537  0.1476  1.1854  1.7755
   35POPC   H9Y 4748   3.517   6.257   9.546 -0.0389  0.6350  1.9731
   35POPC  C310 4749   3.628   6.071   9.483 -0.1345 -0.2144 -0.0737
   35POPC  H10X 4750   3.534   6.017   9.509  0.5233 -1.7408 -0.7362
   35POPC  H10Y 4751   3.710   6.008   9.522 -0.2571  0.5662  1.5384
   35POPC  C311 4752   3.650   6.103   9.336  0.6346  0.3345 -0.1742
   35POPC  H11X 4753   3.753   6.139   9.311  0.6425  0.6346  0.2543
   35POPC  H11Y 4754   3.582   6.186   9.307 -0.2648 -0.6377 -0.9063
   35POPC  C312 4755   3.621   5.978   9.260 -0.5691  0.1418  0.7034
   35POPC  H12X 4756   3.522   5.940   9.293 -0.3852  0.3719  1.5441
   35POPC  H12Y 4757   3.696   5.898   9.273 -1.4259 -0.9672 -0.8016
   35POPC  C313 4758   3.606   6.004   9.110 -0.3496  0.4461 -0.3562
   35POPC  H13X 4759   3.685   6.077   9.082 -2.7265  2.2454 -3.0454
   35POPC  H13Y 4760   3.509   6.055   9.088 -1.4772 -0.4935  2.0993
   35POPC  C314 4761   3.626   5.886   9.018 -0.0103  0.4862 -0.0177
   35POPC  H14X 4762   3.541   5.815   9.025  0.4126 -0.0662 -0.4234
   35POPC  H14Y 4763   3.722   5.836   9.041 -0.8336 -1.8005 -1.1891
   35POPC  C315 4764   3.646   5.906   8.863  0.1335 -0.0521  0.0848
   35POPC  H15X 4765   3.554   5.959   8.831 -1.0367 -2.5880 -1.0547
   35POPC  H15Y 4766   3.641   5.804   8.819 -0.8091  0.9629 -2.3237
   35POPC  C316 4767   3.771   5.990   8.820 -0.4443  0.2703 -0.2656
   35POPC  H16X 4768   3.757   6.091   8.862  0.0197 -1.0644  3.4612
   35POPC  H16Y 4769   3.772   6.001   8.709 -1.5621  0.1375 -0.2985
   35POPC  H16Z 4770   3.871   5.955   8.855 -0.4257  1.9001  1.4477
   36POPC     N 4771   2.525   5.039  11.321 -0.4485 -0.0467  0.3042
   36POPC   C12 4772   2.659   5.099  11.278 -0.0047  0.5796 -0.0305
   36POPC  H12A 4773   2.740   5.063  11.340  0.6525  0.6592 -0.8336
   36POPC  H12B 4774   2.659   5.205  11.296  1.3146  0.1785  3.0975
   36POPC   C13 4775   2.409   5.079  11.228 -0.0884  0.6243 -0.4577
   36POPC  H13A 4776   2.416   5.018  11.139 -1.4294 -1.9825  1.0967
   36POPC  H13B 4777   2.321   5.052  11.284 -0.6884 -0.7928 -2.0181
   36POPC  H13C 4778   2.426   5.184  11.206  2.3886  0.5942  0.9471
   36POPC   C14 4779   2.535   4.892  11.325  0.7121  0.2592 -0.4883
   36POPC  H14A 4780   2.440   4.856  11.362  0.7867  1.4574  0.9882
   36POPC  H14B 4781   2.555   4.863  11.223  1.6170  1.3020 -0.6299
   36POPC  H14C 4782   2.617   4.856  11.385  0.9579  3.1724  1.1377
   36POPC   C15 4783   2.497   5.082  11.458 -0.4532  0.6051 -0.0332
   36POPC  H15A 4784   2.579   5.059  11.525 -1.6754 -1.6446  0.8098
   36POPC  H15B 4785   2.401   5.043  11.487 -0.8194  2.1257  0.8557
   36POPC  H15C 4786   2.483   5.189  11.458  0.6457  0.7610 -0.7797
   36POPC   C11 4787   2.723   5.061  11.146  0.0916  0.0784  0.0528
   36POPC  H11A 4788   2.805   5.132  11.121  1.6788 -1.4779  0.5932
   36POPC  H11B 4789   2.643   5.064  11.070  0.3313  1.6690 -0.1711
   36POPC     P 4790   2.919   4.920  11.222  0.0319 -0.1265 -0.1537
   36POPC   O13 4791   2.950   4.775  11.229 -0.0492 -0.0927 -0.0344
   36POPC   O14 4792   2.922   4.994  11.356 -0.0820 -0.5724  0.3176
   36POPC   O12 4793   2.781   4.934  11.145  0.2255  0.2760  0.1071
   36POPC   O11 4794   3.017   4.982  11.116  0.0383 -0.4486  0.0114
   36POPC    C1 4795   3.012   4.966  10.975 -0.2195  0.4128  0.0371
   36POPC    HA 4796   2.924   4.909  10.939 -1.0751  1.6228  0.1456
   36POPC    HB 4797   3.088   4.893  10.941 -0.8224  0.5695 -1.7519
   36POPC    C2 4798   3.015   5.099  10.898  0.3534 -0.2333  0.6445
   36POPC    HS 4799   2.927   5.158  10.931 -1.1966 -1.4603 -1.1721
   36POPC   O21 4800   3.025   5.068  10.754  0.8472 -0.3024  0.2519
   36POPC   C21 4801   2.955   5.151  10.679 -1.0684  0.5846 -0.3858
   36POPC   O22 4802   2.906   5.258  10.715  0.6923 -0.0222  0.0519
   36POPC   C22 4803   2.948   5.097  10.534  0.3916 -0.7183 -0.5607
   36POPC   H2R 4804   2.860   5.029  10.530  1.9924 -2.9468 -0.3848
   36POPC   H2S 4805   3.025   5.022  10.505  2.3212  0.3659  1.4443
   36POPC    C3 4806   3.148   5.171  10.939  1.0713 -0.0674  0.9380
   36POPC    HX 4807   3.218   5.092  10.972  2.2421  0.6868  0.3039
   36POPC    HY 4808   3.122   5.237  11.025 -2.3675  0.9529 -0.6952
   36POPC   O31 4809   3.209   5.244  10.832  0.6119  0.0094  0.4308
   36POPC   C31 4810   3.203   5.377  10.839 -0.2325 -0.3623 -0.7733
   36POPC   O32 4811   3.163   5.437  10.932  0.1943 -0.6613 -0.1251
   36POPC   C32 4812   3.260   5.429  10.707  0.1318  0.0817  0.0084
   36POPC   H2X 4813   3.193   5.402  10.622 -0.4031 -0.0856  0.4767
   36POPC   H2Y 4814   3.359   5.381  10.699  1.2979  2.1006  1.4185
   36POPC   C23 4815   2.906   5.201  10.423 -0.5033 -0.1506  0.0822
   36POPC   H3R 4816   2.982   5.282  10.431 -1.1681  0.5581 -0.5940
   36POPC   H3S 4817   2.803   5.237  10.443  0.4908  1.8839  2.0180
   36POPC   C24 4818   2.934   5.124  10.285  0.0932 -0.5262  0.6936
   36POPC   H4R 4819   2.855   5.052  10.256  0.4012 -0.9513  0.9016
   36POPC   H4S 4820   3.039   5.091  10.271 -0.2332 -1.6194  0.7387
   36POPC   C25 4821   2.920   5.222  10.167  0.5172  0.2620 -0.1736
   36POPC   H5R 4822   3.009   5.288  10.167 -0.7952  2.1630  1.5230
   36POPC   H5S 4823   2.827   5.283  10.173  1.0041  1.1095 -0.8984
   36POPC   C26 4824   2.918   5.144  10.035 -0.1838  0.0612 -0.9937
   36POPC   H6R 4825   2.818   5.098  10.023 -1.0605  0.9645  2.0803
   36POPC   H6S 4826   2.994   5.063  10.038 -0.1221  0.1502 -0.1169
   36POPC   C27 4827   2.926   5.234   9.914 -0.1724 -0.0581 -0.5112
   36POPC   H7R 4828   3.018   5.295   9.928 -0.2743  0.4452 -1.8864
   36POPC   H7S 4829   2.839   5.303   9.915 -0.6291 -0.6203 -0.6233
   36POPC   C28 4830   2.938   5.162   9.777  0.2935  0.1729  0.1343
   36POPC   H8R 4831   2.851   5.092   9.778 -0.4971  1.1301 -0.3199
   36POPC   H8S 4832   3.034   5.107   9.765 -1.2109 -1.9835 -3.9123
   36POPC   C29 4833   2.913   5.245   9.652 -0.0921 -0.8536  0.8063
   36POPC   H91 4834   2.822   5.307   9.661  0.8826  1.0551 -1.3702
   36POPC  C210 4835   2.978   5.256   9.532  0.4438  0.1445  0.1010
   36POPC  H101 4836   2.932   5.313   9.450 -0.4028 -0.4070  0.1853
   36POPC  C211 4837   3.107   5.178   9.500  0.1770  0.2961 -0.5415
   36POPC  H11R 4838   3.127   5.104   9.580 -0.4500 -0.2906 -0.9185
   36POPC  H11S 4839   3.187   5.255   9.494 -2.4122  3.1303 -1.7125
   36POPC  C212 4840   3.099   5.099   9.363  0.4473  0.0026 -0.2319
   36POPC  H12R 4841   2.996   5.056   9.365  1.1045 -1.6169  0.4879
   36POPC  H12S 4842   3.171   5.016   9.379 -1.1381 -1.6407 -1.2416
   36POPC  C213 4843   3.126   5.166   9.226 -0.2220 -0.2795 -0.0442
   36POPC  H13R 4844   3.105   5.092   9.145 -1.4734  0.7122 -0.6635
   36POPC  H13S 4845   3.230   5.202   9.212  0.5026 -2.1400  0.2888
   36POPC  C214 4846   3.037   5.285   9.195  0.2541  0.2622  1.0378
   36POPC  H14R 4847   3.055   5.372   9.261 -0.5318  1.1951  0.0705
   36POPC  H14S 4848   2.934   5.246   9.210 -0.6390  0.9598 -2.3126
   36POPC  C215 4849   3.041   5.314   9.048  0.3732  0.0490  0.3085
   36POPC  H15R 4850   2.980   5.245   8.985  1.1197  0.3449 -0.7699
   36POPC  H15S 4851   3.141   5.304   9.002 -1.3319 -1.0263 -3.5825
   36POPC  C216 4852   2.994   5.464   9.036  0.2445  0.1417  0.3381
   36POPC  H16R 4853   3.059   5.529   9.098 -2.6806  2.2202  1.4668
   36POPC  H16S 4854   2.891   5.486   9.072  0.0254 -1.4857  0.7964
   36POPC  C217 4855   3.020   5.515   8.897  0.2725 -0.0396 -0.2347
   36POPC  H17R 4856   2.994   5.623   8.884 -2.0943 -0.2610  1.9185
   36POPC  H17S 4857   2.957   5.458   8.825 -1.0872  1.4921 -0.3199
   36POPC  C218 4858   3.162   5.501   8.835 -0.3215 -0.0671  0.1723
   36POPC  H18R 4859   3.191   5.394   8.821  2.0402  0.5746 -0.2792
   36POPC  H18S 4860   3.231   5.521   8.919 -2.1032 -0.9105  1.9154
   36POPC  H18T 4861   3.183   5.570   8.751 -1.0935 -0.4364 -0.3410
   36POPC   C33 4862   3.282   5.578  10.693  0.1927 -0.4948  0.1008
   36POPC   H3X 4863   3.344   5.613  10.778  1.4933 -0.2544 -0.9193
   36POPC   H3Y 4864   3.187   5.635  10.705 -1.0017 -2.3291 -0.2734
   36POPC   C34 4865   3.377   5.615  10.575  0.0282  0.0503  1.0796
   36POPC   H4X 4866   3.472   5.558  10.584  0.3393  0.4055  0.1926
   36POPC   H4Y 4867   3.410   5.721  10.576  1.0149 -0.2171 -0.2854
   36POPC   C35 4868   3.320   5.576  10.430 -0.0847  0.3136  0.9263
   36POPC   H5X 4869   3.296   5.468  10.420  0.4610  0.2932 -0.2821
   36POPC   H5Y 4870   3.405   5.570  10.359 -1.9780 -1.3422 -1.3533
   36POPC   C36 4871   3.223   5.680  10.387 -0.3196  0.3220  0.6145
   36POPC   H6X 4872   3.264   5.783  10.384 -0.6304  0.4667  1.1217
   36POPC   H6Y 4873   3.148   5.694  10.468 -2.0878  1.8122 -1.1691
   36POPC   C37 4874   3.149   5.646  10.258 -0.1666  0.8414  0.6539
   36POPC   H7X 4875   3.087   5.734  10.233 -0.0405  0.5609 -0.7515
   36POPC   H7Y 4876   3.084   5.560  10.283  1.4912 -0.5737  0.2971
   36POPC   C38 4877   3.238   5.605  10.139 -0.5979  0.2324 -0.4656
   36POPC   H8X 4878   3.290   5.510  10.161  0.9659  1.5390  2.0271
   36POPC   H8Y 4879   3.317   5.682  10.132  2.3898 -2.7822 -2.7824
   36POPC   C39 4880   3.163   5.602  10.005 -0.0943 -0.7176  0.1905
   36POPC   H9X 4881   3.107   5.698   9.996 -1.1299 -0.9682  2.8901
   36POPC   H9Y 4882   3.086   5.522  10.006 -0.3825 -0.4408  0.2985
   36POPC  C310 4883   3.253   5.617   9.876  0.2708  0.1924 -0.6791
   36POPC  H10X 4884   3.314   5.525   9.869  0.5306  0.2710  0.4160
   36POPC  H10Y 4885   3.313   5.710   9.868  0.4455  0.1673  0.3050
   36POPC  C311 4886   3.163   5.619   9.749  0.1019  0.0427 -0.6417
   36POPC  H11X 4887   3.095   5.708   9.750 -0.4352 -0.3642  0.6178
   36POPC  H11Y 4888   3.086   5.540   9.755 -1.5354  1.5976  0.0032
   36POPC  C312 4889   3.247   5.620   9.619  0.6897 -0.1313  0.5793
   36POPC  H12X 4890   3.306   5.528   9.602  0.1451 -0.4470  0.3736
   36POPC  H12Y 4891   3.311   5.708   9.644 -1.5784  1.3038  1.6924
   36POPC  C313 4892   3.162   5.659   9.501  0.0871 -0.2772 -0.2425
   36POPC  H13X 4893   3.105   5.755   9.509  0.1570 -0.1875 -0.7817
   36POPC  H13Y 4894   3.095   5.572   9.483  0.1110 -0.5130  0.7356
   36POPC  C314 4895   3.242   5.684   9.376 -0.4559 -0.1071 -0.4006
   36POPC  H14X 4896   3.270   5.586   9.331  0.2833  0.7460 -1.8802
   36POPC  H14Y 4897   3.333   5.741   9.405 -0.9180 -0.7804  2.7215
   36POPC  C315 4898   3.148   5.772   9.289  0.0961  0.1323  1.0340
   36POPC  H15X 4899   3.140   5.876   9.327  2.5688  0.0573  1.9463
   36POPC  H15Y 4900   3.046   5.727   9.292 -0.4581  1.3330  0.7696
   36POPC  C316 4901   3.204   5.783   9.143  0.4721 -0.5789 -0.4129
   36POPC  H16X 4902   3.224   5.681   9.106  0.4139 -0.5748 -0.4561
   36POPC  H16Y 4903   3.301   5.837   9.143  1.4736 -2.2857 -2.2140
   36POPC  H16Z 4904   3.140   5.837   9.070  2.0048  0.6296 -0.9223
   37POPC     N 4905   2.061   1.323   6.409 -0.7046  0.1904 -0.1170
   37POPC   C12 4906   2.134   1.253   6.523 -0.3850 -0.2775  0.3074
   37POPC  H12A 4907   2.179   1.326   6.588 -1.7837 -0.2266  1.2795
   37POPC  H12B 4908   2.205   1.187   6.476  0.5782 -0.4340  1.9159
   37POPC   C13 4909   2.144   1.414   6.326 -0.3424 -0.8688 -0.4281
   37POPC  H13A 4910   2.222   1.366   6.269 -1.6854 -0.3625 -2.8456
   37POPC  H13B 4911   2.085   1.466   6.252 -0.4684 -1.8613 -1.0315
   37POPC  H13C 4912   2.180   1.497   6.386  1.8798 -0.5694 -2.0623
   37POPC   C14 4913   2.023   1.214   6.316 -0.2444  0.1719  0.0931
   37POPC  H14A 4914   1.973   1.135   6.370  2.5014 -0.7775  1.4426
   37POPC  H14B 4915   1.965   1.245   6.231  0.1282  0.3378 -0.1059
   37POPC  H14C 4916   2.112   1.172   6.271  0.5809  0.5023  1.3578
   37POPC   C15 4917   1.936   1.394   6.453  0.0631  0.0278  0.8866
   37POPC  H15A 4918   1.954   1.476   6.521  0.0166  2.2162 -1.5969
   37POPC  H15B 4919   1.864   1.320   6.488  0.6203 -0.1215  1.7577
   37POPC  H15C 4920   1.879   1.445   6.377  0.0015 -0.7662  0.3819
   37POPC   C11 4921   2.048   1.163   6.626 -0.1805  0.0652 -0.4336
   37POPC  H11A 4922   1.985   1.235   6.683  3.1324  1.6541  1.4656
   37POPC  H11B 4923   2.112   1.124   6.708 -0.4402  1.5677  0.5118
   37POPC     P 4924   1.831   1.017   6.598  0.2865 -0.1814  0.2263
   37POPC   O13 4925   1.776   0.929   6.496  0.3383  0.2227  0.2201
   37POPC   O14 4926   1.772   1.154   6.618 -0.6598  0.1134  0.2173
   37POPC   O12 4927   1.977   1.051   6.563 -0.1985 -0.4581  0.1759
   37POPC   O11 4928   1.849   0.940   6.733 -0.7009 -0.0587  0.7468
   37POPC    C1 4929   1.947   0.834   6.748  0.2955  0.0600  0.5422
   37POPC    HA 4930   2.035   0.860   6.811  0.8789 -1.9027  0.6075
   37POPC    HB 4931   1.978   0.793   6.650 -1.7915 -0.0673 -0.1068
   37POPC    C2 4932   1.877   0.722   6.830  0.4803 -0.5629  0.1421
   37POPC    HS 4933   1.781   0.727   6.775 -0.1870  0.1131  1.3359
   37POPC   O21 4934   1.862   0.773   6.955  0.2625  0.0318  0.0550
   37POPC   C21 4935   1.745   0.742   7.013 -0.0168  0.0507 -0.4393
   37POPC   O22 4936   1.657   0.678   6.957 -0.3973 -0.3646 -0.6344
   37POPC   C22 4937   1.726   0.800   7.154  0.1864 -0.8588 -0.2956
   37POPC   H2R 4938   1.649   0.880   7.142  0.4740 -0.6800 -1.0123
   37POPC   H2S 4939   1.823   0.843   7.186  0.4815 -0.3669 -1.7738
   37POPC    C3 4940   1.947   0.586   6.826  0.4399  0.2603 -0.3959
   37POPC    HX 4941   1.926   0.550   6.723  0.7627  1.3261 -0.8533
   37POPC    HY 4942   1.903   0.511   6.895  0.2299  1.7298  1.1367
   37POPC   O31 4943   2.090   0.586   6.849  1.0765  0.4258 -0.8282
   37POPC   C31 4944   2.124   0.613   6.975  1.0387  0.6423 -0.4641
   37POPC   O32 4945   2.049   0.612   7.070  0.3592 -0.0714  0.0662
   37POPC   C32 4946   2.275   0.635   6.991 -0.1985 -0.2330  0.0603
   37POPC   H2X 4947   2.334   0.552   6.947 -0.2857 -1.0253  1.4006
   37POPC   H2Y 4948   2.295   0.630   7.100  0.1735 -1.2748 -0.0519
   37POPC   C23 4949   1.672   0.700   7.258 -0.2401  0.1749 -0.2549
   37POPC   H3R 4950   1.739   0.612   7.248  2.0001  1.6926  0.5796
   37POPC   H3S 4951   1.569   0.688   7.218 -0.1881 -0.9030 -0.1102
   37POPC   C24 4952   1.689   0.754   7.404 -1.1599 -0.4373  0.4634
   37POPC   H4R 4953   1.605   0.826   7.412 -2.0800 -1.3034 -0.8456
   37POPC   H4S 4954   1.782   0.815   7.402 -2.3302  1.5470 -2.8922
   37POPC   C25 4955   1.677   0.654   7.530 -0.0271  0.3986 -0.1266
   37POPC   H5R 4956   1.751   0.576   7.502  0.5996  0.9133  0.0577
   37POPC   H5S 4957   1.574   0.613   7.536  0.6276 -1.1699  1.2934
   37POPC   C26 4958   1.708   0.728   7.662 -0.1215  0.7686  0.9085
   37POPC   H6R 4959   1.620   0.786   7.697 -0.9670 -0.5617  1.0623
   37POPC   H6S 4960   1.782   0.809   7.649 -0.9671  1.1924 -2.0439
   37POPC   C27 4961   1.760   0.632   7.771 -0.2896 -0.9125 -0.0460
   37POPC   H7R 4962   1.871   0.641   7.771 -0.4111  0.9417 -0.8071
   37POPC   H7S 4963   1.753   0.521   7.762  0.3430 -1.0231  0.7186
   37POPC   C28 4964   1.703   0.667   7.912 -0.6696  0.3583  0.5513
   37POPC   H8R 4965   1.756   0.603   7.987  1.6684 -0.3535 -1.5686
   37POPC   H8S 4966   1.596   0.639   7.911 -0.5039 -0.2882  0.3692
   37POPC   C29 4967   1.736   0.808   7.941 -0.0216  0.8846  1.0399
   37POPC   H91 4968   1.693   0.883   7.874 -0.7218 -1.5982 -1.4670
   37POPC  C210 4969   1.837   0.843   8.031 -0.0346  0.1354  0.4327
   37POPC  H101 4970   1.860   0.948   8.053  1.7175 -0.1944  0.3260
   37POPC  C211 4971   1.907   0.749   8.125  0.0273  0.3993  0.1822
   37POPC  H11R 4972   1.882   0.642   8.107 -1.8435  0.9350 -0.6063
   37POPC  H11S 4973   1.893   0.776   8.232 -0.1602 -0.2584  0.3271
   37POPC  C212 4974   2.055   0.753   8.091 -0.3489  0.6133  0.3557
   37POPC  H12R 4975   2.106   0.675   8.152 -2.7216 -0.4379  1.1409
   37POPC  H12S 4976   2.101   0.851   8.115 -0.8871  0.7429  0.8689
   37POPC  C213 4977   2.093   0.725   7.947 -0.3571 -0.4742 -0.1244
   37POPC  H13R 4978   2.048   0.793   7.872  1.3003 -0.3264 -1.0146
   37POPC  H13S 4979   2.059   0.622   7.924 -1.3137  0.0766 -1.2389
   37POPC  C214 4980   2.241   0.735   7.918  0.2442 -0.0482  0.6718
   37POPC  H14R 4981   2.297   0.690   8.003  3.2866  4.3138  1.3319
   37POPC  H14S 4982   2.263   0.844   7.918 -0.5714  0.1378 -1.1461
   37POPC  C215 4983   2.289   0.662   7.784 -0.1933 -0.6467 -0.6929
   37POPC  H15R 4984   2.251   0.558   7.778  1.6663 -1.5293  1.4488
   37POPC  H15S 4985   2.400   0.657   7.786 -0.1560  0.1225 -0.3940
   37POPC  C216 4986   2.237   0.740   7.664  0.0243  0.5389 -0.5499
   37POPC  H16R 4987   2.264   0.848   7.652 -0.1497  0.7689  0.9485
   37POPC  H16S 4988   2.126   0.749   7.670  0.0133  0.4398 -0.6076
   37POPC  C217 4989   2.260   0.654   7.539 -0.2168 -0.0013 -0.0374
   37POPC  H17R 4990   2.237   0.546   7.557 -1.7966  0.4817  1.0610
   37POPC  H17S 4991   2.367   0.656   7.509 -0.7287 -3.5711 -2.9876
   37POPC  C218 4992   2.179   0.698   7.419 -0.2423 -0.2886 -0.0651
   37POPC  H18R 4993   2.155   0.806   7.428 -0.6422 -0.3226 -0.6981
   37POPC  H18S 4994   2.085   0.639   7.414 -0.0471 -0.9031  2.3378
   37POPC  H18T 4995   2.241   0.668   7.332  0.4263  0.8158  0.0102
   37POPC   C33 4996   2.305   0.780   6.924 -0.4575 -0.3062  0.4265
   37POPC   H3X 4997   2.252   0.792   6.827  1.7254  0.0754 -0.8003
   37POPC   H3Y 4998   2.413   0.790   6.898 -0.4453 -0.7580  0.2945
   37POPC   C34 4999   2.282   0.914   7.011  1.0347 -0.0551 -0.2833
   37POPC   H4X 5000   2.175   0.925   7.040  0.9103  0.0737 -0.7820
   37POPC   H4Y 5001   2.302   0.995   6.937 -1.8933 -1.3602 -2.7687
   37POPC   C35 5002   2.361   0.910   7.135 -0.6054  0.3757  0.3428
   37POPC   H5X 5003   2.468   0.890   7.111 -1.4863 -1.0698 -2.9017
   37POPC   H5Y 5004   2.325   0.828   7.201  1.1229 -1.0698 -0.4089
   37POPC   C36 5005   2.358   1.041   7.211 -0.3320 -0.1432  0.4683
   37POPC   H6X 5006   2.259   1.078   7.247  0.0177  0.7743  0.5130
   37POPC   H6Y 5007   2.407   1.113   7.142 -0.1902 -3.5290 -3.2690
   37POPC   C37 5008   2.450   1.032   7.330  0.4452 -0.0506 -0.2856
   37POPC   H7X 5009   2.555   1.012   7.299  0.6471  0.6126 -0.0550
   37POPC   H7Y 5010   2.433   0.947   7.400 -0.8644  0.7622  0.4393
   37POPC   C38 5011   2.442   1.151   7.419 -0.1967 -0.6443  0.0526
   37POPC   H8X 5012   2.346   1.207   7.416  1.3590  2.2528 -3.2010
   37POPC   H8Y 5013   2.515   1.222   7.375 -2.6613  0.9197 -1.7651
   37POPC   C39 5014   2.483   1.127   7.566 -0.7831 -0.4326 -0.5102
   37POPC   H9X 5015   2.588   1.090   7.564  0.0621  1.7534  0.0987
   37POPC   H9Y 5016   2.422   1.044   7.609 -0.6424  1.2127  3.2731
   37POPC  C310 5017   2.480   1.255   7.655 -0.7172  0.3960 -0.2175
   37POPC  H10X 5018   2.377   1.292   7.668 -1.5627 -1.4840 -1.1702
   37POPC  H10Y 5019   2.535   1.334   7.600 -1.2266  1.1394  0.3196
   37POPC  C311 5020   2.537   1.249   7.802  0.0419 -0.3186  0.2130
   37POPC  H11X 5021   2.523   1.347   7.851  0.2760 -0.0928 -0.1725
   37POPC  H11Y 5022   2.646   1.226   7.793 -0.2213 -0.8534 -2.1980
   37POPC  C312 5023   2.480   1.142   7.902  0.4496  0.1944 -0.6403
   37POPC  H12X 5024   2.503   1.042   7.861  1.1153  0.5075 -1.0572
   37POPC  H12Y 5025   2.370   1.157   7.895  0.3987 -0.2193 -0.6932
   37POPC  C313 5026   2.534   1.155   8.046 -0.1298  0.6224 -0.1555
   37POPC  H13X 5027   2.568   1.252   8.086  0.3004 -0.0053  1.0437
   37POPC  H13Y 5028   2.621   1.086   8.035  1.0361  2.0758 -0.3484
   37POPC  C314 5029   2.452   1.077   8.152  0.0515 -1.0473 -0.3750
   37POPC  H14X 5030   2.351   1.123   8.165  0.0940 -1.4544  1.9148
   37POPC  H14Y 5031   2.504   1.097   8.248  0.5673 -2.1551 -0.4120
   37POPC  C315 5032   2.453   0.928   8.144 -0.0291 -0.9041  0.0723
   37POPC  H15X 5033   2.556   0.887   8.151  0.4499  0.3000  0.4131
   37POPC  H15Y 5034   2.418   0.901   8.042  0.0767 -3.3018  0.5979
   37POPC  C316 5035   2.369   0.855   8.248 -0.4042  0.3619  0.6786
   37POPC  H16X 5036   2.261   0.879   8.250 -0.9126 -1.7418  1.4806
   37POPC  H16Y 5037   2.407   0.892   8.345 -2.1901  1.0315  1.1525
   37POPC  H16Z 5038   2.385   0.745   8.243  1.5955  0.6658 -1.5377
   38POPC     N 5039   1.462   1.661   6.343  0.2117 -0.4747 -0.9438
   38POPC   C12 5040   1.550   1.595   6.239  0.2382 -0.6091  0.0152
   38POPC  H12A 5041   1.575   1.684   6.182 -1.7642 -0.0814 -0.1207
   38POPC  H12B 5042   1.492   1.523   6.183  0.2719 -0.0903 -0.7078
   38POPC   C13 5043   1.529   1.775   6.413 -0.2259  0.8124 -0.0909
   38POPC  H13A 5044   1.456   1.822   6.477 -1.0492  1.0042 -1.1371
   38POPC  H13B 5045   1.613   1.743   6.472  0.5288  1.9948 -0.4901
   38POPC  H13C 5046   1.555   1.849   6.338  2.3555 -1.0325 -1.1617
   38POPC   C14 5047   1.326   1.694   6.280 -1.1980 -0.4957  0.4513
   38POPC  H14A 5048   1.334   1.764   6.199 -1.7006 -0.6267  0.2853
   38POPC  H14B 5049   1.286   1.601   6.240  0.2688 -1.2482  0.6767
   38POPC  H14C 5050   1.254   1.724   6.355  0.4305  1.9133  1.1604
   38POPC   C15 5051   1.436   1.566   6.455 -0.4833  0.5899 -0.1751
   38POPC  H15A 5052   1.408   1.469   6.416  0.5952  0.3195 -0.3045
   38POPC  H15B 5053   1.368   1.614   6.524  1.7989  2.8987  0.6250
   38POPC  H15C 5054   1.528   1.556   6.510 -1.1697  0.7170  1.0175
   38POPC   C11 5055   1.681   1.535   6.291  0.2324  0.1842  0.7399
   38POPC  H11A 5056   1.721   1.474   6.207 -0.3825  0.1442  0.4698
   38POPC  H11B 5057   1.654   1.464   6.372  1.0417 -1.8938 -0.7359
   38POPC     P 5058   1.858   1.730   6.250  0.4089 -0.7384 -0.2944
   38POPC   O13 5059   1.779   1.830   6.174  0.6516  0.4797  0.1369
   38POPC   O14 5060   1.942   1.643   6.172  0.6713 -1.0653 -0.6877
   38POPC   O12 5061   1.767   1.637   6.347 -0.0316  0.0144  0.7234
   38POPC   O11 5062   1.949   1.810   6.351 -0.5696  0.3021 -0.4526
   38POPC    C1 5063   1.884   1.864   6.471  0.3026 -0.7728 -0.3691
   38POPC    HA 5064   1.871   1.795   6.558  2.3889 -1.4627 -0.5600
   38POPC    HB 5065   1.786   1.905   6.438  0.8227  1.1860  0.4068
   38POPC    C2 5066   1.963   1.984   6.534 -0.5216 -0.2571 -0.1530
   38POPC    HS 5067   1.964   2.067   6.460  2.4066  0.7387  0.8654
   38POPC   O21 5068   2.096   1.939   6.558 -0.3028 -0.2866 -0.7075
   38POPC   C21 5069   2.184   2.021   6.619  0.2647  0.2444  0.5757
   38POPC   O22 5070   2.160   2.135   6.637 -0.0939  0.5682 -0.1561
   38POPC   C22 5071   2.310   1.940   6.651 -0.4985  0.2156  0.6144
   38POPC   H2R 5072   2.342   1.917   6.547 -1.3286 -0.9408  0.5928
   38POPC   H2S 5073   2.268   1.847   6.694  1.3003 -0.6006  0.7006
   38POPC    C3 5074   1.880   2.032   6.658  0.4631  0.1345 -0.2417
   38POPC    HX 5075   1.772   2.049   6.640  0.0073  1.6927  3.1235
   38POPC    HY 5076   1.920   2.128   6.698 -0.3506  0.3612  0.0454
   38POPC   O31 5077   1.882   1.935   6.762 -0.2043 -0.6969 -0.6908
   38POPC   C31 5078   1.824   1.970   6.874  0.3558  0.3464 -0.2253
   38POPC   O32 5079   1.758   2.071   6.895 -0.3845 -0.0518 -0.1598
   38POPC   C32 5080   1.860   1.864   6.979 -0.3718  0.3923  0.2230
   38POPC   H2X 5081   1.962   1.892   7.013 -0.5065  0.9397  0.1967
   38POPC   H2Y 5082   1.875   1.765   6.931 -0.8492 -0.2674  1.3909
   38POPC   C23 5083   2.421   1.997   6.728 -1.1344 -0.2212 -0.4687
   38POPC   H3R 5084   2.436   2.103   6.698  0.2061 -0.6688 -1.4944
   38POPC   H3S 5085   2.519   1.948   6.705 -1.3043 -1.5973  1.5136
   38POPC   C24 5086   2.405   1.987   6.881 -0.0452  0.4750 -0.3523
   38POPC   H4R 5087   2.493   2.038   6.925 -0.4186  0.4570  0.4165
   38POPC   H4S 5088   2.403   1.882   6.919  0.2869  0.7219  0.3574
   38POPC   C25 5089   2.275   2.057   6.930  0.4959  0.1929  0.0197
   38POPC   H5R 5090   2.193   1.989   6.897 -1.0802  1.2364  1.6236
   38POPC   H5S 5091   2.255   2.157   6.887  3.5038  0.9574  0.2029
   38POPC   C26 5092   2.275   2.071   7.081 -0.3918 -0.1754  0.0300
   38POPC   H6R 5093   2.347   2.148   7.116 -1.0376  0.6689 -0.4611
   38POPC   H6S 5094   2.305   1.979   7.135  0.6494  1.4886  2.4449
   38POPC   C27 5095   2.140   2.117   7.149  0.5141  0.2939 -0.2928
   38POPC   H7R 5096   2.058   2.043   7.137  0.8738 -0.5077  1.8406
   38POPC   H7S 5097   2.103   2.214   7.109  1.7716  0.5785 -0.8130
   38POPC   C28 5098   2.167   2.127   7.304 -0.7207 -0.2595 -0.4177
   38POPC   H8R 5099   2.227   2.041   7.341  2.1266  0.4161 -3.0334
   38POPC   H8S 5100   2.068   2.118   7.354  0.3599 -0.2912  1.8410
   38POPC   C29 5101   2.235   2.257   7.346 -0.8168  0.0162  0.4994
   38POPC   H91 5102   2.248   2.332   7.267 -2.1969 -1.2498 -0.9920
   38POPC  C210 5103   2.291   2.291   7.464 -0.1175 -0.7537  0.3622
   38POPC  H101 5104   2.335   2.392   7.463 -1.9497  0.1936 -3.3172
   38POPC  C211 5105   2.308   2.201   7.583 -0.0254 -0.5598 -0.3548
   38POPC  H11R 5106   2.412   2.163   7.599  0.5837  0.5281 -1.5556
   38POPC  H11S 5107   2.242   2.112   7.579  0.5717 -1.0583  0.4745
   38POPC  C212 5108   2.268   2.283   7.708 -0.3282 -0.1265 -1.1687
   38POPC  H12R 5109   2.177   2.345   7.688 -0.4841  0.9845  2.2796
   38POPC  H12S 5110   2.351   2.352   7.732 -1.3864  1.1413 -0.9916
   38POPC  C213 5111   2.253   2.197   7.836 -0.2118  0.0136 -0.2254
   38POPC  H13R 5112   2.355   2.162   7.863 -0.1399 -0.0020 -0.5169
   38POPC  H13S 5113   2.181   2.113   7.837  0.4462 -0.5654 -0.0095
   38POPC  C214 5114   2.220   2.277   7.964 -0.6735  0.0225 -0.3323
   38POPC  H14R 5115   2.122   2.327   7.949 -0.2371  0.5346 -1.5153
   38POPC  H14S 5116   2.295   2.358   7.977  1.1759 -1.8565  1.5740
   38POPC  C215 5117   2.229   2.204   8.097  0.3471 -0.0327  0.8233
   38POPC  H15R 5118   2.291   2.262   8.169  1.1501 -0.5107  0.5343
   38POPC  H15S 5119   2.278   2.106   8.076 -1.5811 -1.0211  0.7511
   38POPC  C216 5120   2.096   2.183   8.166 -0.5491 -0.3174  0.1507
   38POPC  H16R 5121   2.027   2.110   8.118 -2.7555  1.6429  0.1713
   38POPC  H16S 5122   2.036   2.276   8.153 -0.7959 -0.3543  0.9728
   38POPC  C217 5123   2.099   2.143   8.320 -0.0718  0.0564  0.2437
   38POPC  H17R 5124   2.173   2.210   8.369  2.0041 -1.0933 -1.1294
   38POPC  H17S 5125   2.144   2.042   8.332  1.6594  0.8638  0.8714
   38POPC  C218 5126   1.960   2.144   8.380  0.4458 -0.0632 -0.1781
   38POPC  H18R 5127   1.896   2.068   8.330  1.7221 -1.2303 -0.1287
   38POPC  H18S 5128   1.911   2.243   8.374  0.8869  0.2346  0.7834
   38POPC  H18T 5129   1.964   2.113   8.487  4.0897 -1.9643 -0.6789
   38POPC   C33 5130   1.762   1.834   7.090 -0.0994 -0.6944  0.2723
   38POPC   H3X 5131   1.777   1.735   7.138 -0.6728 -1.9208 -1.9465
   38POPC   H3Y 5132   1.666   1.820   7.037 -1.0561  0.2278  1.7054
   38POPC   C34 5133   1.760   1.944   7.201  0.5552  0.1586 -0.0862
   38POPC   H4X 5134   1.768   2.044   7.154  2.1621 -0.4926 -1.3521
   38POPC   H4Y 5135   1.852   1.921   7.260  0.0296 -0.3857  0.5310
   38POPC   C35 5136   1.624   1.934   7.277 -0.8086  0.5707 -0.5153
   38POPC   H5X 5137   1.542   1.932   7.202 -0.1765  0.4323 -1.2152
   38POPC   H5Y 5138   1.626   2.028   7.336 -0.2900 -0.1992  0.7433
   38POPC   C36 5139   1.621   1.821   7.383  0.1753 -0.3532 -0.3016
   38POPC   H6X 5140   1.676   1.740   7.331 -1.8019 -0.8069 -1.7848
   38POPC   H6Y 5141   1.525   1.767   7.399  1.1730 -1.7374  1.3133
   38POPC   C37 5142   1.688   1.866   7.516 -0.1255 -0.3150  0.4952
   38POPC   H7X 5143   1.645   1.958   7.560  1.5537  1.8737 -2.0604
   38POPC   H7Y 5144   1.791   1.889   7.479  0.8391 -2.9363  1.3081
   38POPC   C38 5145   1.709   1.752   7.609  0.0475  0.1620  0.1516
   38POPC   H8X 5146   1.784   1.788   7.682  3.0515 -0.3573 -2.4664
   38POPC   H8Y 5147   1.765   1.666   7.567 -1.3801 -0.0670 -1.4283
   38POPC   C39 5148   1.589   1.693   7.684 -0.0624 -0.3406  0.7987
   38POPC   H9X 5149   1.627   1.638   7.773 -1.7108 -1.1269  1.0652
   38POPC   H9Y 5150   1.546   1.611   7.623  1.6407 -0.4709 -0.3006
   38POPC  C310 5151   1.480   1.801   7.713  0.2675 -0.0779  0.3551
   38POPC  H10X 5152   1.442   1.854   7.623 -2.6079 -0.5046  1.1906
   38POPC  H10Y 5153   1.501   1.881   7.788 -0.1861  0.5675 -0.1896
   38POPC  C311 5154   1.341   1.746   7.754 -0.3729 -0.1430 -0.0223
   38POPC  H11X 5155   1.312   1.672   7.676  1.6813  0.3878 -1.3912
   38POPC  H11Y 5156   1.260   1.822   7.754  0.2718  0.5613  0.8549
   38POPC  C312 5157   1.344   1.678   7.895  0.0945  0.0106  0.4232
   38POPC  H12X 5158   1.407   1.586   7.901 -1.6832 -1.2090  1.4640
   38POPC  H12Y 5159   1.240   1.643   7.913 -0.3805  2.5470  3.5551
   38POPC  C313 5160   1.355   1.763   8.017 -0.1813 -0.6252 -0.0226
   38POPC  H13X 5161   1.278   1.843   8.020 -0.4388 -0.7974 -1.2672
   38POPC  H13Y 5162   1.455   1.812   8.014 -0.6436  0.7099  2.8398
   38POPC  C314 5163   1.349   1.690   8.156 -0.7859 -0.4380  0.3965
   38POPC  H14X 5164   1.354   1.768   8.234 -1.0027  1.2370 -1.1925
   38POPC  H14Y 5165   1.439   1.628   8.173  1.0496  2.4236  1.8025
   38POPC  C315 5166   1.209   1.624   8.176 -0.1127  0.4026 -0.2019
   38POPC  H15X 5167   1.200   1.531   8.116  0.2524  0.5671 -0.5119
   38POPC  H15Y 5168   1.128   1.693   8.143 -0.5683  0.0570  0.1823
   38POPC  C316 5169   1.182   1.569   8.312  0.1560 -0.0814 -0.3862
   38POPC  H16X 5170   1.104   1.630   8.363 -1.7072 -3.6660  1.4648
   38POPC  H16Y 5171   1.281   1.566   8.361 -0.8749 -0.4611  1.7829
   38POPC  H16Z 5172   1.141   1.465   8.312  1.1960 -0.5044  0.3738
   39POPC     N 5173   5.841   0.364   6.458 -0.2729  0.8221  0.3363
   39POPC   C12 5174   5.965   0.314   6.386  0.3380 -0.1453  0.6533
   39POPC  H12A 5175   6.043   0.388   6.394  0.2599 -0.1451  1.4560
   39POPC  H12B 5176   5.951   0.318   6.279  0.3520 -2.3735  0.5326
   39POPC   C13 5177   5.721   0.299   6.395 -1.4142 -0.0822  0.4279
   39POPC  H13A 5178   5.633   0.319   6.454 -0.0911  0.5329  2.3022
   39POPC  H13B 5179   5.705   0.332   6.294 -0.3908 -1.9847 -0.4223
   39POPC  H13C 5180   5.731   0.191   6.402  0.8046  0.1012  1.0003
   39POPC   C14 5181   5.840   0.332   6.603 -0.0866  0.3047  0.4971
   39POPC  H14A 5182   5.748   0.366   6.649  0.0050  1.9332 -0.4506
   39POPC  H14B 5183   5.842   0.225   6.614 -1.3714  0.2333  0.2037
   39POPC  H14C 5184   5.934   0.370   6.642  0.3843 -0.3609  0.0394
   39POPC   C15 5185   5.829   0.512   6.438 -0.4426 -0.2974 -0.0427
   39POPC  H15A 5186   5.900   0.567   6.498 -0.6302 -0.4921  0.3557
   39POPC  H15B 5187   5.730   0.549   6.456 -0.7340 -0.9520 -0.2565
   39POPC  H15C 5188   5.845   0.542   6.335 -0.0982  3.5004  0.9975
   39POPC   C11 5189   6.016   0.176   6.425  0.1911  0.3159  0.3341
   39POPC  H11A 5190   6.021   0.177   6.536  0.0502 -0.6532  0.3584
   39POPC  H11B 5191   6.117   0.152   6.386 -0.3801  1.1931 -1.8976
   39POPC     P 5192   5.900  -0.049   6.481  0.0168  0.1130  0.1785
   39POPC   O13 5193   5.830  -0.155   6.409 -0.3723  0.9505 -0.4520
   39POPC   O14 5194   5.843  -0.001   6.602  0.0943 -0.8756  0.3253
   39POPC   O12 5195   5.915   0.074   6.380  0.1755 -0.0273  0.1097
   39POPC   O11 5196   6.053  -0.098   6.508  0.3247 -0.3822 -0.1830
   39POPC    C1 5197   6.097  -0.231   6.511  0.5259 -0.2247  0.2652
   39POPC    HA 5198   6.207  -0.232   6.493  0.4371 -0.8995 -0.2827
   39POPC    HB 5199   6.053  -0.293   6.431 -0.9875  0.5380  0.4686
   39POPC    C2 5200   6.054  -0.311   6.644 -0.4727 -0.0653 -0.6173
   39POPC    HS 5201   6.102  -0.411   6.654 -0.7756 -0.6062 -3.4816
   39POPC   O21 5202   5.907  -0.323   6.641 -0.3575 -0.8122 -0.1952
   39POPC   C21 5203   5.871  -0.436   6.579  0.2075 -0.5080 -0.7103
   39POPC   O22 5204   5.946  -0.518   6.531 -0.0970 -0.0958  0.5194
   39POPC   C22 5205   5.720  -0.449   6.576 -0.3553  0.4269 -0.8075
   39POPC   H2R 5206   5.681  -0.390   6.490 -0.2878  0.9099 -0.5073
   39POPC   H2S 5207   5.681  -0.412   6.673  0.1803 -2.2803  0.5476
   39POPC    C3 5208   6.091  -0.215   6.764  0.1100 -0.0093  0.4383
   39POPC    HX 5209   6.036  -0.119   6.754  2.6927  2.0242  3.7421
   39POPC    HY 5210   6.201  -0.200   6.759  0.0125  0.4488 -0.5458
   39POPC   O31 5211   6.054  -0.272   6.903 -0.3236 -0.3312  0.0546
   39POPC   C31 5212   6.132  -0.356   6.958 -0.5001  0.2959 -0.9397
   39POPC   O32 5213   6.235  -0.397   6.910 -0.5949  0.2486  0.1089
   39POPC   C32 5214   6.081  -0.393   7.099  0.6489  0.4764  0.1585
   39POPC   H2X 5215   6.044  -0.303   7.154 -1.9780 -0.2950 -0.1903
   39POPC   H2Y 5216   5.994  -0.462   7.090  3.0004 -2.5729 -0.8658
   39POPC   C23 5217   5.663  -0.591   6.568  0.2135  0.8472  0.1501
   39POPC   H3R 5218   5.729  -0.646   6.497  0.4095  0.3735  0.6901
   39POPC   H3S 5219   5.571  -0.582   6.507 -0.1465 -0.5258  0.4529
   39POPC   C24 5220   5.652  -0.663   6.702 -0.1263  0.1686  1.0200
   39POPC   H4R 5221   5.613  -0.766   6.686 -1.2707  0.8900 -1.3968
   39POPC   H4S 5222   5.579  -0.615   6.769 -1.9179 -2.6682  1.2914
   39POPC   C25 5223   5.780  -0.675   6.786  0.1152  0.0819  0.0210
   39POPC   H5R 5224   5.752  -0.720   6.884 -0.6264  2.1309  0.8048
   39POPC   H5S 5225   5.808  -0.570   6.811 -1.1899  0.4446  0.0291
   39POPC   C26 5226   5.895  -0.749   6.724 -0.5873 -0.2378  0.7328
   39POPC   H6R 5227   5.913  -0.721   6.618 -1.8042  0.7082  0.7451
   39POPC   H6S 5228   5.888  -0.859   6.733 -0.1180 -0.1211  3.1729
   39POPC   C27 5229   6.027  -0.718   6.806 -0.0107 -0.1085 -0.3171
   39POPC   H7R 5230   6.044  -0.609   6.792 -0.2080  0.0180  0.3766
   39POPC   H7S 5231   6.102  -0.786   6.762  2.4959  1.0083  1.9138
   39POPC   C28 5232   6.034  -0.735   6.957  0.1451 -1.2046 -0.1071
   39POPC   H8R 5233   5.942  -0.690   6.999  0.6843 -0.9760  0.8794
   39POPC   H8S 5234   6.122  -0.676   6.992 -0.4155 -0.1434 -0.4708
   39POPC   C29 5235   6.039  -0.875   7.000  0.2795  0.7500 -0.2595
   39POPC   H91 5236   6.112  -0.932   6.941 -0.0650  1.0011 -0.9348
   39POPC  C210 5237   5.960  -0.944   7.087  0.6039 -0.2234  0.0836
   39POPC  H101 5238   5.979  -1.050   7.110 -1.6171 -0.5773  0.4873
   39POPC  C211 5239   5.845  -0.900   7.172  0.0849  0.2153 -0.0156
   39POPC  H11R 5240   5.757  -0.967   7.170  1.0289 -1.0576 -2.8337
   39POPC  H11S 5241   5.818  -0.796   7.144 -0.4986  0.1471  0.2835
   39POPC  C212 5242   5.895  -0.890   7.314 -0.2710  0.1464 -0.3302
   39POPC  H12R 5243   5.819  -0.837   7.376  0.0340  1.6887 -1.2325
   39POPC  H12S 5244   5.992  -0.840   7.330  0.5935 -1.9150  1.3906
   39POPC  C213 5245   5.904  -1.029   7.380 -0.9645 -0.0800  0.3157
   39POPC  H13R 5246   5.996  -1.071   7.334 -3.6079 -3.7164 -2.1282
   39POPC  H13S 5247   5.817  -1.088   7.346 -0.6841 -0.9187  1.0301
   39POPC  C214 5248   5.903  -1.034   7.535 -0.1482 -0.8698  1.2591
   39POPC  H14R 5249   5.914  -1.138   7.574  0.7229 -1.3527 -0.1962
   39POPC  H14S 5250   5.795  -1.009   7.545 -0.7878 -0.7074 -3.6712
   39POPC  C215 5251   5.991  -0.933   7.613  0.0613  0.0475 -0.3351
   39POPC  H15R 5252   5.967  -0.832   7.573  2.7562  0.5626 -0.7782
   39POPC  H15S 5253   6.093  -0.960   7.580  0.6546  1.5675  0.1368
   39POPC  C216 5254   5.973  -0.930   7.766 -0.5806  0.2740  0.5035
   39POPC  H16R 5255   6.014  -0.836   7.810 -0.1201 -0.0461  0.7555
   39POPC  H16S 5256   6.037  -1.013   7.801  3.0584  1.0582 -3.5983
   39POPC  C217 5257   5.831  -0.940   7.823 -0.5054 -0.0666 -0.9150
   39POPC  H17R 5258   5.796  -1.040   7.790 -1.0652 -1.0512  2.3894
   39POPC  H17S 5259   5.774  -0.854   7.782  0.2218  1.4868  1.1700
   39POPC  C218 5260   5.849  -0.938   7.978  0.2329 -0.2725  0.5823
   39POPC  H18R 5261   5.755  -0.976   8.024  0.3144  0.7349  1.6188
   39POPC  H18S 5262   5.872  -0.833   8.008 -2.0351  0.7529 -1.0383
   39POPC  H18T 5263   5.930  -1.008   8.008  0.8495  0.2672  0.1854
   39POPC   C33 5264   6.187  -0.467   7.180 -0.2674  0.5449  0.5633
   39POPC   H3X 5265   6.272  -0.395   7.179 -0.4912  0.8121  0.8479
   39POPC   H3Y 5266   6.214  -0.565   7.136  0.4072 -0.4051  2.9509
   39POPC   C34 5267   6.127  -0.492   7.320 -0.2117  0.7227  0.2058
   39POPC   H4X 5268   6.038  -0.557   7.303 -0.7778  1.0082  1.8989
   39POPC   H4Y 5269   6.101  -0.398   7.373 -0.7263  0.3859  0.5614
   39POPC   C35 5270   6.233  -0.559   7.407  0.3145  0.0716  1.1572
   39POPC   H5X 5271   6.323  -0.494   7.412  1.5881 -1.3966 -0.6889
   39POPC   H5Y 5272   6.278  -0.653   7.366 -0.5906 -0.7618  2.0366
   39POPC   C36 5273   6.186  -0.570   7.554  0.7748  0.4764 -0.0754
   39POPC   H6X 5274   6.136  -0.670   7.551 -0.8126  1.2587 -1.9659
   39POPC   H6Y 5275   6.119  -0.486   7.583  1.3412  0.2971  1.8769
   39POPC   C37 5276   6.297  -0.586   7.657 -0.6532 -0.3251 -0.1464
   39POPC   H7X 5277   6.366  -0.499   7.654 -0.0680 -0.7554  0.6460
   39POPC   H7Y 5278   6.365  -0.669   7.628  1.3729  0.5968  1.6792
   39POPC   C38 5279   6.242  -0.612   7.801 -0.8184 -0.7796  0.2856
   39POPC   H8X 5280   6.155  -0.680   7.793 -0.4662 -1.0775 -1.4161
   39POPC   H8Y 5281   6.214  -0.514   7.845  0.1958 -1.1560  1.8740
   39POPC   C39 5282   6.352  -0.669   7.889  0.1388 -0.4959 -0.3773
   39POPC   H9X 5283   6.437  -0.599   7.877 -1.1242  0.8477 -1.9343
   39POPC   H9Y 5284   6.372  -0.775   7.860  0.9177 -0.2615 -0.7096
   39POPC  C310 5285   6.335  -0.702   8.039 -0.0959 -0.3792  0.6531
   39POPC  H10X 5286   6.329  -0.604   8.091 -2.5682  1.1668 -2.2469
   39POPC  H10Y 5287   6.426  -0.757   8.069 -0.4776  0.4646  3.7498
   39POPC  C311 5288   6.213  -0.790   8.060  0.0356  0.0092  0.4626
   39POPC  H11X 5289   6.211  -0.874   7.986 -1.4353 -0.0971  0.5882
   39POPC  H11Y 5290   6.117  -0.735   8.052 -0.9101 -1.1539  2.8997
   39POPC  C312 5291   6.225  -0.858   8.199  0.2955  0.0096 -0.2830
   39POPC  H12X 5292   6.326  -0.905   8.205 -0.0708 -0.9071 -1.0884
   39POPC  H12Y 5293   6.159  -0.947   8.206 -1.2139  1.1282  0.3590
   39POPC  C313 5294   6.200  -0.759   8.314 -0.8138  0.4661  0.4553
   39POPC  H13X 5295   6.145  -0.803   8.400 -0.2155 -0.1990  0.5120
   39POPC  H13Y 5296   6.140  -0.673   8.278  1.0099  1.1238 -1.1760
   39POPC  C314 5297   6.337  -0.710   8.365  0.4132  0.2087 -0.5550
   39POPC  H14X 5298   6.325  -0.603   8.394 -0.6970 -0.1873  0.5464
   39POPC  H14Y 5299   6.416  -0.721   8.288  1.0712 -1.9225  0.3717
   39POPC  C315 5300   6.383  -0.794   8.486 -0.2398  0.1032 -1.1545
   39POPC  H15X 5301   6.380  -0.904   8.473 -1.8407 -0.1541  0.8130
   39POPC  H15Y 5302   6.313  -0.767   8.568 -0.4342 -1.3327 -0.8355
   39POPC  C316 5303   6.528  -0.754   8.540  0.9778 -0.2591  0.4776
   39POPC  H16X 5304   6.597  -0.746   8.454 -0.1252 -2.0933 -0.6492
   39POPC  H16Y 5305   6.560  -0.827   8.617 -1.5379 -1.4754  0.4670
   39POPC  H16Z 5306   6.518  -0.659   8.597  1.0901 -0.2174  0.4277
   40POPC     N 5307   3.727   4.496   6.498 -0.0839 -0.0303 -0.0222
   40POPC   C12 5308   3.620   4.611   6.509 -0.1844  0.7545 -0.1082
   40POPC  H12A 5309   3.554   4.572   6.585 -1.4045  0.5353 -1.2466
   40POPC  H12B 5310   3.561   4.610   6.419 -0.5793 -1.4103  0.1078
   40POPC   C13 5311   3.839   4.519   6.405  0.0597 -0.4976  0.7684
   40POPC  H13A 5312   3.808   4.513   6.301 -0.8931 -0.4321  1.0366
   40POPC  H13B 5313   3.873   4.621   6.412 -2.7311  0.3938  3.1883
   40POPC  H13C 5314   3.922   4.453   6.426 -0.6328 -1.8649 -0.5363
   40POPC   C14 5315   3.784   4.479   6.636  0.3224 -1.0051  0.4139
   40POPC  H14A 5316   3.861   4.404   6.645  1.3869 -0.0913 -0.6255
   40POPC  H14B 5317   3.830   4.572   6.665  0.4697 -0.4086 -1.5431
   40POPC  H14C 5318   3.701   4.453   6.700 -1.1458 -0.3092 -1.1367
   40POPC   C15 5319   3.669   4.362   6.466 -0.3219 -0.3383  0.0784
   40POPC  H15A 5320   3.605   4.322   6.543  0.5356 -1.1238  0.3980
   40POPC  H15B 5321   3.747   4.290   6.448  3.2441  3.0004  1.0007
   40POPC  H15C 5322   3.612   4.368   6.374  0.5539  1.0868 -0.4024
   40POPC   C11 5323   3.676   4.748   6.547  0.0468 -0.3382 -0.1748
   40POPC  H11A 5324   3.732   4.743   6.643 -1.2275 -1.3680  0.5611
   40POPC  H11B 5325   3.589   4.805   6.586  0.4162 -0.4401  0.8167
   40POPC     P 5326   3.880   4.881   6.453  0.5023  0.1941 -0.1726
   40POPC   O13 5327   3.860   4.975   6.344 -0.5910  0.2143 -0.1953
   40POPC   O14 5328   3.993   4.783   6.443  0.0075  0.2171 -0.1023
   40POPC   O12 5329   3.739   4.812   6.438 -0.1600 -0.1106 -0.1311
   40POPC   O11 5330   3.890   4.949   6.601 -0.0111 -0.9658 -0.2738
   40POPC    C1 5331   3.864   5.094   6.602 -0.1598 -0.0854  0.3822
   40POPC    HA 5332   3.765   5.122   6.561 -0.6542 -0.0083  1.6112
   40POPC    HB 5333   3.941   5.152   6.548  1.0695 -2.4334 -0.5583
   40POPC    C2 5334   3.859   5.145   6.748 -0.1624 -0.2182 -0.4271
   40POPC    HS 5335   3.832   5.252   6.738 -1.8168 -0.7330 -1.9092
   40POPC   O21 5336   3.982   5.114   6.821  0.7687 -0.0839  0.3129
   40POPC   C21 5337   4.075   5.210   6.827 -0.2253  0.1364  0.1288
   40POPC   O22 5338   4.072   5.317   6.768  0.0879  0.4006 -0.0219
   40POPC   C22 5339   4.194   5.159   6.909  0.5926 -0.2480 -0.5693
   40POPC   H2R 5340   4.284   5.148   6.845  0.8874 -2.0554  0.1219
   40POPC   H2S 5341   4.169   5.058   6.946 -1.1925  0.7303  1.1161
   40POPC    C3 5342   3.743   5.075   6.831 -0.2221 -0.2411  0.6398
   40POPC    HX 5343   3.741   4.965   6.813 -1.2906 -0.3034  1.0489
   40POPC    HY 5344   3.643   5.098   6.788 -1.2727 -3.1000  1.3013
   40POPC   O31 5345   3.744   5.114   6.970 -0.6420  0.0616 -0.1573
   40POPC   C31 5346   3.811   5.043   7.052  0.2163  0.1271 -0.1432
   40POPC   O32 5347   3.858   4.932   7.030 -0.1854  0.3233  0.5368
   40POPC   C32 5348   3.807   5.103   7.197  0.0161 -0.3104  0.8072
   40POPC   H2X 5349   3.708   5.152   7.200 -0.2312 -0.6538 -0.8221
   40POPC   H2Y 5350   3.896   5.168   7.210  0.5569  0.3714 -4.1407
   40POPC   C23 5351   4.227   5.267   7.017 -0.2600  0.7308 -0.2454
   40POPC   H3R 5352   4.134   5.311   7.058 -1.2150 -1.2854 -0.1146
   40POPC   H3S 5353   4.283   5.355   6.979 -1.4182  2.0067  0.9014
   40POPC   C24 5354   4.300   5.197   7.140 -0.0103  0.1654  0.3355
   40POPC   H4R 5355   4.410   5.202   7.125 -0.3126  1.2033 -1.8818
   40POPC   H4S 5356   4.254   5.096   7.149 -1.1476  0.6443  0.1005
   40POPC   C25 5357   4.273   5.278   7.265  0.0016 -0.0429 -0.1221
   40POPC   H5R 5358   4.165   5.296   7.282 -0.3020 -1.5833 -0.2142
   40POPC   H5S 5359   4.317   5.378   7.247  0.1542 -0.1167 -0.1539
   40POPC   C26 5360   4.334   5.244   7.400 -0.4178  0.1786  0.3387
   40POPC   H6R 5361   4.443   5.222   7.386 -0.6451 -0.3999 -0.6817
   40POPC   H6S 5362   4.278   5.156   7.438  0.8584 -0.3898  0.9747
   40POPC   C27 5363   4.314   5.356   7.507  0.3658 -1.0782  0.6624
   40POPC   H7R 5364   4.206   5.379   7.494  0.8208 -0.3726 -3.0358
   40POPC   H7S 5365   4.370   5.451   7.492  2.1808 -2.3337 -1.1635
   40POPC   C28 5366   4.345   5.303   7.648 -0.4550  0.2357  0.3851
   40POPC   H8R 5367   4.347   5.192   7.649  1.8749  0.1997 -0.9394
   40POPC   H8S 5368   4.260   5.341   7.709 -1.4882  1.1048 -1.4922
   40POPC   C29 5369   4.477   5.344   7.707  0.2259  0.2046  0.1977
   40POPC   H91 5370   4.562   5.320   7.642  0.6101 -1.8200  1.3572
   40POPC  C210 5371   4.504   5.374   7.834 -0.5912  0.6902 -0.2917
   40POPC  H101 5372   4.608   5.407   7.850 -1.0163  2.8153 -1.4094
   40POPC  C211 5373   4.398   5.371   7.947 -0.1680 -0.2112 -0.4647
   40POPC  H11R 5374   4.457   5.318   8.025 -0.6967  1.6466  1.2699
   40POPC  H11S 5375   4.318   5.300   7.917  0.3795 -1.2031  0.3821
   40POPC  C212 5376   4.352   5.508   8.005  0.4565  0.0937 -0.0726
   40POPC  H12R 5377   4.285   5.552   7.927 -0.1952 -1.9092 -0.7034
   40POPC  H12S 5378   4.439   5.576   8.014  0.9699 -0.6912  1.1589
   40POPC  C213 5379   4.295   5.508   8.147 -0.8044  0.7828 -0.2899
   40POPC  H13R 5380   4.199   5.452   8.147 -1.0008  1.0227 -2.4087
   40POPC  H13S 5381   4.272   5.610   8.184 -0.4106  1.0575 -0.7905
   40POPC  C214 5382   4.394   5.424   8.241 -0.3463  0.3876 -0.9001
   40POPC  H14R 5383   4.495   5.470   8.231 -0.4953  1.2805  1.2393
   40POPC  H14S 5384   4.402   5.315   8.217  1.3701  0.1232  0.6039
   40POPC  C215 5385   4.360   5.452   8.387 -0.1348 -0.2391  0.1691
   40POPC  H15R 5386   4.280   5.381   8.417 -2.2789  0.6354 -3.0630
   40POPC  H15S 5387   4.320   5.553   8.408  0.2243 -0.5708  2.8348
   40POPC  C216 5388   4.476   5.434   8.497 -0.3253 -0.0205  0.1518
   40POPC  H16R 5389   4.559   5.505   8.478  0.4551 -1.1066 -0.6756
   40POPC  H16S 5390   4.523   5.336   8.471 -0.8145 -0.1840 -0.1428
   40POPC  C217 5391   4.434   5.424   8.639  0.9387  0.0826  0.3794
   40POPC  H17R 5392   4.504   5.361   8.697 -1.3165 -2.1834  0.7804
   40POPC  H17S 5393   4.338   5.369   8.642  0.2396  1.2667  0.7066
   40POPC  C218 5394   4.421   5.557   8.717  0.8398  0.2791  0.3758
   40POPC  H18R 5395   4.515   5.617   8.719  2.5588 -2.2325 -0.3520
   40POPC  H18S 5396   4.389   5.538   8.822  0.0784 -0.7922 -0.0290
   40POPC  H18T 5397   4.338   5.615   8.673  0.9426 -1.8942 -3.0128
   40POPC   C33 5398   3.829   5.002   7.307 -0.2361 -0.9199 -0.7365
   40POPC   H3X 5399   3.937   4.980   7.324 -0.2276  0.8068  1.9664
   40POPC   H3Y 5400   3.788   4.906   7.268  0.3580 -1.1741 -0.7557
   40POPC   C34 5401   3.754   5.023   7.440  0.0020 -0.0230  0.4600
   40POPC   H4X 5402   3.761   4.933   7.505 -1.4562 -0.1190  0.5279
   40POPC   H4Y 5403   3.646   5.044   7.423 -0.5503 -2.3332  0.6753
   40POPC   C35 5404   3.810   5.156   7.508  0.4330  0.6737 -0.3618
   40POPC   H5X 5405   3.743   5.179   7.593  3.6635  1.6082  2.1643
   40POPC   H5Y 5406   3.809   5.235   7.430  1.4767  1.7016  0.6277
   40POPC   C36 5407   3.956   5.133   7.555 -0.3720 -0.1843  0.0984
   40POPC   H6X 5408   3.979   5.218   7.623  0.5190 -1.0285  0.8781
   40POPC   H6Y 5409   4.024   5.152   7.469  0.1558  1.2603  0.7987
   40POPC   C37 5410   3.976   5.013   7.640 -0.0209  0.4928  0.6921
   40POPC   H7X 5411   3.953   4.912   7.599  3.1522 -0.2631  0.5288
   40POPC   H7Y 5412   3.903   5.019   7.723 -1.3724 -3.1973 -0.0321
   40POPC   C38 5413   4.120   5.009   7.686  0.0547  0.0295 -0.0853
   40POPC   H8X 5414   4.131   5.099   7.750 -0.2856 -0.3187  0.4641
   40POPC   H8Y 5415   4.182   5.007   7.594 -0.0064 -2.8772 -0.1726
   40POPC   C39 5416   4.166   4.880   7.764  0.6928 -0.3549  0.1817
   40POPC   H9X 5417   4.138   4.781   7.720  0.9349 -0.3758  0.0744
   40POPC   H9Y 5418   4.104   4.888   7.855  0.6019 -0.7996  0.1640
   40POPC  C310 5419   4.311   4.878   7.799 -0.0300 -0.1606  0.3181
   40POPC  H10X 5420   4.350   4.978   7.829  0.0995 -0.3104  0.6631
   40POPC  H10Y 5421   4.356   4.864   7.699 -1.0670 -1.2638 -0.0086
   40POPC  C311 5422   4.363   4.769   7.893  0.4791  0.4247 -0.4816
   40POPC  H11X 5423   4.474   4.773   7.889  0.5483  1.7222  1.1726
   40POPC  H11Y 5424   4.331   4.664   7.874  0.1107  0.4889 -0.2343
   40POPC  C312 5425   4.314   4.781   8.039  0.0052  0.8966  0.2759
   40POPC  H12X 5426   4.358   4.696   8.095  0.0840 -0.8214 -2.2524
   40POPC  H12Y 5427   4.205   4.779   8.059 -0.0933 -1.0991 -0.3017
   40POPC  C313 5428   4.366   4.907   8.107  0.6332  0.5801  0.2770
   40POPC  H13X 5429   4.341   4.996   8.046  0.2173  0.3299  0.0791
   40POPC  H13Y 5430   4.474   4.905   8.131  0.5045  0.2200  0.8507
   40POPC  C314 5431   4.298   4.922   8.241  0.8292  0.5996 -0.1696
   40POPC  H14X 5432   4.314   4.828   8.297 -0.9050 -0.3216 -1.1572
   40POPC  H14Y 5433   4.187   4.924   8.232  0.6852  2.5779  1.3140
   40POPC  C315 5434   4.347   5.042   8.322  0.0022 -0.0912  0.3001
   40POPC  H15X 5435   4.299   5.134   8.282  3.0378  2.0925  1.3211
   40POPC  H15Y 5436   4.456   5.048   8.302  0.0599 -0.7689  0.3791
   40POPC  C316 5437   4.325   5.033   8.474 -0.0269 -0.3817 -0.3055
   40POPC  H16X 5438   4.215   5.039   8.493  0.2029  1.2483  0.7092
   40POPC  H16Y 5439   4.381   5.112   8.529  0.9173 -2.0628  1.2592
   40POPC  H16Z 5440   4.373   4.938   8.505  3.1908  1.1100 -0.2956
   41CHL1    C3 5441   5.548   2.530  10.171 -0.6540 -0.1090  0.2992
   41CHL1    H3 5442   5.510   2.434  10.212  1.4536 -1.4644 -0.7436
   41CHL1    O3 5443   5.574   2.628  10.272  0.3651  0.0810 -0.0747
   41CHL1   H3' 5444   5.486   2.640  10.309  0.6643  0.6906  0.4781
   41CHL1    C4 5445   5.681   2.504  10.106  0.0127  0.7275  0.6176
   41CHL1   H4A 5446   5.735   2.592  10.065  0.9768 -0.3880 -0.6455
   41CHL1   H4B 5447   5.754   2.461  10.178  1.2122  1.9258  0.1774
   41CHL1    C5 5448   5.669   2.423   9.977  0.3647  0.2607  0.0315
   41CHL1    C6 5449   5.745   2.312   9.964  0.0729 -0.1857 -0.4234
   41CHL1    H6 5450   5.822   2.296  10.041  1.5688  0.8681 -1.6419
   41CHL1    C7 5451   5.742   2.218   9.848  0.2003  0.0253  0.8441
   41CHL1   H7A 5452   5.840   2.168   9.837  0.0217 -1.0563  3.5026
   41CHL1   H7B 5453   5.674   2.135   9.875  1.6418 -0.7853  2.1077
   41CHL1    C8 5454   5.675   2.285   9.719 -0.0254 -0.0215 -0.9166
   41CHL1    H8 5455   5.756   2.353   9.686  0.4155 -1.0988 -2.1235
   41CHL1   C14 5456   5.651   2.184   9.613 -0.2935 -0.1077 -0.0995
   41CHL1   H14 5457   5.572   2.117   9.651 -0.3881  1.1938  2.2264
   41CHL1   C15 5458   5.759   2.080   9.579 -0.6984 -0.0197 -0.4748
   41CHL1  H15A 5459   5.858   2.130   9.576  0.6345 -2.3866  1.1785
   41CHL1  H15B 5460   5.759   1.996   9.651  0.0544  1.2233  1.0120
   41CHL1   C16 5461   5.720   2.032   9.438 -0.5660 -0.6179 -0.5766
   41CHL1  H16A 5462   5.807   2.053   9.371 -0.0773 -0.5923  0.0581
   41CHL1  H16B 5463   5.705   1.923   9.425 -0.7417 -0.7652  0.7782
   41CHL1   C17 5464   5.594   2.109   9.393 -0.3391 -0.5578  0.2479
   41CHL1   H17 5465   5.505   2.061   9.439  0.2880  0.4734  2.6807
   41CHL1   C13 5466   5.597   2.243   9.478 -0.3416  0.6990  0.3969
   41CHL1   C18 5467   5.688   2.337   9.412  0.3979  0.1078  0.2363
   41CHL1  H18A 5468   5.640   2.367   9.316 -1.5125 -1.8697  0.5114
   41CHL1  H18B 5469   5.696   2.431   9.471  0.1099  0.7325 -0.7018
   41CHL1  H18C 5470   5.787   2.286   9.403  0.1323 -1.5910  4.5248
   41CHL1   C12 5471   5.461   2.315   9.508 -0.0017  0.6675  0.1342
   41CHL1  H12A 5472   5.432   2.374   9.419 -0.7660  1.6356  1.0007
   41CHL1  H12B 5473   5.381   2.240   9.525 -2.3458  2.7504 -1.1765
   41CHL1   C11 5474   5.470   2.418   9.634  0.3966  0.6255  0.2895
   41CHL1  H11A 5475   5.523   2.507   9.596  0.5312  0.5007  0.1846
   41CHL1  H11B 5476   5.364   2.436   9.664  0.1536  0.6914 -0.6037
   41CHL1    C9 5477   5.539   2.355   9.762 -0.2388 -0.7057  0.0915
   41CHL1    H9 5478   5.469   2.282   9.808 -0.6232  1.1668  2.7239
   41CHL1   C10 5479   5.561   2.466   9.876  0.1787  1.0391  0.7760
   41CHL1   C19 5480   5.624   2.590   9.811 -0.1016 -0.6171  0.2101
   41CHL1  H19A 5481   5.719   2.567   9.758 -0.0385  0.0611  0.0173
   41CHL1  H19B 5482   5.545   2.645   9.758  1.0775  0.8988 -0.0419
   41CHL1  H19C 5483   5.655   2.675   9.875 -0.1205 -0.6490  0.2620
   41CHL1    C1 5484   5.433   2.491   9.950  0.6190 -0.7557  0.6874
   41CHL1   H1A 5485   5.362   2.547   9.884 -0.3736 -1.4026  1.1956
   41CHL1   H1B 5486   5.385   2.395   9.975  0.2260 -0.4043  1.3111
   41CHL1    C2 5487   5.446   2.585  10.068  0.2501 -0.2783 -0.2765
   41CHL1   H2A 5488   5.348   2.613  10.113  0.9790  2.3482 -0.1504
   41CHL1   H2B 5489   5.484   2.684  10.035  0.4088 -0.4298 -0.5470
   41CHL1   C20 5490   5.582   2.110   9.243  0.1877 -0.5607  0.5698
   41CHL1   H20 5491   5.671   2.167   9.207 -1.1579  1.1167 -0.2740
   41CHL1   C21 5492   5.448   2.181   9.198  0.3192 -0.9896  0.0954
   41CHL1  H21A 5493   5.363   2.137   9.254 -1.6647 -0.7471 -2.5382
   41CHL1  H21B 5494   5.439   2.166   9.088  1.5961  1.0953 -0.3492
   41CHL1  H21C 5495   5.462   2.290   9.215 -0.3988 -0.9594  0.5015
   41CHL1   C22 5496   5.598   1.969   9.178 -0.2036  0.0082 -0.3603
   41CHL1  H22A 5497   5.704   1.942   9.195 -0.0736 -0.3753 -1.7131
   41CHL1  H22B 5498   5.545   1.895   9.241 -0.2599  0.0770 -0.3256
   41CHL1   C23 5499   5.539   1.947   9.037  0.1978  0.4301  0.0040
   41CHL1  H23A 5500   5.430   1.967   9.029  0.1215 -0.5557 -1.7627
   41CHL1  H23B 5501   5.581   2.030   8.976 -0.5210  1.6186  1.0837
   41CHL1   C24 5502   5.569   1.805   8.971 -0.1256 -0.0705  0.1201
   41CHL1  H24A 5503   5.667   1.772   9.011  0.0308 -0.6248 -0.6871
   41CHL1  H24B 5504   5.497   1.735   9.017 -1.5828  2.1344  1.4020
   41CHL1   C25 5505   5.571   1.810   8.814  0.2206 -0.4953 -0.2347
   41CHL1   H25 5506   5.656   1.878   8.791 -0.4971  0.0012 -1.4599
   41CHL1   C26 5507   5.595   1.666   8.776  0.2859  0.6188  0.0647
   41CHL1  H26A 5508   5.509   1.603   8.807 -0.5208  1.2964 -0.7663
   41CHL1  H26B 5509   5.597   1.647   8.666  0.3743 -1.7980  0.4242
   41CHL1  H26C 5510   5.685   1.629   8.831 -0.2281 -1.4969 -0.4196
   41CHL1   C27 5511   5.454   1.883   8.751 -0.2212 -0.0239  0.4522
   41CHL1  H27A 5512   5.460   1.992   8.776 -1.4767  0.2180 -0.2289
   41CHL1  H27B 5513   5.474   1.867   8.642  0.9850 -0.9998  0.7965
   41CHL1  H27C 5514   5.359   1.837   8.785  0.1367 -1.1727 -0.0487
   42CHL1    C3 5515   1.792   1.710  10.041  0.3216  0.0885  0.4443
   42CHL1    H3 5516   1.898   1.675  10.037  0.7192  1.2294  0.6885
   42CHL1    O3 5517   1.753   1.712  10.178 -0.4478  0.1099 -0.2538
   42CHL1   H3' 5518   1.724   1.802  10.196 -0.7223  0.1697 -0.9685
   42CHL1    C4 5519   1.792   1.859   9.992 -0.3233  0.2853  0.2043
   42CHL1   H4A 5520   1.693   1.908  10.004  0.4163  1.7597  0.5031
   42CHL1   H4B 5521   1.861   1.926  10.048  0.3555  0.0091 -0.2893
   42CHL1    C5 5522   1.818   1.874   9.841 -0.4100 -0.3188 -0.6861
   42CHL1    C6 5523   1.929   1.942   9.809 -0.2118  0.0747 -0.6769
   42CHL1    H6 5524   1.990   1.990   9.887  0.1218 -0.2369 -0.7417
   42CHL1    C7 5525   1.952   1.959   9.668  0.3045 -0.5604 -0.1158
   42CHL1   H7A 5526   1.991   2.063   9.661  0.5688 -0.4177  2.5310
   42CHL1   H7B 5527   2.034   1.892   9.633 -0.7463 -1.7509 -0.3867
   42CHL1    C8 5528   1.839   1.931   9.567  0.2106 -0.0971 -0.1507
   42CHL1    H8 5529   1.765   2.013   9.571 -1.2578 -1.2714 -1.6320
   42CHL1   C14 5530   1.894   1.933   9.432 -0.1870 -0.5823  0.9098
   42CHL1   H14 5531   1.970   1.853   9.428  0.0769 -0.3677  1.6342
   42CHL1   C15 5532   1.978   2.048   9.380 -0.4584 -0.6662  0.6978
   42CHL1  H15A 5533   1.920   2.139   9.407 -1.0304 -0.5302 -0.9080
   42CHL1  H15B 5534   2.078   2.058   9.427 -1.0248  0.4531  1.7158
   42CHL1   C16 5535   1.968   2.029   9.227  0.0116 -0.2354  0.1632
   42CHL1  H16A 5536   1.908   2.113   9.187  0.4237 -0.5557 -1.1894
   42CHL1  H16B 5537   2.067   2.030   9.177  0.9295 -2.6528  1.7554
   42CHL1   C17 5538   1.877   1.912   9.193  0.1308  0.3947  0.2292
   42CHL1   H17 5539   1.944   1.823   9.194  1.7443  1.5297  2.0016
   42CHL1   C13 5540   1.784   1.903   9.320  0.2913  0.5711 -0.0089
   42CHL1   C18 5541   1.669   2.004   9.316 -0.2123  0.6457  0.7980
   42CHL1  H18A 5542   1.593   1.982   9.238  1.5444  2.6257 -1.6513
   42CHL1  H18B 5543   1.621   2.024   9.415 -2.6493 -1.7214  0.2193
   42CHL1  H18C 5544   1.707   2.101   9.278  2.4522  0.2156  2.1545
   42CHL1   C12 5545   1.731   1.762   9.350  0.8203  0.1407  0.1197
   42CHL1  H12A 5546   1.656   1.725   9.276  0.7248  1.9886 -0.7382
   42CHL1  H12B 5547   1.811   1.688   9.330 -0.2545 -0.6136 -1.7150
   42CHL1   C11 5548   1.684   1.739   9.494 -0.1972 -0.2196 -0.4492
   42CHL1  H11A 5549   1.589   1.795   9.491  0.6392  1.2140 -1.5095
   42CHL1  H11B 5550   1.659   1.636   9.529  1.3171 -0.3089  0.4838
   42CHL1    C9 5551   1.781   1.791   9.604 -0.8685 -0.6090 -0.4096
   42CHL1    H9 5552   1.869   1.724   9.592  0.0512  0.7275 -1.5632
   42CHL1   C10 5553   1.731   1.790   9.749 -0.3306  0.0996 -0.1783
   42CHL1   C19 5554   1.592   1.857   9.745  0.4152  0.7287  0.3488
   42CHL1  H19A 5555   1.577   1.948   9.683 -2.2806 -0.3670 -0.7659
   42CHL1  H19B 5556   1.508   1.790   9.715 -0.4828  1.5111  1.0483
   42CHL1  H19C 5557   1.570   1.896   9.847  0.4976  0.0313  0.6441
   42CHL1    C1 5558   1.718   1.644   9.803  0.3010 -0.1205 -0.2184
   42CHL1   H1A 5559   1.630   1.587   9.763 -1.8042  2.5572  0.3075
   42CHL1   H1B 5560   1.807   1.582   9.778  1.3293  1.3432 -0.2854
   42CHL1    C2 5561   1.687   1.631   9.954 -0.0141 -0.0491  0.4935
   42CHL1   H2A 5562   1.678   1.524   9.983  1.8126 -0.5002 -0.4176
   42CHL1   H2B 5563   1.597   1.692   9.973  0.6269  0.7510  1.0668
   42CHL1   C20 5564   1.816   1.919   9.049 -0.7106  0.3114  0.1988
   42CHL1   H20 5565   1.761   2.015   9.041  0.1449  0.6562 -2.8053
   42CHL1   C21 5566   1.715   1.810   9.018 -0.3157  0.8445 -1.1202
   42CHL1  H21A 5567   1.644   1.776   9.097  2.2961  0.6646  1.3098
   42CHL1  H21B 5568   1.765   1.718   8.982  0.1959  0.9181 -0.6091
   42CHL1  H21C 5569   1.650   1.841   8.933 -0.6220  0.1623 -1.1408
   42CHL1   C22 5570   1.910   1.933   8.932 -0.1407  0.6752 -0.0587
   42CHL1  H22A 5571   1.854   1.923   8.837  1.4817 -0.2784 -0.9666
   42CHL1  H22B 5572   1.955   2.034   8.923  1.1025  0.1371 -0.0128
   42CHL1   C23 5573   2.025   1.829   8.924  0.3318 -1.0080  0.5514
   42CHL1  H23A 5574   2.067   1.819   9.027 -0.8603  0.0576  1.1796
   42CHL1  H23B 5575   2.000   1.722   8.904  1.0722 -1.2180  0.6928
   42CHL1   C24 5576   2.139   1.874   8.829 -0.2629 -0.5451 -0.3707
   42CHL1  H24A 5577   2.168   1.975   8.865  1.0273 -0.3072 -1.9657
   42CHL1  H24B 5578   2.219   1.797   8.834 -0.1122 -0.3773 -0.2003
   42CHL1   C25 5579   2.097   1.891   8.678 -0.0544 -0.0859 -0.2432
   42CHL1   H25 5580   2.016   1.966   8.663  1.7398  1.7485 -1.3277
   42CHL1   C26 5581   2.216   1.945   8.600 -0.2501 -0.0799 -0.4837
   42CHL1  H26A 5582   2.311   1.887   8.605  1.8213  3.0096 -1.3435
   42CHL1  H26B 5583   2.190   1.966   8.494 -0.8626  0.8824 -0.1575
   42CHL1  H26C 5584   2.243   2.047   8.633 -1.0650  0.0670 -0.2455
   42CHL1   C27 5585   2.045   1.766   8.602  0.3947 -0.0228  0.9001
   42CHL1  H27A 5586   2.022   1.799   8.498  1.0031  2.8165  1.5710
   42CHL1  H27B 5587   2.107   1.675   8.613 -1.9052 -1.7888  0.1790
   42CHL1  H27C 5588   1.948   1.748   8.653 -0.4760 -1.9282 -1.2730
   43CHL1    C3 5589   4.695   2.947   9.930  0.1469 -0.2087  0.2444
   43CHL1    H3 5590   4.585   2.959   9.918 -0.0818 -1.4238  0.9105
   43CHL1    O3 5591   4.732   2.996  10.056 -0.1422  0.1712 -0.4250
   43CHL1   H3' 5592   4.665   3.062  10.076  0.5245  0.2597  1.7009
   43CHL1    C4 5593   4.742   2.796   9.931  1.3252  0.3449  0.4449
   43CHL1   H4A 5594   4.847   2.769   9.953  0.7748 -1.5074  0.9491
   43CHL1   H4B 5595   4.688   2.746  10.014  0.4585  0.6405  0.0748
   43CHL1    C5 5596   4.696   2.736   9.798  0.1896  0.1161  0.3096
   43CHL1    C6 5597   4.612   2.625   9.791 -0.3938 -0.9692 -0.4059
   43CHL1    H6 5598   4.568   2.585   9.884  1.2578 -2.4030 -0.1790
   43CHL1    C7 5599   4.568   2.560   9.672  0.0335  0.5438 -0.3666
   43CHL1   H7A 5600   4.601   2.455   9.683 -1.2024  0.2231  0.4176
   43CHL1   H7B 5601   4.457   2.569   9.669 -0.0245 -0.2602 -0.6560
   43CHL1    C8 5602   4.642   2.616   9.548 -0.6664 -0.0347 -0.6099
   43CHL1    H8 5603   4.738   2.561   9.543 -1.1121 -0.8103 -5.7561
   43CHL1   C14 5604   4.570   2.575   9.422  0.1863  0.1471 -0.9420
   43CHL1   H14 5605   4.474   2.629   9.436  0.1806  0.0909 -0.7670
   43CHL1   C15 5606   4.523   2.432   9.415  0.0276 -0.2684 -0.4798
   43CHL1  H15A 5607   4.610   2.378   9.457  0.8532 -0.9358 -2.8911
   43CHL1  H15B 5608   4.445   2.397   9.487  0.2404  0.3003  0.0381
   43CHL1   C16 5609   4.494   2.415   9.263 -0.1860 -0.3728  0.6824
   43CHL1  H16A 5610   4.555   2.330   9.227 -0.5933 -1.1907  1.8650
   43CHL1  H16B 5611   4.387   2.388   9.250 -0.3599 -0.6962  2.5364
   43CHL1   C17 5612   4.528   2.550   9.192  0.2517 -0.0763  0.6434
   43CHL1   H17 5613   4.435   2.609   9.201  0.1985  0.0081 -0.3457
   43CHL1   C13 5614   4.636   2.618   9.293 -0.6466  0.3889 -0.2248
   43CHL1   C18 5615   4.780   2.546   9.282  1.0381  0.3021 -0.3773
   43CHL1  H18A 5616   4.839   2.558   9.375 -0.0088  2.3879  0.0764
   43CHL1  H18B 5617   4.763   2.437   9.269 -1.9418  0.6995 -0.6240
   43CHL1  H18C 5618   4.834   2.593   9.197  2.2953  1.3606  0.9717
   43CHL1   C12 5619   4.647   2.768   9.298 -0.1306 -0.3741  0.9363
   43CHL1  H12A 5620   4.695   2.808   9.207 -2.7341 -0.5993 -0.6280
   43CHL1  H12B 5621   4.542   2.805   9.294  0.0291 -0.0186 -0.2079
   43CHL1   C11 5622   4.720   2.828   9.409  0.3808  0.2083 -0.3254
   43CHL1  H11A 5623   4.827   2.805   9.388  0.9148 -0.0935  2.3436
   43CHL1  H11B 5624   4.695   2.936   9.401 -0.7097 -0.1751 -3.3813
   43CHL1    C9 5625   4.666   2.765   9.545 -0.3344 -0.3173 -0.2990
   43CHL1    H9 5626   4.561   2.802   9.543 -0.2015  0.0472 -1.1986
   43CHL1   C10 5627   4.740   2.819   9.673 -0.0831  0.6540 -0.1946
   43CHL1   C19 5628   4.886   2.787   9.658 -0.0296  0.2327  0.0495
   43CHL1  H19A 5629   4.888   2.678   9.638 -0.9794  0.1633  0.2693
   43CHL1  H19B 5630   4.937   2.843   9.577  0.0909  0.6132  0.3831
   43CHL1  H19C 5631   4.962   2.789   9.739 -1.8493  1.1632  1.8253
   43CHL1    C1 5632   4.725   2.973   9.688  0.6403 -0.2106  0.1481
   43CHL1   H1A 5633   4.796   3.016   9.614  0.8675 -0.1743  0.3884
   43CHL1   H1B 5634   4.622   2.993   9.653  0.4324  0.5435  1.1631
   43CHL1    C2 5635   4.753   3.029   9.822 -0.1706 -0.3689 -0.0839
   43CHL1   H2A 5636   4.700   3.126   9.831 -0.1349 -0.3673  0.1186
   43CHL1   H2B 5637   4.861   3.047   9.844 -0.5001  2.3912 -0.4007
   43CHL1   C20 5638   4.563   2.538   9.041  0.4672 -0.1981  0.8521
   43CHL1   H20 5639   4.672   2.516   9.047  0.3720 -0.3762  2.7494
   43CHL1   C21 5640   4.553   2.685   8.978  0.1271 -0.5138 -0.0148
   43CHL1  H21A 5641   4.607   2.683   8.881  0.3828 -0.4847  0.1266
   43CHL1  H21B 5642   4.609   2.760   9.038  0.7715 -0.4772 -0.6442
   43CHL1  H21C 5643   4.446   2.713   8.981  0.6645  1.6896  0.2270
   43CHL1   C22 5644   4.496   2.421   8.956 -0.5106 -0.5496 -0.3455
   43CHL1  H22A 5645   4.536   2.333   9.010  2.5650  1.5196  1.0232
   43CHL1  H22B 5646   4.388   2.418   8.980 -0.9941  3.5170 -1.2141
   43CHL1   C23 5647   4.521   2.419   8.809 -0.2935 -0.4833  0.9989
   43CHL1  H23A 5648   4.483   2.512   8.761  1.3031  0.0067  0.6069
   43CHL1  H23B 5649   4.632   2.410   8.808 -0.3503 -1.1559  0.1894
   43CHL1   C24 5650   4.449   2.292   8.755 -0.0249 -0.3213 -0.1805
   43CHL1  H24A 5651   4.490   2.206   8.812  2.7601 -1.1101 -3.1049
   43CHL1  H24B 5652   4.343   2.316   8.777 -0.2339  0.4374 -1.8749
   43CHL1   C25 5653   4.459   2.264   8.609  0.2018 -0.3574 -1.0049
   43CHL1   H25 5654   4.427   2.357   8.557  0.3885  1.3910  1.8197
   43CHL1   C26 5655   4.607   2.230   8.564  0.7561  0.0167  0.0674
   43CHL1  H26A 5656   4.679   2.314   8.563  3.5385 -2.2033 -0.0362
   43CHL1  H26B 5657   4.641   2.155   8.639 -1.5754  2.7380  4.2614
   43CHL1  H26C 5658   4.592   2.187   8.463  1.8780 -1.3558  0.4498
   43CHL1   C27 5659   4.370   2.148   8.562  0.4517  0.1326 -0.5516
   43CHL1  H27A 5660   4.337   2.167   8.458  1.1083  1.2302 -0.5694
   43CHL1  H27B 5661   4.414   2.047   8.580 -0.7113 -0.0958  1.3165
   43CHL1  H27C 5662   4.278   2.160   8.623  1.0680  1.5259  0.1705
   44CHL1    C3 5663   5.293   2.088  10.374  0.3345 -0.0115  0.9559
   44CHL1    H3 5664   5.190   2.052  10.390  0.4607  0.3112  2.6717
   44CHL1    O3 5665   5.351   2.134  10.495 -0.2351  0.5255 -0.3683
   44CHL1   H3' 5666   5.272   2.163  10.540 -0.9319  1.4078 -2.0871
   44CHL1    C4 5667   5.369   1.964  10.316  0.1095 -0.0966 -0.5007
   44CHL1   H4A 5668   5.474   1.998  10.314 -0.0566  0.3892 -1.2860
   44CHL1   H4B 5669   5.379   1.882  10.391 -1.1995  0.1406 -0.0412
   44CHL1    C5 5670   5.324   1.909  10.182  0.4226  0.3760  0.2687
   44CHL1    C6 5671   5.280   1.783  10.167 -0.6818 -0.2427  0.1398
   44CHL1    H6 5672   5.274   1.711  10.250 -0.3732  0.3148  0.6610
   44CHL1    C7 5673   5.241   1.731  10.039  0.4876 -0.7948  0.2038
   44CHL1   H7A 5674   5.270   1.625  10.018  2.3975 -0.3565  0.4597
   44CHL1   H7B 5675   5.130   1.736  10.030  0.3214 -1.3841  1.6546
   44CHL1    C8 5676   5.276   1.827   9.916  0.3987  0.1891 -0.2167
   44CHL1    H8 5677   5.384   1.808   9.903  0.2081 -0.0793 -1.5754
   44CHL1   C14 5678   5.210   1.779   9.788  0.0117  0.9428  0.4675
   44CHL1   H14 5679   5.100   1.790   9.800 -0.4792 -0.3011 -2.1783
   44CHL1   C15 5680   5.227   1.627   9.757  1.0135  0.3041  0.6285
   44CHL1  H15A 5681   5.332   1.596   9.779  1.0658  0.2907  0.3644
   44CHL1  H15B 5682   5.159   1.559   9.812  0.4746 -0.7765 -1.2741
   44CHL1   C16 5683   5.212   1.623   9.603 -0.5119  0.2897 -0.1120
   44CHL1  H16A 5684   5.313   1.591   9.570  1.3244  3.5350  1.7528
   44CHL1  H16B 5685   5.130   1.552   9.580  0.9990 -1.5708  0.0144
   44CHL1   C17 5686   5.185   1.771   9.557  0.0528 -0.5524  0.2081
   44CHL1   H17 5687   5.076   1.786   9.545  0.2571  0.1247 -1.0386
   44CHL1   C13 5688   5.258   1.858   9.667 -0.2450  0.4324 -0.7806
   44CHL1   C18 5689   5.416   1.847   9.645 -0.1667 -0.5965 -0.6747
   44CHL1  H18A 5690   5.472   1.902   9.724 -0.0355  0.5887 -1.5685
   44CHL1  H18B 5691   5.448   1.742   9.632  0.9090 -0.0589 -2.6639
   44CHL1  H18C 5692   5.439   1.903   9.552  0.0896 -1.2831 -1.0340
   44CHL1   C12 5693   5.212   2.001   9.691  0.5059 -1.0548 -0.0994
   44CHL1  H12A 5694   5.245   2.071   9.612  0.1168  0.8082  1.3339
   44CHL1  H12B 5695   5.101   1.995   9.687  0.2833  1.7304  0.1788
   44CHL1   C11 5696   5.269   2.067   9.826  1.1194 -0.4856  0.5902
   44CHL1  H11A 5697   5.379   2.074   9.814  1.4840 -1.7139  2.6987
   44CHL1  H11B 5698   5.204   2.155   9.842 -2.5507 -2.3449 -2.3125
   44CHL1    C9 5699   5.243   1.971   9.946 -0.1555 -0.3530 -0.2965
   44CHL1    H9 5700   5.137   1.980   9.978  0.1264 -2.0371  1.2712
   44CHL1   C10 5701   5.318   2.020  10.079 -0.6630 -0.5838 -0.0728
   44CHL1   C19 5702   5.469   2.061  10.057  0.0489 -0.4157  0.9475
   44CHL1  H19A 5703   5.513   1.964  10.025 -1.0046 -0.3621 -0.7891
   44CHL1  H19B 5704   5.476   2.132   9.972  0.7032 -0.0153  1.3365
   44CHL1  H19C 5705   5.518   2.114  10.140  2.2409 -0.3728 -0.2984
   44CHL1    C1 5706   5.237   2.144  10.134 -0.3110 -0.3444 -0.0246
   44CHL1   H1A 5707   5.255   2.234  10.072 -0.3093  1.9682  3.0651
   44CHL1   H1B 5708   5.129   2.120  10.143 -1.1974  2.1330 -2.7898
   44CHL1    C2 5709   5.284   2.201  10.269 -0.4823  0.6015  0.1251
   44CHL1   H2A 5710   5.207   2.274  10.302 -0.7642 -0.7740  2.8067
   44CHL1   H2B 5711   5.390   2.230  10.251 -0.0306 -2.0920 -2.1936
   44CHL1   C20 5712   5.228   1.791   9.409  0.1421 -0.5073 -0.9562
   44CHL1   H20 5713   5.339   1.794   9.400  0.2597  1.2206  0.4497
   44CHL1   C21 5714   5.178   1.923   9.358 -0.3812 -0.2437 -0.3565
   44CHL1  H21A 5715   5.069   1.941   9.350 -0.2125  3.3496  2.7828
   44CHL1  H21B 5716   5.217   1.938   9.255 -0.7735 -1.0937 -0.6337
   44CHL1  H21C 5717   5.236   2.008   9.401  1.5704 -1.4463 -0.4883
   44CHL1   C22 5718   5.180   1.679   9.319  1.2589 -0.8485 -0.1721
   44CHL1  H22A 5719   5.209   1.580   9.361  0.5306 -0.9941  0.0103
   44CHL1  H22B 5720   5.069   1.689   9.321  1.3350  0.7150 -1.8732
   44CHL1   C23 5721   5.227   1.677   9.178 -0.2488  0.7477 -0.2301
   44CHL1  H23A 5722   5.202   1.770   9.121  3.4347  1.5381 -0.8825
   44CHL1  H23B 5723   5.338   1.672   9.177 -0.3079 -2.2240  0.7919
   44CHL1   C24 5724   5.172   1.547   9.116 -0.3948 -0.3479  0.3910
   44CHL1  H24A 5725   5.225   1.463   9.167  1.4729  1.1209  0.9743
   44CHL1  H24B 5726   5.063   1.531   9.134 -0.2214 -0.4722  1.3772
   44CHL1   C25 5727   5.199   1.548   8.968  0.0685 -0.2348 -0.3236
   44CHL1   H25 5728   5.286   1.613   8.946  0.1824 -0.1210  0.4309
   44CHL1   C26 5729   5.247   1.411   8.920 -0.6598 -0.1521  0.9809
   44CHL1  H26A 5730   5.160   1.342   8.919 -0.3512 -0.5447  1.0142
   44CHL1  H26B 5731   5.292   1.420   8.819 -0.5825 -1.9829  0.8150
   44CHL1  H26C 5732   5.329   1.366   8.981  0.3285  1.6695  1.0596
   44CHL1   C27 5733   5.086   1.603   8.877 -0.3016 -0.8311 -0.5644
   44CHL1  H27A 5734   5.113   1.599   8.770  3.6933  1.0992  0.1796
   44CHL1  H27B 5735   4.991   1.550   8.899 -0.9487  0.2276 -0.7446
   44CHL1  H27C 5736   5.067   1.708   8.908 -3.7689 -1.6464  0.5926
   45CHL1    C3 5737   1.398   1.040   9.989 -0.3604 -0.1757  0.7838
   45CHL1    H3 5738   1.497   1.087  10.010 -0.2121 -0.3867  0.5572
   45CHL1    O3 5739   1.382   0.942  10.092  0.0442  0.0093 -0.1246
   45CHL1   H3' 5740   1.404   0.984  10.176 -0.1997 -1.3733  0.6525
   45CHL1    C4 5741   1.285   1.141   9.987 -0.2233  1.2356 -0.2017
   45CHL1   H4A 5742   1.190   1.097   9.948  0.9190 -0.0995 -1.5963
   45CHL1   H4B 5743   1.269   1.173  10.092  0.2074  0.5927  0.0643
   45CHL1    C5 5744   1.319   1.246   9.882 -0.3795 -0.3807  0.1456
   45CHL1    C6 5745   1.325   1.377   9.910 -0.6049  0.2100  0.2930
   45CHL1    H6 5746   1.301   1.403  10.014 -0.1813 -2.8200  1.2514
   45CHL1    C7 5747   1.353   1.490   9.805 -0.2611 -0.4565 -0.0290
   45CHL1   H7A 5748   1.264   1.556   9.812  0.8593  0.9593  1.5385
   45CHL1   H7B 5749   1.428   1.563   9.843  2.1636 -3.0077  0.4375
   45CHL1    C8 5750   1.387   1.445   9.660  0.4869 -0.2472  0.2908
   45CHL1    H8 5751   1.479   1.501   9.631  0.1477  0.1864  0.0581
   45CHL1   C14 5752   1.281   1.490   9.556  0.5332 -0.4840 -0.4963
   45CHL1   H14 5753   1.185   1.438   9.580 -0.0467  1.0258  0.5847
   45CHL1   C15 5754   1.250   1.644   9.550 -0.8349  0.2649  0.0291
   45CHL1  H15A 5755   1.154   1.673   9.597 -0.2534  2.2495  0.1086
   45CHL1  H15B 5756   1.332   1.694   9.606 -1.1328 -0.3045  1.0091
   45CHL1   C16 5757   1.259   1.689   9.401  0.8063  0.4277 -0.1220
   45CHL1  H16A 5758   1.159   1.669   9.355  0.8389  0.9227 -0.4157
   45CHL1  H16B 5759   1.286   1.794   9.379 -0.2051  1.2080  2.0736
   45CHL1   C17 5760   1.347   1.582   9.327 -0.4116  0.1114 -0.0991
   45CHL1   H17 5761   1.447   1.624   9.352 -0.4602  0.3037 -0.2307
   45CHL1   C13 5762   1.316   1.453   9.408  0.1575  0.8727 -0.4530
   45CHL1   C18 5763   1.204   1.367   9.347  0.3851 -0.0028 -0.0525
   45CHL1  H18A 5764   1.182   1.285   9.418 -0.2288 -1.7147 -2.1156
   45CHL1  H18B 5765   1.110   1.425   9.357 -0.6524 -1.9095  2.0594
   45CHL1  H18C 5766   1.223   1.321   9.248  0.9944  1.2237 -0.5342
   45CHL1   C12 5767   1.438   1.354   9.401  0.2859  0.0078 -0.3909
   45CHL1  H12A 5768   1.442   1.300   9.304 -0.0165 -0.9172  0.1085
   45CHL1  H12B 5769   1.534   1.409   9.411  0.3560 -0.2521  0.4396
   45CHL1   C11 5770   1.443   1.245   9.507  0.2846  0.4846 -0.5680
   45CHL1  H11A 5771   1.378   1.160   9.479 -1.7013  1.9113 -0.5464
   45CHL1  H11B 5772   1.547   1.207   9.504  0.0206 -0.7120  2.1409
   45CHL1    C9 5773   1.424   1.300   9.653 -0.8058  0.1188 -0.2769
   45CHL1    H9 5774   1.526   1.308   9.696 -0.4208  0.5051 -1.2276
   45CHL1   C10 5775   1.353   1.198   9.738  0.2624  0.4103 -0.5078
   45CHL1   C19 5776   1.209   1.169   9.687  0.7687  0.2627  0.0694
   45CHL1  H19A 5777   1.155   1.086   9.737 -0.9349  1.6121  0.6085
   45CHL1  H19B 5778   1.138   1.253   9.705  0.3363 -0.2921  1.0579
   45CHL1  H19C 5779   1.213   1.142   9.580  2.1692 -0.7828  0.3630
   45CHL1    C1 5780   1.436   1.071   9.740  0.6364 -0.7602  0.8564
   45CHL1   H1A 5781   1.429   1.016   9.643  0.1457  0.1699  0.3520
   45CHL1   H1B 5782   1.544   1.096   9.745  0.8171 -0.8298 -1.4548
   45CHL1    C2 5783   1.403   0.966   9.854  0.3399  0.1200 -0.8190
   45CHL1   H2A 5784   1.476   0.882   9.864 -1.5632 -1.6795 -1.4731
   45CHL1   H2B 5785   1.302   0.923   9.840 -0.7322  1.8049  1.2551
   45CHL1   C20 5786   1.327   1.571   9.175 -0.2018 -0.8623 -0.1884
   45CHL1   H20 5787   1.235   1.515   9.147 -2.1384  1.7010  0.6970
   45CHL1   C21 5788   1.455   1.500   9.114 -0.4490  0.3822  0.2329
   45CHL1  H21A 5789   1.441   1.495   9.004 -0.0701 -0.1247  0.2070
   45CHL1  H21B 5790   1.466   1.394   9.146 -0.8068 -0.4553 -2.2047
   45CHL1  H21C 5791   1.545   1.562   9.135 -2.3109  3.2400  0.3437
   45CHL1   C22 5792   1.303   1.708   9.109  0.2552 -0.0224 -0.4424
   45CHL1  H22A 5793   1.209   1.746   9.155  2.0920 -1.3807  5.1800
   45CHL1  H22B 5794   1.375   1.788   9.135  0.2183 -0.2285  0.2885
   45CHL1   C23 5795   1.287   1.707   8.955 -0.2296  0.5242 -0.1328
   45CHL1  H23A 5796   1.317   1.812   8.935 -3.1315  1.4590  0.0150
   45CHL1  H23B 5797   1.361   1.642   8.902 -0.7678 -0.2265  0.0174
   45CHL1   C24 5798   1.144   1.661   8.912 -0.4400  0.8814  1.0041
   45CHL1  H24A 5799   1.124   1.564   8.962 -1.4113  0.7780  0.4325
   45CHL1  H24B 5800   1.060   1.725   8.947 -2.3711 -0.1384 -1.4012
   45CHL1   C25 5801   1.140   1.646   8.762 -0.0885 -0.7928 -0.0024
   45CHL1   H25 5802   1.218   1.572   8.733 -1.3234 -1.6293 -1.3640
   45CHL1   C26 5803   0.995   1.587   8.734 -0.0923  0.5166 -0.7563
   45CHL1  H26A 5804   0.994   1.479   8.761 -0.9928  0.1079 -2.3164
   45CHL1  H26B 5805   0.910   1.632   8.791  1.0339  1.6734  0.0780
   45CHL1  H26C 5806   0.980   1.579   8.624  1.1068 -1.0414 -0.8410
   45CHL1   C27 5807   1.149   1.780   8.692 -0.0468 -0.6579 -0.1647
   45CHL1  H27A 5808   1.234   1.838   8.734 -0.3462  0.5349 -1.1500
   45CHL1  H27B 5809   1.176   1.762   8.586  0.5341  1.5381 -0.4512
   45CHL1  H27C 5810   1.049   1.829   8.693 -1.2640 -3.0038 -1.1056
   46CHL1    C3 5811   6.088   6.457  10.198  0.3388  0.4973  0.5754
   46CHL1    H3 5812   6.134   6.356  10.202 -1.2771 -0.3097 -0.5557
   46CHL1    O3 5813   6.063   6.501  10.334 -0.0052  0.2235  0.4615
   46CHL1   H3' 5814   6.068   6.410  10.363 -0.4967 -0.8049 -2.3259
   46CHL1    C4 5815   6.181   6.556  10.120  0.7437  0.5161  0.0654
   46CHL1   H4A 5816   6.138   6.657  10.134  0.2383  0.1700  1.1803
   46CHL1   H4B 5817   6.274   6.552  10.180  0.1062  0.0588  1.0559
   46CHL1    C5 5818   6.195   6.516   9.973  0.0158 -0.6406  0.8080
   46CHL1    C6 5819   6.315   6.492   9.922  0.0247 -0.1230  0.8180
   46CHL1    H6 5820   6.407   6.509   9.980  0.0498  0.6680  0.5583
   46CHL1    C7 5821   6.336   6.454   9.778 -0.5178  0.9684  0.0281
   46CHL1   H7A 5822   6.434   6.492   9.741 -1.3447  0.8028 -2.5499
   46CHL1   H7B 5823   6.350   6.343   9.782 -3.0746  0.6106  0.6578
   46CHL1    C8 5824   6.223   6.479   9.684 -0.0311 -0.4085  0.3962
   46CHL1    H8 5825   6.226   6.588   9.663  0.2091 -0.2513  1.1815
   46CHL1   C14 5826   6.232   6.402   9.550  0.1771 -0.0277 -1.1835
   46CHL1   H14 5827   6.226   6.297   9.586  1.4657  0.3759  0.3275
   46CHL1   C15 5828   6.355   6.420   9.453  0.4143  0.2098  0.2225
   46CHL1  H15A 5829   6.361   6.527   9.425  2.6907 -0.3602 -1.7872
   46CHL1  H15B 5830   6.450   6.382   9.497  0.7238 -1.2602 -1.5900
   46CHL1   C16 5831   6.314   6.347   9.330  0.2807  0.7976 -0.0510
   46CHL1  H16A 5832   6.345   6.415   9.248 -0.1262  1.1878  0.1146
   46CHL1  H16B 5833   6.360   6.247   9.314 -0.8633  0.4367 -1.2455
   46CHL1   C17 5834   6.159   6.325   9.338  0.7426  0.2099 -0.4722
   46CHL1   H17 5835   6.141   6.225   9.381 -2.5504  0.7694 -0.2817
   46CHL1   C13 5836   6.113   6.413   9.458  0.0528  0.2198 -0.0320
   46CHL1   C18 5837   6.087   6.561   9.412  0.0900 -0.0725 -0.0567
   46CHL1  H18A 5838   6.177   6.589   9.353 -1.1792  0.0645 -1.9931
   46CHL1  H18B 5839   5.997   6.567   9.348 -1.4480 -0.5073  1.9419
   46CHL1  H18C 5840   6.075   6.626   9.501  1.0552 -0.1732  0.1624
   46CHL1   C12 5841   5.986   6.373   9.531  0.6800  0.4367  0.7894
   46CHL1  H12A 5842   5.897   6.387   9.465  0.8493  0.7775  0.6295
   46CHL1  H12B 5843   5.995   6.265   9.555  2.1312  0.5888  1.0092
   46CHL1   C11 5844   5.966   6.453   9.658  0.0885 -0.7826 -0.9744
   46CHL1  H11A 5845   5.955   6.560   9.633  0.6775 -0.2924  0.7214
   46CHL1  H11B 5846   5.874   6.428   9.716  1.6339  0.3190  2.1598
   46CHL1    C9 5847   6.082   6.440   9.757  0.4803 -0.0462  0.6837
   46CHL1    H9 5848   6.092   6.330   9.770 -0.1648 -0.6161 -2.5795
   46CHL1   C10 5849   6.065   6.501   9.895  0.0226 -0.0498 -0.0742
   46CHL1   C19 5850   6.012   6.642   9.880 -0.3342  0.0829 -0.2738
   46CHL1  H19A 5851   5.990   6.682   9.981  1.8987  0.3248  0.1695
   46CHL1  H19B 5852   6.090   6.704   9.831  1.1114 -1.5592 -0.1750
   46CHL1  H19C 5853   5.912   6.640   9.832 -1.2679 -0.8271  1.5936
   46CHL1    C1 5854   5.966   6.410   9.980 -0.4487 -0.1735 -0.6498
   46CHL1   H1A 5855   5.864   6.408   9.936 -0.2559 -1.6950 -1.0726
   46CHL1   H1B 5856   6.002   6.306   9.967 -1.4293 -0.3242 -2.4910
   46CHL1    C2 5857   5.954   6.445  10.130  0.7247 -0.1573  0.9213
   46CHL1   H2A 5858   5.887   6.373  10.182  0.7555 -1.5775 -0.9069
   46CHL1   H2B 5859   5.898   6.541  10.135  2.5864  0.9296  2.2811
   46CHL1   C20 5860   6.080   6.329   9.206  0.2226  0.0659  0.3650
   46CHL1   H20 5861   6.073   6.438   9.189  1.9851  0.4446  1.7040
   46CHL1   C21 5862   5.947   6.250   9.217 -0.5021  0.4020 -0.2971
   46CHL1  H21A 5863   5.948   6.139   9.222 -1.2086  0.4019 -0.1695
   46CHL1  H21B 5864   5.888   6.275   9.127  1.4797  2.7106 -1.1026
   46CHL1  H21C 5865   5.877   6.299   9.288 -1.2932 -0.0675 -0.7515
   46CHL1   C22 5866   6.152   6.271   9.085 -0.0540  0.3592 -0.3510
   46CHL1  H22A 5867   6.094   6.286   8.991 -1.7431 -0.8719  0.4353
   46CHL1  H22B 5868   6.247   6.327   9.070  0.1768  0.1010  0.1213
   46CHL1   C23 5869   6.197   6.121   9.103  0.0646 -0.6773  0.0153
   46CHL1  H23A 5870   6.286   6.133   9.169 -0.1924  0.5570  0.1593
   46CHL1  H23B 5871   6.115   6.068   9.157  0.6011  0.1706  1.7139
   46CHL1   C24 5872   6.229   6.046   8.973 -0.1804  0.1865 -0.1049
   46CHL1  H24A 5873   6.130   6.028   8.925  0.1261  0.5532 -0.8927
   46CHL1  H24B 5874   6.286   6.110   8.902  2.3749 -2.2912 -0.4558
   46CHL1   C25 5875   6.302   5.916   8.991  0.5749 -0.8706 -0.4324
   46CHL1   H25 5876   6.242   5.846   9.053  1.5337 -1.3224  0.0072
   46CHL1   C26 5877   6.337   5.858   8.848 -0.2307  0.3167  0.1028
   46CHL1  H26A 5878   6.252   5.815   8.792  0.5560 -0.7747 -0.2781
   46CHL1  H26B 5879   6.386   5.941   8.793 -0.9764  0.2973 -0.5975
   46CHL1  H26C 5880   6.423   5.788   8.849 -0.4045  0.0629 -1.1777
   46CHL1   C27 5881   6.434   5.935   9.072  0.5532 -1.1806  0.4252
   46CHL1  H27A 5882   6.483   5.836   9.086 -1.4321 -2.5510 -1.5450
   46CHL1  H27B 5883   6.502   5.987   9.002 -0.6039 -1.2847 -0.8122
   46CHL1  H27C 5884   6.408   5.978   9.171  0.5670 -0.9935  0.3464
   47CHL1    C3 5885   3.613   3.525  10.106 -0.1676  0.7811  1.0340
   47CHL1    H3 5886   3.572   3.422  10.096 -2.0062  1.7026 -3.0492
   47CHL1    O3 5887   3.608   3.564  10.243 -0.5385  0.4388  0.1154
   47CHL1   H3' 5888   3.599   3.659  10.250 -0.4357  0.5247 -0.7791
   47CHL1    C4 5889   3.757   3.528  10.052  0.5371 -0.4112 -0.3316
   47CHL1   H4A 5890   3.779   3.637  10.058  0.2364 -0.3906  0.5194
   47CHL1   H4B 5891   3.824   3.475  10.122  0.0848 -1.1402 -0.4334
   47CHL1    C5 5892   3.761   3.476   9.911 -0.4776 -0.0181  0.4714
   47CHL1    C6 5893   3.835   3.366   9.883  0.2447  0.1673  0.7135
   47CHL1    H6 5894   3.878   3.309   9.966  1.1827  0.3286  0.3481
   47CHL1    C7 5895   3.852   3.306   9.743 -0.9115  0.0004 -0.4113
   47CHL1   H7A 5896   3.959   3.276   9.733 -0.2867  2.1903 -0.7781
   47CHL1   H7B 5897   3.785   3.218   9.729  0.2809 -1.1868  0.9423
   47CHL1    C8 5898   3.815   3.414   9.635  0.3039 -0.0048 -0.3531
   47CHL1    H8 5899   3.893   3.494   9.629 -0.3344  0.6092 -0.6019
   47CHL1   C14 5900   3.794   3.354   9.494  0.3955 -0.0953 -0.0284
   47CHL1   H14 5901   3.713   3.280   9.514  0.6724 -0.7114 -1.0791
   47CHL1   C15 5902   3.906   3.260   9.439 -0.0123  0.2992 -1.0357
   47CHL1  H15A 5903   4.012   3.295   9.443 -0.1165  0.7927 -2.2574
   47CHL1  H15B 5904   3.912   3.162   9.491  1.1685  0.3035 -1.1354
   47CHL1   C16 5905   3.861   3.246   9.296 -0.3156  0.2328  0.5299
   47CHL1  H16A 5906   3.949   3.278   9.236 -0.1765 -1.6478 -0.3401
   47CHL1  H16B 5907   3.828   3.141   9.283 -0.1938  0.0749  1.4173
   47CHL1   C17 5908   3.743   3.346   9.264  0.2169  0.2899  0.0764
   47CHL1   H17 5909   3.658   3.277   9.284  2.1815 -2.7075 -1.3097
   47CHL1   C13 5910   3.751   3.446   9.380 -0.3709  0.1918  0.2367
   47CHL1   C18 5911   3.866   3.546   9.351 -0.1262  0.1104 -0.3545
   47CHL1  H18A 5912   3.918   3.588   9.440  0.1334 -1.5008  0.2839
   47CHL1  H18B 5913   3.953   3.503   9.298  1.3420  2.5584 -0.1037
   47CHL1  H18C 5914   3.838   3.635   9.291 -1.5349  0.5479  0.8824
   47CHL1   C12 5915   3.616   3.514   9.416  0.3388  0.2826  0.4312
   47CHL1  H12A 5916   3.596   3.591   9.339  2.6325 -0.0132 -0.5257
   47CHL1  H12B 5917   3.531   3.443   9.424 -0.0885  0.7808  0.3638
   47CHL1   C11 5918   3.630   3.579   9.555  0.1400 -0.6143  0.1823
   47CHL1  H11A 5919   3.700   3.664   9.541  0.8408 -1.2551 -0.2164
   47CHL1  H11B 5920   3.531   3.627   9.576  0.0971 -0.2806 -0.7472
   47CHL1    C9 5921   3.678   3.481   9.669  0.7542 -0.5598  0.0836
   47CHL1    H9 5922   3.608   3.394   9.672  1.4695 -1.3053 -2.5059
   47CHL1   C10 5923   3.679   3.561   9.811 -0.1218  0.4370  0.3866
   47CHL1   C19 5924   3.747   3.702   9.800 -0.1177 -0.0263 -0.1188
   47CHL1  H19A 5925   3.742   3.751   9.900  0.2468  1.1025 -0.6442
   47CHL1  H19B 5926   3.855   3.695   9.774  0.6760  0.8523  2.5781
   47CHL1  H19C 5927   3.701   3.776   9.731 -1.5420 -1.7718 -1.1216
   47CHL1    C1 5928   3.535   3.578   9.868  0.3613  0.6490  0.6518
   47CHL1   H1A 5929   3.486   3.662   9.816  2.0901  1.3469  0.0569
   47CHL1   H1B 5930   3.474   3.485   9.857 -0.3437  1.3247 -1.7924
   47CHL1    C2 5931   3.526   3.614  10.019  0.2701  0.3692 -0.8041
   47CHL1   H2A 5932   3.421   3.631  10.053  0.5798  0.5127  0.0850
   47CHL1   H2B 5933   3.570   3.715  10.031  1.7044 -0.4199  0.9882
   47CHL1   C20 5934   3.730   3.406   9.122  0.5154 -0.0057 -0.1793
   47CHL1   H20 5935   3.690   3.508   9.136 -0.6518 -0.5263  0.4118
   47CHL1   C21 5936   3.633   3.309   9.040  0.3429  0.8738  0.4814
   47CHL1  H21A 5937   3.535   3.296   9.092 -0.1886 -1.2576 -0.9196
   47CHL1  H21B 5938   3.694   3.217   9.027  0.7925  1.4498 -1.8174
   47CHL1  H21C 5939   3.617   3.353   8.940  2.0280  0.6515  0.0835
   47CHL1   C22 5940   3.863   3.417   9.044  0.5806 -0.1954 -0.3051
   47CHL1  H22A 5941   3.929   3.483   9.104 -1.2314  0.6083  0.9206
   47CHL1  H22B 5942   3.903   3.315   9.026 -0.5620 -0.7686  0.2158
   47CHL1   C23 5943   3.848   3.488   8.901  0.0587  0.4420 -0.2480
   47CHL1  H23A 5944   3.792   3.418   8.836  2.9180 -1.1903 -1.1012
   47CHL1  H23B 5945   3.791   3.583   8.913 -3.3611 -1.5398  0.6859
   47CHL1   C24 5946   3.976   3.515   8.825 -0.4949 -0.2208  0.6100
   47CHL1  H24A 5947   4.027   3.587   8.892 -2.3496  0.0009  1.8586
   47CHL1  H24B 5948   4.046   3.436   8.791 -1.2339 -0.1063 -1.2836
   47CHL1   C25 5949   3.961   3.586   8.693 -0.5743  0.3867  0.2623
   47CHL1   H25 5950   3.888   3.668   8.705  0.5665  1.6475 -0.9682
   47CHL1   C26 5951   4.100   3.644   8.659  0.6424 -0.5542 -0.3489
   47CHL1  H26A 5952   4.132   3.723   8.730  2.6633 -0.9987 -0.6873
   47CHL1  H26B 5953   4.105   3.687   8.556  1.0087  1.5025  0.4817
   47CHL1  H26C 5954   4.180   3.567   8.661  0.4493 -0.7409  0.0121
   47CHL1   C27 5955   3.911   3.495   8.583  0.4332  0.7890 -0.6708
   47CHL1  H27A 5956   3.963   3.399   8.604  1.3193  0.9935 -1.8353
   47CHL1  H27B 5957   3.801   3.476   8.592  0.5481  0.6069  0.5286
   47CHL1  H27C 5958   3.927   3.535   8.481 -0.3504 -1.4656 -1.7374
   48CHL1    C3 5959   6.239   1.194  10.151  0.0491 -0.2265  0.2635
   48CHL1    H3 5960   6.321   1.145  10.094  0.7735  1.3693 -0.1137
   48CHL1    O3 5961   6.285   1.205  10.288 -0.3775  0.2112 -0.3719
   48CHL1   H3' 5962   6.357   1.268  10.283 -0.1062 -0.0959 -0.3721
   48CHL1    C4 5963   6.217   1.331  10.082  0.2589  0.2623  0.4963
   48CHL1   H4A 5964   6.134   1.378  10.138 -0.1049 -0.1555  0.3103
   48CHL1   H4B 5965   6.306   1.397  10.096 -0.7006  1.6527  0.2424
   48CHL1    C5 5966   6.180   1.306   9.937  0.1481 -0.0518 -0.3482
   48CHL1    C6 5967   6.255   1.357   9.841 -0.1379 -0.0210  0.4940
   48CHL1    H6 5968   6.342   1.420   9.864 -1.2266  2.4554 -1.6794
   48CHL1    C7 5969   6.225   1.336   9.698 -0.2850  0.6785 -0.8246
   48CHL1   H7A 5970   6.198   1.434   9.652 -0.6630  0.9345 -0.0726
   48CHL1   H7B 5971   6.310   1.288   9.644  0.6680 -0.1627  1.3347
   48CHL1    C8 5972   6.091   1.256   9.666 -0.5490 -1.0149 -0.4996
   48CHL1    H8 5973   6.010   1.332   9.668  1.8632  1.7203  0.6682
   48CHL1   C14 5974   6.098   1.207   9.522  0.1137 -0.5348  0.5807
   48CHL1   H14 5975   6.190   1.145   9.514  0.5840 -0.1225  2.5020
   48CHL1   C15 5976   6.096   1.320   9.410 -0.4459  0.0228 -0.3687
   48CHL1  H15A 5977   6.021   1.402   9.419  2.3903  2.9162 -1.2816
   48CHL1  H15B 5978   6.192   1.373   9.392 -0.2863 -0.5291 -1.1722
   48CHL1   C16 5979   6.054   1.247   9.283  0.1519  0.0526 -0.1381
   48CHL1  H16A 5980   5.973   1.300   9.229  0.2725 -0.8268 -1.2176
   48CHL1  H16B 5981   6.132   1.233   9.206 -1.0040  1.4932 -1.6288
   48CHL1   C17 5982   6.017   1.096   9.334 -0.2745 -0.8311  0.3088
   48CHL1   H17 5983   6.108   1.033   9.347  0.0716 -0.1132  1.5660
   48CHL1   C13 5984   5.983   1.115   9.484  0.3548 -0.0893 -0.6052
   48CHL1   C18 5985   5.841   1.180   9.501 -0.2480  0.3942 -0.4365
   48CHL1  H18A 5986   5.817   1.220   9.602  2.9835  0.5321  0.3928
   48CHL1  H18B 5987   5.834   1.272   9.438 -0.8481 -0.9127 -2.3595
   48CHL1  H18C 5988   5.758   1.109   9.484  0.2714 -0.8184  1.7411
   48CHL1   C12 5989   5.987   0.991   9.580  0.5342  0.0088  0.4885
   48CHL1  H12A 5990   5.907   0.917   9.557  0.6156 -0.1626  0.7476
   48CHL1  H12B 5991   6.075   0.925   9.568 -0.9948 -1.6003 -3.3620
   48CHL1   C11 5992   5.971   1.039   9.723 -0.6222 -0.0717 -0.3481
   48CHL1  H11A 5993   5.867   1.075   9.741 -0.1211  2.0262 -1.3846
   48CHL1  H11B 5994   5.983   0.945   9.781 -0.6947 -1.5507 -2.5837
   48CHL1    C9 5995   6.073   1.146   9.766 -0.1479  0.4775 -0.0881
   48CHL1    H9 5996   6.161   1.078   9.760 -0.1258  0.6216 -1.7059
   48CHL1   C10 5997   6.068   1.197   9.911  0.8282  0.1169 -0.6667
   48CHL1   C19 5998   5.933   1.262   9.929  0.1609  0.0496  0.2989
   48CHL1  H19A 5999   5.850   1.188   9.918 -0.4400  0.7301  0.1641
   48CHL1  H19B 6000   5.915   1.309  10.028 -0.1220 -0.7121  0.6240
   48CHL1  H19C 6001   5.908   1.330   9.844 -1.8328 -2.5707 -1.3865
   48CHL1    C1 6002   6.087   1.074  10.013  0.3222  0.3142  0.2495
   48CHL1   H1A 6003   6.009   0.995  10.021 -1.5869  1.9524 -1.1594
   48CHL1   H1B 6004   6.179   1.025   9.974  1.8497  1.5815  2.1044
   48CHL1    C2 6005   6.114   1.115  10.159 -0.0393  0.6233  0.6982
   48CHL1   H2A 6006   6.115   1.020  10.216 -0.7187  1.8139  2.8051
   48CHL1   H2B 6007   6.027   1.166  10.205 -2.1937 -0.5238 -1.8300
   48CHL1   C20 6008   5.937   1.022   9.224  0.3993  0.0800  0.1580
   48CHL1   H20 6009   5.851   1.086   9.194  1.8825  0.1158 -5.0257
   48CHL1   C21 6010   5.886   0.885   9.272  0.0804  0.1245  0.3973
   48CHL1  H21A 6011   5.836   0.808   9.209  1.9737 -1.1120  0.3285
   48CHL1  H21B 6012   5.817   0.905   9.356 -0.7055 -0.1782 -0.1593
   48CHL1  H21C 6013   5.970   0.821   9.306  0.0246 -0.8481 -1.1677
   48CHL1   C22 6014   6.016   1.003   9.090  0.1495 -0.8768 -0.1154
   48CHL1  H22A 6015   6.066   1.101   9.078 -0.4020 -0.4326  1.0301
   48CHL1  H22B 6016   6.090   0.923   9.109 -0.6641 -1.8622 -0.9189
   48CHL1   C23 6017   5.936   0.964   8.969  0.4451 -0.3173 -0.2217
   48CHL1  H23A 6018   5.896   0.861   8.973 -0.3387 -0.0262 -0.3126
   48CHL1  H23B 6019   5.856   1.038   8.948  1.3731  0.0296 -3.0933
   48CHL1   C24 6020   6.022   0.962   8.840  0.6516  0.1572 -0.0295
   48CHL1  H24A 6021   6.036   1.068   8.811  0.1781 -0.4401 -2.7688
   48CHL1  H24B 6022   6.119   0.914   8.866 -0.7678 -1.4745  2.6646
   48CHL1   C25 6023   5.964   0.890   8.717 -0.2118  0.4124  0.1878
   48CHL1   H25 6024   5.914   0.795   8.745 -0.4997  0.0176 -1.5405
   48CHL1   C26 6025   5.853   0.971   8.645 -0.6004  0.0894 -0.0814
   48CHL1  H26A 6026   5.894   1.061   8.594 -2.2546  0.4017 -0.9240
   48CHL1  H26B 6027   5.810   0.912   8.561 -2.1386  0.6715  0.2657
   48CHL1  H26C 6028   5.768   0.987   8.715 -1.3297  0.1981 -0.9737
   48CHL1   C27 6029   6.072   0.842   8.613  0.9144  1.0899 -0.1183
   48CHL1  H27A 6030   6.122   0.924   8.557  0.2619  2.0955  0.7213
   48CHL1  H27B 6031   6.149   0.785   8.669 -1.7824 -2.1756  0.5911
   48CHL1  H27C 6032   6.025   0.775   8.538 -1.1622  1.3454  0.8713
   49CHL1    C3 6033   3.695   1.574  10.091 -0.3767 -0.0685  0.9910
   49CHL1    H3 6034   3.637   1.661  10.054  0.4484 -0.0049 -0.2135
   49CHL1    O3 6035   3.668   1.564  10.227  0.9816  0.4073  0.3370
   49CHL1   H3' 6036   3.711   1.485  10.262  0.6282 -0.5571 -1.3115
   49CHL1    C4 6037   3.657   1.444  10.014  0.0756  0.1435  0.2367
   49CHL1   H4A 6038   3.706   1.358  10.063  1.0037 -0.8664 -2.3125
   49CHL1   H4B 6039   3.549   1.424  10.036  0.2194 -1.5432 -0.4485
   49CHL1    C5 6040   3.677   1.453   9.866  0.3048  0.2695 -0.3217
   49CHL1    C6 6041   3.572   1.456   9.779  0.0497  0.0852  0.7858
   49CHL1    H6 6042   3.468   1.435   9.806 -1.0488  0.6893 -2.5518
   49CHL1    C7 6043   3.583   1.485   9.631  0.6781 -0.1295  0.8710
   49CHL1   H7A 6044   3.497   1.446   9.572  0.3753  2.4178 -0.5256
   49CHL1   H7B 6045   3.580   1.595   9.617  0.0359 -0.2176  0.2442
   49CHL1    C8 6046   3.719   1.445   9.578 -0.4237  0.1501  0.4507
   49CHL1    H8 6047   3.732   1.336   9.596  2.5971  0.0993 -1.2891
   49CHL1   C14 6048   3.739   1.474   9.431 -0.2939  0.0510 -0.6440
   49CHL1   H14 6049   3.730   1.585   9.424  1.7115  0.3871  1.1512
   49CHL1   C15 6050   3.644   1.409   9.332  0.5137 -0.4448  0.3287
   49CHL1  H15A 6051   3.632   1.303   9.363  0.2818 -0.3739  0.4847
   49CHL1  H15B 6052   3.539   1.447   9.333 -0.0101 -1.7893 -0.0509
   49CHL1   C16 6053   3.720   1.412   9.204 -0.0850 -0.5844 -1.0015
   49CHL1  H16A 6054   3.742   1.308   9.170 -0.3398 -1.6584  1.8738
   49CHL1  H16B 6055   3.672   1.473   9.124  1.6457  2.7314  0.3025
   49CHL1   C17 6056   3.864   1.465   9.240 -0.4613 -0.8243 -0.0174
   49CHL1   H17 6057   3.865   1.575   9.223 -0.0801 -1.3328 -4.3492
   49CHL1   C13 6058   3.881   1.443   9.392 -0.1303 -0.1483  0.6391
   49CHL1   C18 6059   3.913   1.292   9.405  0.1025  0.0321  0.5820
   49CHL1  H18A 6060   4.019   1.274   9.378  0.8897  1.6647  2.4396
   49CHL1  H18B 6061   3.916   1.255   9.509 -2.7594  1.6979  1.3756
   49CHL1  H18C 6062   3.845   1.219   9.356 -2.5858  0.9558  2.6841
   49CHL1   C12 6063   3.975   1.529   9.466  0.1621 -0.3681  0.2894
   49CHL1  H12A 6064   4.078   1.524   9.426  0.6292 -0.8191  1.5155
   49CHL1  H12B 6065   3.955   1.636   9.443  0.5615 -0.7169 -1.9557
   49CHL1   C11 6066   3.970   1.494   9.621 -0.4408  0.3178 -0.1618
   49CHL1  H11A 6067   4.032   1.402   9.633  1.4946  0.7056 -4.8590
   49CHL1  H11B 6068   4.038   1.569   9.665  3.7088 -0.7954 -3.8738
   49CHL1    C9 6069   3.826   1.514   9.670 -0.4861 -0.4838 -0.4575
   49CHL1    H9 6070   3.793   1.620   9.663 -0.9359 -0.6606 -1.0751
   49CHL1   C10 6071   3.821   1.481   9.825 -0.0711 -0.1169 -0.4481
   49CHL1   C19 6072   3.895   1.354   9.851  0.4788 -0.8122 -0.5894
   49CHL1  H19A 6073   4.003   1.360   9.827  0.0278  0.4537 -2.5377
   49CHL1  H19B 6074   3.883   1.311   9.953  2.5786 -3.8031 -1.4690
   49CHL1  H19C 6075   3.849   1.270   9.796  0.4394 -1.7841  0.8727
   49CHL1    C1 6076   3.886   1.595   9.912  0.4002  0.7740 -0.5798
   49CHL1   H1A 6077   3.997   1.598   9.916  0.3578  1.5367  0.1966
   49CHL1   H1B 6078   3.849   1.691   9.869  0.8281  1.0063 -0.4284
   49CHL1    C2 6079   3.847   1.592  10.060 -0.0225 -0.5394 -0.1791
   49CHL1   H2A 6080   3.866   1.690  10.110  0.4827 -0.2493 -0.9239
   49CHL1   H2B 6081   3.902   1.513  10.115  1.3728 -1.1579 -2.3131
   49CHL1   C20 6082   3.964   1.400   9.137 -1.1650  0.3518 -1.1416
   49CHL1   H20 6083   3.960   1.289   9.139 -2.7743  0.3869  0.9119
   49CHL1   C21 6084   4.107   1.463   9.173 -0.5159  0.2494 -0.4355
   49CHL1  H21A 6085   4.165   1.425   9.260 -0.1156 -1.5697 -1.4399
   49CHL1  H21B 6086   4.087   1.572   9.167  0.3231  0.5741  1.8170
   49CHL1  H21C 6087   4.175   1.454   9.085 -0.5894 -1.7212 -0.3370
   49CHL1   C22 6088   3.934   1.442   8.986 -0.3463  1.0698 -0.0091
   49CHL1  H22A 6089   3.827   1.414   8.976 -0.9798  2.1985  2.7471
   49CHL1  H22B 6090   3.951   1.551   8.982 -2.8847  1.5915  1.3993
   49CHL1   C23 6091   4.014   1.374   8.870  0.8285  0.4901  0.0048
   49CHL1  H23A 6092   4.124   1.367   8.883  0.8001 -0.9187 -0.3707
   49CHL1  H23B 6093   3.986   1.268   8.888  2.1968  0.2401  0.7913
   49CHL1   C24 6094   3.982   1.424   8.728  0.8317 -0.7309 -0.2504
   49CHL1  H24A 6095   3.872   1.443   8.719  0.4146 -3.0432 -0.5165
   49CHL1  H24B 6096   4.033   1.522   8.721  2.4225 -1.3939  1.4174
   49CHL1   C25 6097   4.013   1.323   8.625  0.9712 -1.1315  0.1379
   49CHL1   H25 6098   3.948   1.235   8.645 -0.1814 -0.4392 -0.4099
   49CHL1   C26 6099   3.987   1.384   8.486  0.4607 -0.2416 -0.3489
   49CHL1  H26A 6100   4.070   1.445   8.443 -0.4416 -0.1073 -1.9700
   49CHL1  H26B 6101   3.982   1.306   8.407  1.8361 -1.1893  0.4556
   49CHL1  H26C 6102   3.896   1.447   8.474 -0.1606 -1.1961 -0.7139
   49CHL1   C27 6103   4.155   1.286   8.619  0.8611  0.4041 -0.6976
   49CHL1  H27A 6104   4.177   1.232   8.524 -0.1793  0.8313 -1.1931
   49CHL1  H27B 6105   4.214   1.380   8.608 -2.6010  2.8918  0.1666
   49CHL1  H27C 6106   4.189   1.241   8.715  2.7793  0.4994 -1.2923
   50CHL1    C3 6107   0.753   1.239  10.099  0.0493 -0.0380 -0.0699
   50CHL1    H3 6108   0.755   1.350  10.097 -1.5812  0.0346  0.9191
   50CHL1    O3 6109   0.758   1.185  10.234  0.5252 -1.1643  0.0233
   50CHL1   H3' 6110   0.813   1.106  10.229  0.7719 -1.0182  0.3818
   50CHL1    C4 6111   0.630   1.195  10.031 -0.2473 -0.0810  0.0892
   50CHL1   H4A 6112   0.608   1.089  10.059 -2.3352  0.2452 -0.1565
   50CHL1   H4B 6113   0.548   1.248  10.084  1.2933  1.0692  1.4087
   50CHL1    C5 6114   0.612   1.212   9.885 -0.6994  0.1037  0.1770
   50CHL1    C6 6115   0.508   1.272   9.824 -0.4330 -0.0591 -0.0689
   50CHL1    H6 6116   0.427   1.299   9.892  1.0896  0.2423  1.6988
   50CHL1    C7 6117   0.490   1.305   9.679  0.5840 -0.0624  0.2922
   50CHL1   H7A 6118   0.392   1.281   9.632 -0.3576  1.9179  1.0951
   50CHL1   H7B 6119   0.492   1.416   9.672 -1.8165  0.3329  3.3176
   50CHL1    C8 6120   0.590   1.240   9.586 -0.5861 -0.1361 -0.2021
   50CHL1    H8 6121   0.558   1.134   9.579  1.3745 -0.7770 -0.1002
   50CHL1   C14 6122   0.588   1.312   9.450 -0.2979  0.3750  0.2869
   50CHL1   H14 6123   0.609   1.419   9.471 -0.8636  0.9826 -1.9568
   50CHL1   C15 6124   0.454   1.311   9.370  0.0282 -0.2963  0.2480
   50CHL1  H15A 6125   0.415   1.207   9.379  0.3950 -0.8807 -3.3883
   50CHL1  H15B 6126   0.377   1.381   9.410  0.8793  1.7843 -1.5642
   50CHL1   C16 6127   0.498   1.353   9.229  0.0314  0.0631 -0.0415
   50CHL1  H16A 6128   0.455   1.274   9.163  0.6955  0.1353 -0.5773
   50CHL1  H16B 6129   0.476   1.449   9.179  0.1598  1.5506  2.6301
   50CHL1   C17 6130   0.655   1.333   9.232 -0.2194  0.3932  0.3426
   50CHL1   H17 6131   0.694   1.437   9.243 -0.3422  0.3759  0.9674
   50CHL1   C13 6132   0.694   1.258   9.354 -0.0591  0.1376 -0.3007
   50CHL1   C18 6133   0.683   1.109   9.325  0.0681 -0.5268 -0.2432
   50CHL1  H18A 6134   0.660   1.057   9.420  0.4892  1.1309  0.8095
   50CHL1  H18B 6135   0.601   1.093   9.252 -0.5947  1.8570 -0.1262
   50CHL1  H18C 6136   0.777   1.066   9.284  0.3290 -1.3413  1.1622
   50CHL1   C12 6137   0.830   1.287   9.425  0.7633  0.8951 -0.5375
   50CHL1  H12A 6138   0.912   1.253   9.358  1.4980  0.3405  0.5965
   50CHL1  H12B 6139   0.859   1.393   9.445  2.7063  0.7249 -2.1219
   50CHL1   C11 6140   0.840   1.209   9.558  0.3804 -0.6493 -0.2130
   50CHL1  H11A 6141   0.845   1.099   9.549 -1.4895 -0.6257 -2.8474
   50CHL1  H11B 6142   0.934   1.252   9.599  0.2385 -0.3926 -0.1501
   50CHL1    C9 6143   0.726   1.252   9.656 -0.2981 -0.7066 -0.6825
   50CHL1    H9 6144   0.748   1.358   9.678  0.1118 -0.9238 -0.0500
   50CHL1   C10 6145   0.731   1.179   9.798  0.2545  0.4536 -0.0214
   50CHL1   C19 6146   0.723   1.027   9.792 -1.2456  0.6206  0.3013
   50CHL1  H19A 6147   0.763   0.987   9.888  2.9340  1.0571 -1.0393
   50CHL1  H19B 6148   0.622   0.993   9.760 -0.9919  0.3945 -0.2700
   50CHL1  H19C 6149   0.805   0.986   9.730  0.0583  1.3900  1.4600
   50CHL1    C1 6150   0.858   1.221   9.878  0.0089 -0.8618  0.4833
   50CHL1   H1A 6151   0.940   1.186   9.813 -0.0600  0.3175 -0.2683
   50CHL1   H1B 6152   0.860   1.331   9.863 -0.8525 -0.9232 -0.1754
   50CHL1    C2 6153   0.876   1.190  10.021  0.2607  0.1697 -0.3917
   50CHL1   H2A 6154   0.973   1.236  10.050  0.7993 -0.2523 -1.4463
   50CHL1   H2B 6155   0.890   1.080  10.029 -0.4275  0.1221  0.2658
   50CHL1   C20 6156   0.720   1.284   9.102 -0.8944 -0.4401 -0.4863
   50CHL1   H20 6157   0.693   1.176   9.102  1.9529 -1.2572  0.6180
   50CHL1   C21 6158   0.874   1.312   9.099  0.7120 -0.3367 -0.0468
   50CHL1  H21A 6159   0.905   1.389   9.173  0.5560  0.3835 -0.7192
   50CHL1  H21B 6160   0.909   1.327   8.995  1.6371 -0.1570  0.2771
   50CHL1  H21C 6161   0.917   1.216   9.134 -3.7936 -1.8654  2.1226
   50CHL1   C22 6162   0.647   1.350   8.974 -0.6315 -0.0556 -0.6159
   50CHL1  H22A 6163   0.537   1.334   8.966 -0.4127 -1.9651 -0.0592
   50CHL1  H22B 6164   0.659   1.461   8.976  0.9115 -0.2015 -0.8176
   50CHL1   C23 6165   0.691   1.303   8.828  0.2281  0.0691 -0.5718
   50CHL1  H23A 6166   0.797   1.316   8.798  1.6283 -1.1310  3.2223
   50CHL1  H23B 6167   0.680   1.193   8.822 -1.2328  0.2143 -0.8459
   50CHL1   C24 6168   0.603   1.370   8.721 -0.5715 -0.2652  0.5877
   50CHL1  H24A 6169   0.496   1.379   8.748 -0.4504  1.6916  0.5085
   50CHL1  H24B 6170   0.643   1.471   8.701 -0.5157 -0.4710 -0.3956
   50CHL1   C25 6171   0.626   1.310   8.579  0.4609 -0.5191  0.1235
   50CHL1   H25 6172   0.560   1.368   8.512  0.6556  0.5929  0.8793
   50CHL1   C26 6173   0.758   1.332   8.512  0.3639  0.0043  0.3108
   50CHL1  H26A 6174   0.809   1.431   8.521  1.1159 -0.3369 -0.1103
   50CHL1  H26B 6175   0.836   1.261   8.548  1.9427  0.3911 -2.1170
   50CHL1  H26C 6176   0.740   1.309   8.405 -0.3619 -0.9902  0.6352
   50CHL1   C27 6177   0.577   1.167   8.565 -0.1475  0.2839 -0.2669
   50CHL1  H27A 6178   0.626   1.092   8.630  0.8152 -0.1280 -1.4405
   50CHL1  H27B 6179   0.470   1.153   8.590 -0.0023 -2.0521 -0.7571
   50CHL1  H27C 6180   0.586   1.131   8.460  0.2114 -1.9365  0.4869
   51CHL1    C3 6181   2.063   3.878  10.240  0.6440  0.1945  0.4566
   51CHL1    H3 6182   2.156   3.938  10.227  1.3724 -1.0825 -0.4448
   51CHL1    O3 6183   2.011   3.868  10.372 -0.2256  0.3302 -0.1099
   51CHL1   H3' 6184   2.009   3.954  10.414 -1.2435 -1.0970  3.0378
   51CHL1    C4 6185   1.947   3.939  10.153  0.0094 -0.7932 -0.2718
   51CHL1   H4A 6186   1.843   3.910  10.179 -1.4796  2.7763 -1.5600
   51CHL1   H4B 6187   1.953   4.044  10.190  1.4340 -1.1732  0.6588
   51CHL1    C5 6188   1.961   3.932   9.998 -0.1895 -0.6138 -0.2796
   51CHL1    C6 6189   1.951   4.040   9.922 -0.1102  0.0443 -0.7992
   51CHL1    H6 6190   1.942   4.133   9.979  0.7903 -2.1936  3.3976
   51CHL1    C7 6191   1.960   4.038   9.770 -0.3271  0.9118  0.1493
   51CHL1   H7A 6192   1.883   4.109   9.734 -0.0542  0.4069 -1.5056
   51CHL1   H7B 6193   2.062   4.073   9.746  0.0360 -0.9765 -1.3044
   51CHL1    C8 6194   1.946   3.893   9.718 -0.0299 -0.2835  0.5302
   51CHL1    H8 6195   1.837   3.874   9.724  0.0020 -1.2908 -1.2787
   51CHL1   C14 6196   1.997   3.893   9.576  0.0240  0.3559 -0.3809
   51CHL1   H14 6197   2.108   3.905   9.581  0.2284 -1.4004 -0.0118
   51CHL1   C15 6198   1.958   4.005   9.471 -0.4213  0.0643  0.1039
   51CHL1  H15A 6199   1.848   4.023   9.469 -0.4067  0.1465  0.0371
   51CHL1  H15B 6200   2.017   4.095   9.499  0.0638 -0.1025 -0.3806
   51CHL1   C16 6201   2.004   3.952   9.334  0.5200  0.0135 -0.6637
   51CHL1  H16A 6202   1.915   3.974   9.271  0.1183  1.2338  0.2881
   51CHL1  H16B 6203   2.093   3.999   9.288  0.2674  1.1710 -0.0261
   51CHL1   C17 6204   2.034   3.804   9.359 -0.3197  0.4520 -0.5456
   51CHL1   H17 6205   2.145   3.808   9.370 -0.5072  0.7782  1.7421
   51CHL1   C13 6206   1.983   3.765   9.500 -0.6205  0.2206 -0.3920
   51CHL1   C18 6207   1.830   3.718   9.489  0.1144 -0.0904 -0.4022
   51CHL1  H18A 6208   1.792   3.680   9.586  2.1726 -1.5633 -0.1029
   51CHL1  H18B 6209   1.772   3.811   9.471  0.2564 -0.2704 -1.9399
   51CHL1  H18C 6210   1.809   3.639   9.414  0.2248 -0.8635  0.3698
   51CHL1   C12 6211   2.064   3.655   9.571 -0.4844  0.5279 -0.0417
   51CHL1  H12A 6212   2.034   3.554   9.536  0.1392 -1.1411  3.7984
   51CHL1  H12B 6213   2.174   3.667   9.563 -0.5254  0.3924 -0.9039
   51CHL1   C11 6214   2.017   3.658   9.718 -0.0460 -0.2857  0.2135
   51CHL1  H11A 6215   1.913   3.619   9.723 -0.6655  0.4326 -3.6839
   51CHL1  H11B 6216   2.083   3.588   9.774 -0.1345 -3.1329 -2.9042
   51CHL1    C9 6217   2.023   3.792   9.795  0.3339 -0.0435  0.2498
   51CHL1    H9 6218   2.130   3.819   9.790  0.1843  0.6943  0.8013
   51CHL1   C10 6219   1.998   3.795   9.947 -0.2495  0.4444 -0.2037
   51CHL1   C19 6220   1.879   3.704   9.971 -0.2614 -0.0222  0.0692
   51CHL1  H19A 6221   1.793   3.735   9.908 -0.3712  0.4714  0.4528
   51CHL1  H19B 6222   1.894   3.595   9.958 -2.3431 -0.6304  2.0520
   51CHL1  H19C 6223   1.841   3.719  10.074 -0.7114 -0.4824 -0.0271
   51CHL1    C1 6224   2.117   3.737  10.034 -0.0388 -0.0464 -0.9328
   51CHL1   H1A 6225   2.135   3.632  10.001 -0.3256 -0.3419 -0.1678
   51CHL1   H1B 6226   2.206   3.801  10.017  0.2801 -0.4102 -0.6624
   51CHL1    C2 6227   2.089   3.737  10.183  0.3215 -0.1458 -0.4531
   51CHL1   H2A 6228   2.177   3.702  10.239 -1.8475 -1.2762  2.5075
   51CHL1   H2B 6229   1.997   3.677  10.201 -0.5416  0.7642 -1.5961
   51CHL1   C20 6230   2.013   3.716   9.233  0.3436 -0.1317 -0.1505
   51CHL1   H20 6231   1.902   3.720   9.223  0.4634  2.7848 -1.1644
   51CHL1   C21 6232   2.065   3.573   9.263  0.6329 -0.0681  0.3499
   51CHL1  H21A 6233   1.994   3.531   9.336  0.2118 -0.9996 -0.5772
   51CHL1  H21B 6234   2.170   3.583   9.298  0.9576  1.3089 -0.9174
   51CHL1  H21C 6235   2.060   3.512   9.171 -2.9396  0.9210 -0.2477
   51CHL1   C22 6236   2.086   3.768   9.100 -0.4688 -0.2948 -1.0407
   51CHL1  H22A 6237   2.092   3.879   9.107 -1.3397 -0.3276  0.9472
   51CHL1  H22B 6238   2.190   3.732   9.108 -0.2832  0.4063  0.0660
   51CHL1   C23 6239   2.029   3.721   8.967 -0.3405  0.4828  0.2983
   51CHL1  H23A 6240   2.051   3.613   8.958  1.7427  0.8578  0.3093
   51CHL1  H23B 6241   1.918   3.732   8.964 -0.2228  1.8050  0.3530
   51CHL1   C24 6242   2.092   3.789   8.848 -0.4342  0.1841  0.5436
   51CHL1  H24A 6243   2.082   3.898   8.865  1.0057  0.2126  1.4028
   51CHL1  H24B 6244   2.197   3.754   8.850 -0.4477  0.0065 -0.7523
   51CHL1   C25 6245   2.031   3.758   8.709  0.1744 -0.2136 -0.1176
   51CHL1   H25 6246   2.045   3.648   8.701 -0.2687 -0.3298  0.6018
   51CHL1   C26 6247   1.881   3.783   8.679  0.8694 -0.1094 -0.1718
   51CHL1  H26A 6248   1.853   3.743   8.579 -1.0232 -1.3259  0.7816
   51CHL1  H26B 6249   1.823   3.719   8.748 -2.9514  0.8975 -2.1251
   51CHL1  H26C 6250   1.841   3.887   8.688  2.0781  0.3946 -0.4877
   51CHL1   C27 6251   2.108   3.824   8.590 -0.5478  0.3036 -0.2038
   51CHL1  H27A 6252   2.201   3.768   8.564 -1.6222 -0.0208 -3.8949
   51CHL1  H27B 6253   2.052   3.827   8.494  0.4859 -0.5214 -0.8582
   51CHL1  H27C 6254   2.142   3.925   8.621 -0.5605  0.2349  0.0353
   52CHL1    C3 6255   4.567   2.185  10.128 -0.9316  0.4216  0.1965
   52CHL1    H3 6256   4.463   2.221  10.117 -0.5542  0.7060 -3.6026
   52CHL1    O3 6257   4.623   2.234  10.251 -0.0692  0.0538 -0.3228
   52CHL1   H3' 6258   4.710   2.193  10.247  0.2897  0.4724  1.6630
   52CHL1    C4 6259   4.575   2.028  10.111 -0.0680 -0.4605 -0.3466
   52CHL1   H4A 6260   4.670   1.988  10.152  0.4760  1.7439  0.6871
   52CHL1   H4B 6261   4.496   1.980  10.172 -1.4257  1.0942 -0.8251
   52CHL1    C5 6262   4.552   1.995   9.965  0.8459  0.0263  0.0802
   52CHL1    C6 6263   4.456   1.904   9.932  0.4063 -0.9425  0.3286
   52CHL1    H6 6264   4.390   1.868  10.012  0.7884  1.2791  1.7339
   52CHL1    C7 6265   4.440   1.848   9.795  0.1766 -0.3270  0.2850
   52CHL1   H7A 6266   4.410   1.741   9.795 -4.3785  0.7389 -0.8027
   52CHL1   H7B 6267   4.353   1.906   9.756  0.0133 -1.0096 -0.3857
   52CHL1    C8 6268   4.564   1.885   9.709  0.8890  0.3391  0.2709
   52CHL1    H8 6269   4.649   1.821   9.740  0.8595 -0.5916 -1.4317
   52CHL1   C14 6270   4.528   1.856   9.564 -0.6664 -0.3787 -0.3853
   52CHL1   H14 6271   4.445   1.927   9.541  1.1782  2.2328  0.6091
   52CHL1   C15 6272   4.477   1.714   9.532 -0.6097  0.3650  0.7905
   52CHL1  H15A 6273   4.522   1.637   9.598  0.6160 -0.2426 -0.6931
   52CHL1  H15B 6274   4.369   1.721   9.560 -0.1902  0.7623  2.4212
   52CHL1   C16 6275   4.500   1.694   9.383 -0.6926  0.5197  0.8465
   52CHL1  H16A 6276   4.567   1.608   9.365 -0.6940  0.7482 -0.3224
   52CHL1  H16B 6277   4.406   1.678   9.326 -0.5281 -0.7719  0.9007
   52CHL1   C17 6278   4.573   1.823   9.336  0.1580 -0.5217  0.4383
   52CHL1   H17 6279   4.489   1.890   9.309  0.9777 -0.3381 -1.8677
   52CHL1   C13 6280   4.633   1.882   9.462 -0.2048  1.4555  0.7406
   52CHL1   C18 6281   4.760   1.794   9.483 -0.5515  0.0631  0.5568
   52CHL1  H18A 6282   4.846   1.828   9.422 -1.4696 -0.8559 -1.3160
   52CHL1  H18B 6283   4.797   1.800   9.588  1.2328  1.6636 -0.1032
   52CHL1  H18C 6284   4.747   1.687   9.456  3.5756 -0.5701  0.5470
   52CHL1   C12 6285   4.653   2.040   9.467 -0.1633  1.0170  0.1369
   52CHL1  H12A 6286   4.731   2.062   9.391  0.9080 -0.2441  0.8236
   52CHL1  H12B 6287   4.559   2.098   9.455  0.8267  2.9107  1.2252
   52CHL1   C11 6288   4.693   2.081   9.608  0.5814  0.0889 -0.4798
   52CHL1  H11A 6289   4.791   2.034   9.629 -0.1205 -1.2185  0.0130
   52CHL1  H11B 6290   4.699   2.192   9.614  0.0364  0.0996  0.1031
   52CHL1    C9 6291   4.594   2.035   9.716 -0.2224 -0.8627  0.6952
   52CHL1    H9 6292   4.498   2.089   9.696  0.2457 -1.1674 -3.0558
   52CHL1   C10 6293   4.640   2.069   9.856  0.3056 -0.0542 -0.2537
   52CHL1   C19 6294   4.789   2.030   9.878  0.4803 -0.0158 -1.2365
   52CHL1  H19A 6295   4.856   2.098   9.820  1.4972  1.3061  1.3325
   52CHL1  H19B 6296   4.823   2.042   9.983 -4.6712 -1.4106  0.8638
   52CHL1  H19C 6297   4.805   1.924   9.847  1.1502 -0.0382 -0.8371
   52CHL1    C1 6298   4.624   2.219   9.875 -1.0050 -0.1478 -0.9085
   52CHL1   H1A 6299   4.694   2.284   9.819  1.6488  1.1743  3.4672
   52CHL1   H1B 6300   4.519   2.238   9.842 -1.2088 -2.5343 -1.8336
   52CHL1    C2 6301   4.658   2.256  10.023  1.1412  0.1081  0.9299
   52CHL1   H2A 6302   4.640   2.365  10.033  2.8156  0.7328 -1.8164
   52CHL1   H2B 6303   4.766   2.237  10.044  1.5110 -1.0911 -1.6930
   52CHL1   C20 6304   4.649   1.794   9.206  0.3792 -0.6190  0.1739
   52CHL1   H20 6305   4.726   1.717   9.230 -1.2860 -2.1386  0.8499
   52CHL1   C21 6306   4.736   1.924   9.160  0.5759  0.9032  0.7738
   52CHL1  H21A 6307   4.673   2.014   9.150 -0.8159  0.0430  1.5985
   52CHL1  H21B 6308   4.773   1.906   9.056 -2.7628 -0.1936 -0.3413
   52CHL1  H21C 6309   4.811   1.939   9.241 -2.1094 -0.4432  3.6967
   52CHL1   C22 6310   4.559   1.753   9.084  0.1843  0.0624 -0.2828
   52CHL1  H22A 6311   4.626   1.726   9.000 -2.7601  1.2001 -3.2224
   52CHL1  H22B 6312   4.495   1.666   9.109  0.5945  0.2922  1.7369
   52CHL1   C23 6313   4.453   1.857   9.024  0.0389 -0.1881 -0.5557
   52CHL1  H23A 6314   4.381   1.886   9.104  1.1256  0.0435  0.3664
   52CHL1  H23B 6315   4.511   1.950   9.006  1.4837 -0.5259  1.8850
   52CHL1   C24 6316   4.388   1.792   8.896 -0.2103 -0.5642 -0.0946
   52CHL1  H24A 6317   4.460   1.734   8.834  2.1089  1.7990  0.2009
   52CHL1  H24B 6318   4.317   1.718   8.940  0.7929 -0.3636  1.9507
   52CHL1   C25 6319   4.303   1.887   8.809 -0.3348  0.4126  0.2045
   52CHL1   H25 6320   4.374   1.955   8.756 -0.9443  2.0943  1.4556
   52CHL1   C26 6321   4.224   1.800   8.710 -0.2913 -0.7818  0.5284
   52CHL1  H26A 6322   4.142   1.857   8.661 -0.6071 -0.3095  1.5898
   52CHL1  H26B 6323   4.297   1.762   8.635 -0.5954 -2.1095  0.8891
   52CHL1  H26C 6324   4.179   1.715   8.765 -0.5871  0.8028  2.8578
   52CHL1   C27 6325   4.201   1.983   8.879  0.6310  0.1176 -0.0518
   52CHL1  H27A 6326   4.108   1.927   8.905  0.4518  1.1057  1.5857
   52CHL1  H27B 6327   4.232   2.021   8.979  0.6615  4.1567 -1.4331
   52CHL1  H27C 6328   4.170   2.061   8.807  0.0393  0.7090  0.8185
   53CHL1    C3 6329   5.089   0.291  10.115  0.1413  0.0843  0.4357
   53CHL1    H3 6330   4.991   0.240  10.099  0.0868  0.4154 -0.3459
   53CHL1    O3 6331   5.086   0.329  10.253  0.0013  0.0984 -0.2631
   53CHL1   H3' 6332   5.094   0.248  10.305 -2.0385 -0.8669 -1.3048
   53CHL1    C4 6333   5.205   0.204  10.080  0.1236  0.0992  0.5149
   53CHL1   H4A 6334   5.297   0.263  10.097 -0.7968  1.0997  2.2273
   53CHL1   H4B 6335   5.204   0.110  10.138  2.0520  0.0975  0.6056
   53CHL1    C5 6336   5.194   0.166   9.931  0.5542 -0.0776  0.5936
   53CHL1    C6 6337   5.202   0.037   9.890 -0.8204  0.2854 -0.3640
   53CHL1    H6 6338   5.226  -0.036   9.967  0.1129  1.0903  0.1283
   53CHL1    C7 6339   5.201  -0.000   9.746  0.0763  0.3014 -0.1218
   53CHL1   H7A 6340   5.273  -0.078   9.713 -0.2943  0.6171 -1.7834
   53CHL1   H7B 6341   5.104  -0.036   9.705  0.9820  0.2574 -2.3808
   53CHL1    C8 6342   5.240   0.114   9.649 -0.3146 -0.4952 -0.3435
   53CHL1    H8 6343   5.349   0.123   9.668 -0.6631 -0.9205  2.2377
   53CHL1   C14 6344   5.202   0.085   9.507  0.1765 -0.3005  0.1232
   53CHL1   H14 6345   5.091   0.083   9.499  0.0437 -0.7998  1.8140
   53CHL1   C15 6346   5.251  -0.052   9.450  0.3828  0.2014  0.3239
   53CHL1  H15A 6347   5.354  -0.080   9.483  0.7968  0.0121 -1.0829
   53CHL1  H15B 6348   5.175  -0.127   9.482 -2.1039  2.4985  0.2019
   53CHL1   C16 6349   5.266  -0.026   9.303  0.5036  0.6723  0.2463
   53CHL1  H16A 6350   5.370  -0.044   9.267 -0.1251  1.1072 -1.9180
   53CHL1  H16B 6351   5.198  -0.095   9.249  0.4535 -1.2372  2.5641
   53CHL1   C17 6352   5.213   0.122   9.276 -0.1319  0.3410 -0.3621
   53CHL1   H17 6353   5.102   0.111   9.275  0.0035 -1.2005 -0.1790
   53CHL1   C13 6354   5.238   0.193   9.410  0.3802 -0.0087  0.2029
   53CHL1   C18 6355   5.391   0.231   9.413  0.1718  0.3890 -0.2807
   53CHL1  H18A 6356   5.420   0.261   9.516  0.5257  0.9456 -0.5384
   53CHL1  H18B 6357   5.457   0.142   9.398 -0.4289 -0.0867 -0.1585
   53CHL1  H18C 6358   5.429   0.311   9.345  1.4162 -0.0008 -0.0800
   53CHL1   C12 6359   5.147   0.320   9.437  0.2800 -0.1312  0.0481
   53CHL1  H12A 6360   5.176   0.406   9.372 -1.3314 -1.6375 -2.8411
   53CHL1  H12B 6361   5.039   0.303   9.416  0.6856 -0.0834 -2.4115
   53CHL1   C11 6362   5.167   0.357   9.584  0.0395 -0.4265  0.0668
   53CHL1  H11A 6363   5.269   0.401   9.592  0.1471 -0.9435  2.3597
   53CHL1  H11B 6364   5.098   0.442   9.599 -0.4749 -0.5599 -1.4206
   53CHL1    C9 6365   5.164   0.240   9.684 -0.3320  0.3397  0.6592
   53CHL1    H9 6366   5.059   0.205   9.685  0.1032 -1.0924  2.4679
   53CHL1   C10 6367   5.189   0.284   9.832  0.5913  0.5173 -0.1932
   53CHL1   C19 6368   5.326   0.359   9.827  0.1896 -0.1573 -0.3653
   53CHL1  H19A 6369   5.371   0.380   9.927 -0.1344 -2.2233  0.2720
   53CHL1  H19B 6370   5.398   0.296   9.771  1.0456 -0.6201  1.1939
   53CHL1  H19C 6371   5.319   0.459   9.781 -0.6731 -0.6603 -1.3574
   53CHL1    C1 6372   5.079   0.382   9.881  0.7834 -0.6188  0.0843
   53CHL1   H1A 6373   5.085   0.478   9.825 -2.5187 -0.2947  0.0862
   53CHL1   H1B 6374   4.985   0.329   9.855  0.4770  0.4357 -0.9986
   53CHL1    C2 6375   5.084   0.416  10.028 -0.0417 -0.0824 -0.0806
   53CHL1   H2A 6376   5.000   0.474  10.072  0.3627  0.9824 -0.6661
   53CHL1   H2B 6377   5.176   0.477  10.041 -0.9925  1.6186 -0.9527
   53CHL1   C20 6378   5.266   0.184   9.149  0.0434 -0.0692 -0.4330
   53CHL1   H20 6379   5.361   0.237   9.169 -1.1206  1.9534  0.0806
   53CHL1   C21 6380   5.157   0.285   9.096  0.5156 -0.6462 -0.0478
   53CHL1  H21A 6381   5.150   0.371   9.166  0.0245  0.0597 -0.9353
   53CHL1  H21B 6382   5.059   0.235   9.089  0.6106 -0.7234 -0.9528
   53CHL1  H21C 6383   5.182   0.321   8.994 -0.1305 -1.9597 -0.6894
   53CHL1   C22 6384   5.299   0.071   9.043  0.6677  0.5020  0.3201
   53CHL1  H22A 6385   5.378  -0.001   9.074  0.1694  0.1262  0.7185
   53CHL1  H22B 6386   5.219  -0.003   9.022  3.0120 -1.9124 -0.8160
   53CHL1   C23 6387   5.345   0.122   8.901  1.1546 -0.1082 -0.2251
   53CHL1  H23A 6388   5.275   0.197   8.857  1.0077 -0.8221 -1.2465
   53CHL1  H23B 6389   5.438   0.181   8.917  0.7055  0.6624 -0.3981
   53CHL1   C24 6390   5.365   0.003   8.804  0.5366 -0.1652  0.3313
   53CHL1  H24A 6391   5.431  -0.070   8.857  2.3997  0.9367 -0.3514
   53CHL1  H24B 6392   5.264  -0.039   8.785  0.1290  1.6970 -2.0826
   53CHL1   C25 6393   5.440   0.045   8.682 -0.7848 -0.1563 -0.2560
   53CHL1   H25 6394   5.400   0.136   8.631 -0.0157  0.4805  0.2502
   53CHL1   C26 6395   5.589   0.068   8.715 -0.4460  0.2461 -0.3544
   53CHL1  H26A 6396   5.636  -0.024   8.755 -1.6482  0.0770  0.7356
   53CHL1  H26B 6397   5.653   0.113   8.636  0.5055  5.0830  2.7623
   53CHL1  H26C 6398   5.584   0.146   8.794 -2.3905 -0.7903  0.6103
   53CHL1   C27 6399   5.420  -0.068   8.578  0.0634 -0.0898 -0.4209
   53CHL1  H27A 6400   5.311  -0.081   8.558 -0.2835 -0.7380  1.6438
   53CHL1  H27B 6401   5.478  -0.045   8.486  1.6626  1.4256  0.8754
   53CHL1  H27C 6402   5.460  -0.166   8.611  1.9067 -0.6127 -3.7998
   54CHL1    C3 6403   1.006   1.683  10.113 -0.5767  0.0202 -0.0159
   54CHL1    H3 6404   1.095   1.746  10.088 -0.7109 -0.4198 -1.7112
   54CHL1    O3 6405   1.015   1.637  10.246  0.4185  0.4313  0.2075
   54CHL1   H3' 6406   0.934   1.586  10.250  2.6717 -3.6321 -0.8368
   54CHL1    C4 6407   0.881   1.767  10.094  0.1155 -0.2851  0.2417
   54CHL1   H4A 6408   0.792   1.710  10.128 -0.0673  0.5207  1.1620
   54CHL1   H4B 6409   0.901   1.853  10.162  2.0862  0.7888 -1.5778
   54CHL1    C5 6410   0.847   1.807   9.951  0.0076  0.5330 -0.2107
   54CHL1    C6 6411   0.820   1.935   9.921 -0.2893 -0.2368  0.7850
   54CHL1    H6 6412   0.835   2.008  10.001  1.7940  2.2902 -1.7432
   54CHL1    C7 6413   0.790   1.977   9.777  0.0129  0.0372 -0.4998
   54CHL1   H7A 6414   0.705   2.046   9.763 -0.1937 -0.2614 -0.7304
   54CHL1   H7B 6415   0.877   2.037   9.742  0.3231  0.0719  0.3149
   54CHL1    C8 6416   0.760   1.869   9.676  0.0207  0.1015  0.3628
   54CHL1    H8 6417   0.652   1.852   9.696 -0.1405  2.0029  1.2904
   54CHL1   C14 6418   0.783   1.915   9.532  0.9072  0.0727  0.6694
   54CHL1   H14 6419   0.892   1.938   9.526  0.5547  1.9522  0.8781
   54CHL1   C15 6420   0.706   2.037   9.485 -0.1184 -0.1560 -0.5820
   54CHL1  H15A 6421   0.603   2.035   9.527 -0.9464  3.7494 -1.9606
   54CHL1  H15B 6422   0.744   2.135   9.522 -0.0473 -0.0995 -0.8019
   54CHL1   C16 6423   0.700   2.023   9.330 -0.4371  0.0093 -0.0947
   54CHL1  H16A 6424   0.590   2.024   9.316 -0.3909  1.6236 -0.6003
   54CHL1  H16B 6425   0.754   2.110   9.287 -2.2865  1.7365  0.9087
   54CHL1   C17 6426   0.760   1.889   9.295  0.2897 -0.0252  0.3009
   54CHL1   H17 6427   0.864   1.925   9.275  0.1400  0.7894  0.9177
   54CHL1   C13 6428   0.748   1.811   9.429  0.8436  0.7388  0.2192
   54CHL1   C18 6429   0.604   1.750   9.448 -0.4883  0.4067 -0.6859
   54CHL1  H18A 6430   0.575   1.728   9.553 -0.5757 -0.1060 -0.8156
   54CHL1  H18B 6431   0.523   1.822   9.423 -1.2116 -0.2140 -0.1833
   54CHL1  H18C 6432   0.589   1.665   9.379  0.9282 -2.1748  1.9902
   54CHL1   C12 6433   0.856   1.703   9.449  0.3458  0.0940  0.4849
   54CHL1  H12A 6434   0.834   1.615   9.385 -0.2092  0.3227  0.3542
   54CHL1  H12B 6435   0.957   1.742   9.423  0.4383 -1.5590 -1.9667
   54CHL1   C11 6436   0.850   1.638   9.585  0.7267  0.0802 -0.2306
   54CHL1  H11A 6437   0.760   1.574   9.596  0.7299  0.1826  0.4782
   54CHL1  H11B 6438   0.942   1.574   9.592 -0.1523 -1.0624  3.0247
   54CHL1    C9 6439   0.853   1.748   9.699  0.1677  0.1265 -0.2686
   54CHL1    H9 6440   0.954   1.793   9.685 -0.2613  0.8465 -1.2364
   54CHL1   C10 6441   0.857   1.699   9.845 -0.9009  0.9956 -0.4099
   54CHL1   C19 6442   0.729   1.618   9.867 -0.0316  0.1763  0.5760
   54CHL1  H19A 6443   0.630   1.669   9.865 -1.5555 -2.4234 -3.4105
   54CHL1  H19B 6444   0.716   1.535   9.795 -2.8297  2.4009 -1.7503
   54CHL1  H19C 6445   0.746   1.570   9.966  3.2722 -1.4102 -0.6136
   54CHL1    C1 6446   0.981   1.605   9.866  0.0512  0.0545  0.0438
   54CHL1   H1A 6447   0.965   1.515   9.803 -0.9340  0.6834 -0.6317
   54CHL1   H1B 6448   1.072   1.655   9.827  0.4833 -1.0839 -0.4394
   54CHL1    C2 6449   1.010   1.563  10.017  0.1327 -0.0411  0.0678
   54CHL1   H2A 6450   1.107   1.511  10.033 -1.1283 -1.7101  3.3974
   54CHL1   H2B 6451   0.936   1.488  10.053  1.0292 -0.2981  1.4444
   54CHL1   C20 6452   0.704   1.832   9.166  0.9105 -0.5422 -0.8174
   54CHL1   H20 6453   0.612   1.776   9.194  0.8943 -0.2688 -0.3218
   54CHL1   C21 6454   0.794   1.722   9.117 -0.1529 -0.4237 -0.1650
   54CHL1  H21A 6455   0.782   1.638   9.189 -0.6406 -0.3118 -0.1080
   54CHL1  H21B 6456   0.900   1.750   9.105  0.1720 -1.1945  0.7592
   54CHL1  H21C 6457   0.759   1.686   9.018  0.3279 -2.0255  0.2191
   54CHL1   C22 6458   0.675   1.931   9.045  0.1244  0.1846  0.0502
   54CHL1  H22A 6459   0.630   1.876   8.960 -2.8641  0.3198  1.3898
   54CHL1  H22B 6460   0.594   2.001   9.075 -1.1388 -1.0761 -0.3178
   54CHL1   C23 6461   0.794   2.010   8.986  0.1481 -0.0094 -0.5738
   54CHL1  H23A 6462   0.845   2.078   9.057  1.2651 -1.0082 -0.3807
   54CHL1  H23B 6463   0.866   1.927   8.969  1.4453  0.5910  1.6137
   54CHL1   C24 6464   0.770   2.077   8.849  0.0312 -0.0659 -0.7313
   54CHL1  H24A 6465   0.874   2.100   8.816  1.4319 -2.3182  1.6659
   54CHL1  H24B 6466   0.715   2.008   8.782 -1.3374  0.8911 -0.6160
   54CHL1   C25 6467   0.670   2.198   8.854  0.2051  0.1305 -0.3457
   54CHL1   H25 6468   0.584   2.165   8.917  0.5128  2.0475  1.1709
   54CHL1   C26 6469   0.731   2.314   8.925 -0.0127 -0.4136  0.0119
   54CHL1  H26A 6470   0.652   2.388   8.950 -0.2334 -1.1606  1.6251
   54CHL1  H26B 6471   0.772   2.289   9.025  0.0292  1.1596  0.4158
   54CHL1  H26C 6472   0.816   2.356   8.867  1.2266 -2.5192  0.1788
   54CHL1   C27 6473   0.609   2.220   8.718 -0.4115 -0.0112  0.3189
   54CHL1  H27A 6474   0.566   2.125   8.680 -0.8278 -0.9390  2.9182
   54CHL1  H27B 6475   0.535   2.303   8.720  1.8008  2.1011 -0.4164
   54CHL1  H27C 6476   0.676   2.257   8.637 -1.4352  1.9866  0.3099
   55CHL1    C3 6477   6.636   6.557  10.191  0.4092  0.7678  0.0536
   55CHL1    H3 6478   6.545   6.593  10.138  0.5124 -0.1752 -0.7836
   55CHL1    O3 6479   6.602   6.558  10.325  0.4178  0.1426  0.0720
   55CHL1   H3' 6480   6.558   6.474  10.338 -2.2140  1.3008 -0.6029
   55CHL1    C4 6481   6.666   6.417  10.145 -0.1000  0.2531 -0.3194
   55CHL1   H4A 6482   6.740   6.370  10.213 -0.8998  1.6116  1.5547
   55CHL1   H4B 6483   6.584   6.346  10.168  0.4090 -0.3811 -0.4097
   55CHL1    C5 6484   6.700   6.407  10.002 -0.1805  0.3441  0.6133
   55CHL1    C6 6485   6.639   6.325   9.916  0.3224  0.3690  0.1996
   55CHL1    H6 6486   6.563   6.253   9.950  0.0726  1.2890  1.6887
   55CHL1    C7 6487   6.683   6.300   9.770 -0.1727  0.3687 -0.5235
   55CHL1   H7A 6488   6.715   6.195   9.752 -1.1731  0.0976 -0.7822
   55CHL1   H7B 6489   6.603   6.329   9.699 -1.6191  0.5065  1.0867
   55CHL1    C8 6490   6.812   6.372   9.736 -0.6586 -0.1188 -0.6225
   55CHL1    H8 6491   6.897   6.312   9.775 -0.8828  0.6009  1.0608
   55CHL1   C14 6492   6.828   6.387   9.584 -0.3708 -0.5121  0.0185
   55CHL1   H14 6493   6.744   6.453   9.552  0.1321 -0.6307 -1.6043
   55CHL1   C15 6494   6.825   6.264   9.496  0.0419 -0.4349 -0.2815
   55CHL1  H15A 6495   6.898   6.195   9.544  1.3032  1.1084  0.1028
   55CHL1  H15B 6496   6.722   6.225   9.482  0.1058 -1.6971  2.1788
   55CHL1   C16 6497   6.895   6.296   9.366 -1.0396 -0.5133  0.4353
   55CHL1  H16A 6498   6.981   6.229   9.350 -0.0680  0.5785  0.9284
   55CHL1  H16B 6499   6.836   6.284   9.273  1.1594 -2.0113 -0.8448
   55CHL1   C17 6500   6.934   6.449   9.385  0.7006 -0.5731 -0.0059
   55CHL1   H17 6501   6.842   6.504   9.356 -1.0909 -3.7743 -0.8927
   55CHL1   C13 6502   6.949   6.462   9.538 -0.5685  0.4749 -0.3461
   55CHL1   C18 6503   7.084   6.400   9.582  0.1869 -0.1620  0.0824
   55CHL1  H18A 6504   7.080   6.356   9.683 -2.3593  0.1526  0.1827
   55CHL1  H18B 6505   7.114   6.320   9.510  2.0395  0.6048 -0.0681
   55CHL1  H18C 6506   7.156   6.485   9.578  0.3821 -0.3629 -1.0040
   55CHL1   C12 6507   6.941   6.605   9.600 -0.4260  0.0547  0.5125
   55CHL1  H12A 6508   7.029   6.669   9.577 -0.8575  0.7320  0.7318
   55CHL1  H12B 6509   6.848   6.642   9.552 -0.3126  0.4369  0.5918
   55CHL1   C11 6510   6.926   6.603   9.753 -0.6251 -0.3312  1.0357
   55CHL1  H11A 6511   7.027   6.575   9.790 -1.0857 -2.3854  0.8736
   55CHL1  H11B 6512   6.899   6.706   9.784  2.2752  1.1830 -0.9769
   55CHL1    C9 6513   6.812   6.509   9.799 -0.0190  0.1572  0.3676
   55CHL1    H9 6514   6.719   6.561   9.768 -0.1204  0.5285  1.2500
   55CHL1   C10 6515   6.810   6.505   9.952  0.0818  0.0598 -0.3341
   55CHL1   C19 6516   6.937   6.452  10.013 -0.7797 -0.1548 -0.3584
   55CHL1  H19A 6517   6.962   6.347   9.988  0.1553  0.2528 -1.2084
   55CHL1  H19B 6518   7.024   6.518   9.996 -0.4648 -0.2374  0.8615
   55CHL1  H19C 6519   6.932   6.450  10.124 -0.6373  1.2750 -0.3031
   55CHL1    C1 6520   6.785   6.646  10.007 -0.2927 -0.4464 -0.3797
   55CHL1   H1A 6521   6.885   6.695  10.001 -0.5613  0.2563  0.6411
   55CHL1   H1B 6522   6.707   6.701   9.951  1.9633  3.2783 -0.1836
   55CHL1    C2 6523   6.753   6.652  10.158 -0.7648 -0.6332  0.6967
   55CHL1   H2A 6524   6.716   6.752  10.192 -2.4873 -0.9947  0.0125
   55CHL1   H2B 6525   6.845   6.623  10.212 -0.9116 -2.0803  0.2052
   55CHL1   C20 6526   7.046   6.489   9.285 -0.9788 -0.3679 -0.4587
   55CHL1   H20 6527   7.122   6.412   9.310 -2.0739 -1.4557 -0.3567
   55CHL1   C21 6528   7.106   6.626   9.302  0.4289  0.4514  0.2528
   55CHL1  H21A 6529   7.028   6.703   9.281  1.6989  1.7625  0.1425
   55CHL1  H21B 6530   7.193   6.642   9.235  0.5205 -0.7512  0.0672
   55CHL1  H21C 6531   7.134   6.651   9.407 -0.5563  0.0501  0.6189
   55CHL1   C22 6532   7.014   6.457   9.135 -0.0595 -0.1804 -0.4340
   55CHL1  H22A 6533   6.989   6.349   9.131  0.4687 -0.2832 -1.2451
   55CHL1  H22B 6534   6.932   6.518   9.091  0.2265 -0.1145 -0.8836
   55CHL1   C23 6535   7.141   6.460   9.041  0.0961 -0.2027  0.2137
   55CHL1  H23A 6536   7.159   6.568   9.019 -0.7397  0.1308  1.0949
   55CHL1  H23B 6537   7.227   6.416   9.096 -0.7944  0.6632  2.4072
   55CHL1   C24 6538   7.121   6.403   8.896  0.2007 -0.0341 -0.1109
   55CHL1  H24A 6539   7.210   6.424   8.833  0.4396  2.7181  0.9987
   55CHL1  H24B 6540   7.119   6.292   8.901  0.9570 -0.1017 -1.1523
   55CHL1   C25 6541   6.998   6.447   8.815  0.0151 -0.4040 -0.3121
   55CHL1   H25 6542   6.913   6.425   8.883  0.7216 -0.8146  0.4546
   55CHL1   C26 6543   6.993   6.602   8.787  0.0124 -0.1250 -0.7097
   55CHL1  H26A 6544   7.073   6.612   8.711  0.5879  1.2281  0.0520
   55CHL1  H26B 6545   6.892   6.628   8.748 -0.1068 -0.0515 -0.3564
   55CHL1  H26C 6546   7.021   6.659   8.878 -1.5704  0.9145 -0.8245
   55CHL1   C27 6547   6.978   6.384   8.680  0.9958 -0.3242  0.2951
   55CHL1  H27A 6548   6.967   6.274   8.689 -0.3411 -0.1075  1.6085
   55CHL1  H27B 6549   6.890   6.415   8.620  0.0612 -0.5954  1.4904
   55CHL1  H27C 6550   7.066   6.408   8.616  1.6426  0.7312  1.5419
   56CHL1    C3 6551   4.450   5.221  10.317  0.2538  0.0238 -0.3045
   56CHL1    H3 6552   4.342   5.231  10.295  0.3059  0.4008 -0.3800
   56CHL1    O3 6553   4.458   5.257  10.455  0.4101 -0.2880 -0.7592
   56CHL1   H3' 6554   4.547   5.235  10.483 -0.3256 -1.0130  1.2088
   56CHL1    C4 6555   4.503   5.085  10.288  0.2415  0.3713 -0.1985
   56CHL1   H4A 6556   4.608   5.081  10.325 -0.5365  2.2434  2.5332
   56CHL1   H4B 6557   4.451   5.008  10.350  1.7385 -0.4719  0.0735
   56CHL1    C5 6558   4.476   5.045  10.142  0.1008 -0.7776  0.6527
   56CHL1    C6 6559   4.412   4.931  10.104  0.1206  0.1163 -0.3999
   56CHL1    H6 6560   4.364   4.865  10.178 -0.5852 -0.6627 -1.5149
   56CHL1    C7 6561   4.393   4.882   9.963 -0.3488  0.0481  0.0934
   56CHL1   H7A 6562   4.415   4.773   9.961 -1.3032 -0.1748  0.8321
   56CHL1   H7B 6563   4.289   4.897   9.927  0.3852 -0.2533 -2.3082
   56CHL1    C8 6564   4.477   4.969   9.864  0.9282  0.2196  0.6293
   56CHL1    H8 6565   4.580   4.932   9.885  0.7626  0.5392  2.1205
   56CHL1   C14 6566   4.433   4.936   9.726 -0.9212 -0.0171  0.8886
   56CHL1   H14 6567   4.324   4.958   9.719 -0.7444  0.9377  0.9709
   56CHL1   C15 6568   4.451   4.797   9.668 -0.1816 -1.0002  0.0905
   56CHL1  H15A 6569   4.552   4.757   9.691  0.0798  0.2733  1.2944
   56CHL1  H15B 6570   4.376   4.725   9.708 -2.5755  0.6465 -1.1984
   56CHL1   C16 6571   4.441   4.818   9.520 -0.2257  0.3982 -0.1613
   56CHL1  H16A 6572   4.536   4.777   9.478  0.1450  0.3320  0.7290
   56CHL1  H16B 6573   4.369   4.760   9.458  1.1303  0.1039 -1.5444
   56CHL1   C17 6574   4.447   4.972   9.481 -0.1255  0.7185 -0.2828
   56CHL1   H17 6575   4.343   5.005   9.466  0.2179  1.2501 -1.5724
   56CHL1   C13 6576   4.500   5.029   9.618 -0.1648  0.3532  0.0503
   56CHL1   C18 6577   4.655   5.018   9.626  0.2096 -0.1150  0.4069
   56CHL1  H18A 6578   4.706   5.073   9.544  1.6588 -1.9614 -0.0007
   56CHL1  H18B 6579   4.693   5.053   9.724  1.9892 -0.5995 -0.0721
   56CHL1  H18C 6580   4.689   4.913   9.613  0.7222  0.3669 -3.2013
   56CHL1   C12 6581   4.449   5.166   9.646 -0.3886  0.6241  0.6243
   56CHL1  H12A 6582   4.478   5.233   9.562 -1.8167  1.0444  0.4445
   56CHL1  H12B 6583   4.339   5.164   9.635 -0.1294 -1.7402 -2.9788
   56CHL1   C11 6584   4.489   5.219   9.787 -0.4909  0.4381 -1.0210
   56CHL1  H11A 6585   4.597   5.237   9.770  0.3266 -2.6882  0.0846
   56CHL1  H11B 6586   4.427   5.307   9.815  2.4966  1.4804  3.4471
   56CHL1    C9 6587   4.464   5.119   9.906  0.3958  0.3379  1.0127
   56CHL1    H9 6588   4.354   5.123   9.916  0.3007 -0.3185  0.3143
   56CHL1   C10 6589   4.530   5.145  10.047 -0.6009  0.4995  0.2735
   56CHL1   C19 6590   4.687   5.142  10.028 -0.0200  0.2759  0.2283
   56CHL1  H19A 6591   4.727   5.040  10.008  4.0279  2.0091 -1.7894
   56CHL1  H19B 6592   4.722   5.205   9.943 -1.2595  0.0088 -0.5016
   56CHL1  H19C 6593   4.736   5.181  10.120  1.4331 -0.7352 -0.0647
   56CHL1    C1 6594   4.491   5.288  10.087 -0.8232  0.0374  0.1520
   56CHL1   H1A 6595   4.532   5.364  10.017 -5.5110  2.0362 -0.7965
   56CHL1   H1B 6596   4.381   5.298  10.077 -0.6566  1.3838 -0.4849
   56CHL1    C2 6597   4.517   5.327  10.232 -0.1610  0.8179 -0.2834
   56CHL1   H2A 6598   4.476   5.427  10.257 -0.9887  0.3298  0.3870
   56CHL1   H2B 6599   4.625   5.324  10.258 -0.0935  1.4099 -0.4752
   56CHL1   C20 6600   4.525   5.000   9.355  0.2091 -0.7841 -0.2715
   56CHL1   H20 6601   4.629   4.964   9.366  0.5050  0.2808  0.5234
   56CHL1   C21 6602   4.533   5.150   9.330 -0.5316  0.2123 -0.2942
   56CHL1  H21A 6603   4.576   5.179   9.232 -0.9504 -0.6305 -0.7450
   56CHL1  H21B 6604   4.593   5.184   9.417 -2.3598 -2.3530  2.1212
   56CHL1  H21C 6605   4.428   5.185   9.329 -0.7217 -0.1196 -3.3141
   56CHL1   C22 6606   4.458   4.935   9.238 -0.4206 -0.2038 -0.4988
   56CHL1  H22A 6607   4.428   4.832   9.266  2.3871 -1.0930 -0.4283
   56CHL1  H22B 6608   4.370   4.994   9.203  1.1662  1.6770 -1.5001
   56CHL1   C23 6609   4.543   4.904   9.111  0.9069  0.0817  0.1339
   56CHL1  H23A 6610   4.577   4.999   9.064  1.6811 -0.1054  0.3071
   56CHL1  H23B 6611   4.640   4.857   9.139 -0.2079 -1.9417  0.7616
   56CHL1   C24 6612   4.485   4.801   9.014  0.1945  0.4632  0.2001
   56CHL1  H24A 6613   4.489   4.704   9.067  0.4266 -0.0808 -0.7905
   56CHL1  H24B 6614   4.380   4.832   8.993  1.1621  2.2180 -2.5958
   56CHL1   C25 6615   4.540   4.791   8.878 -0.1561 -0.4263  0.2745
   56CHL1   H25 6616   4.561   4.896   8.848 -4.8475  0.3605 -1.1109
   56CHL1   C26 6617   4.658   4.694   8.863  0.2807  0.0467  0.2788
   56CHL1  H26A 6618   4.751   4.713   8.921  1.7658 -0.4872 -1.8092
   56CHL1  H26B 6619   4.631   4.588   8.880 -0.6152 -0.0311 -1.4918
   56CHL1  H26C 6620   4.681   4.695   8.754 -1.8098  2.5174 -0.2366
   56CHL1   C27 6621   4.422   4.761   8.777 -0.7021  0.1425 -0.5154
   56CHL1  H27A 6622   4.371   4.669   8.812  1.3407 -0.0210  2.3410
   56CHL1  H27B 6623   4.353   4.848   8.784  0.8117  1.2635  1.4921
   56CHL1  H27C 6624   4.454   4.753   8.671 -2.4271  1.9572 -1.2434
   57CHL1    C3 6625   1.252   2.229   9.990  0.4311  0.0891  0.4895
   57CHL1    H3 6626   1.290   2.333   9.978 -2.9943  1.4507  0.0473
   57CHL1    O3 6627   1.231   2.189  10.126 -0.0575  0.2726 -0.5941
   57CHL1   H3' 6628   1.317   2.155  10.149 -1.1049 -1.9480  0.3770
   57CHL1    C4 6629   1.112   2.220   9.921 -0.5911 -0.1023  0.3586
   57CHL1   H4A 6630   1.075   2.116   9.932  1.5334 -1.1216 -1.4696
   57CHL1   H4B 6631   1.045   2.291   9.974 -1.0860 -0.9591  0.9060
   57CHL1    C5 6632   1.118   2.239   9.774  0.2523  0.1533  0.8299
   57CHL1    C6 6633   1.051   2.335   9.711 -0.0240 -0.1161  0.2553
   57CHL1    H6 6634   0.991   2.394   9.782 -0.6199 -0.5774  0.1426
   57CHL1    C7 6635   1.043   2.360   9.565 -0.2046 -0.3740 -0.5738
   57CHL1   H7A 6636   0.942   2.379   9.524  0.7028  1.8503 -1.9649
   57CHL1   H7B 6637   1.102   2.450   9.536 -0.8684 -0.8073 -3.5705
   57CHL1    C8 6638   1.111   2.248   9.488 -0.2240 -0.3825  0.7250
   57CHL1    H8 6639   1.039   2.163   9.490 -0.0421 -0.5630  0.0866
   57CHL1   C14 6640   1.133   2.291   9.339  0.1857 -0.3467 -0.4115
   57CHL1   H14 6641   1.206   2.374   9.336  0.5395 -0.6018  0.6484
   57CHL1   C15 6642   1.009   2.345   9.261 -1.0925  0.1260  0.1989
   57CHL1  H15A 6643   0.917   2.282   9.260  0.0638 -1.6290  0.6023
   57CHL1  H15B 6644   0.984   2.449   9.292 -2.1998 -0.4405  1.2616
   57CHL1   C16 6645   1.063   2.346   9.117 -0.2631  0.0357 -0.3210
   57CHL1  H16A 6646   0.991   2.296   9.049 -1.4578  0.0477  0.8978
   57CHL1  H16B 6647   1.076   2.451   9.081  2.5991  0.1638  0.8415
   57CHL1   C17 6648   1.199   2.261   9.109  0.2040 -0.6461  0.3176
   57CHL1   H17 6649   1.273   2.344   9.102 -0.5889  0.0933  0.6344
   57CHL1   C13 6650   1.200   2.188   9.243  0.2063  0.7084  0.4400
   57CHL1   C18 6651   1.106   2.059   9.231  0.3086 -0.5042 -0.4740
   57CHL1  H18A 6652   1.154   1.979   9.171 -2.2434 -2.2444 -0.3352
   57CHL1  H18B 6653   1.087   2.020   9.334  2.4956 -1.7052 -0.4776
   57CHL1  H18C 6654   1.011   2.078   9.177 -0.8425 -0.2704  1.5179
   57CHL1   C12 6655   1.335   2.160   9.309 -0.4771  0.0607 -0.4252
   57CHL1  H12A 6656   1.390   2.089   9.243  0.8718  1.0131 -0.3698
   57CHL1  H12B 6657   1.404   2.246   9.320  1.7229 -1.7908  1.4859
   57CHL1   C11 6658   1.322   2.099   9.455 -0.9347 -0.2476  0.8481
   57CHL1  H11A 6659   1.290   1.992   9.452  1.0048 -0.8994 -2.2612
   57CHL1  H11B 6660   1.430   2.086   9.480 -0.9391 -2.7051 -0.0370
   57CHL1    C9 6661   1.239   2.193   9.550 -0.2889 -0.2291  0.7649
   57CHL1    H9 6662   1.309   2.280   9.550 -1.5424  0.8266 -0.6965
   57CHL1   C10 6663   1.217   2.148   9.696  0.0627  0.0989 -0.4817
   57CHL1   C19 6664   1.160   2.008   9.698 -0.0922 -0.8965 -0.6017
   57CHL1  H19A 6665   1.140   1.963   9.798 -1.7195 -1.5952 -1.1943
   57CHL1  H19B 6666   1.067   2.004   9.637  0.0933 -0.4288 -0.9199
   57CHL1  H19C 6667   1.232   1.938   9.651  0.9462 -0.7746  0.7531
   57CHL1    C1 6668   1.353   2.148   9.768 -0.3303  0.4471 -0.5600
   57CHL1   H1A 6669   1.416   2.076   9.712 -1.5507  0.0140 -1.4201
   57CHL1   H1B 6670   1.389   2.252   9.755  0.1708  0.1625 -1.5147
   57CHL1    C2 6671   1.338   2.125   9.916 -0.1243  0.0209 -1.0339
   57CHL1   H2A 6672   1.437   2.132   9.966 -0.6692  0.6354 -0.0154
   57CHL1   H2B 6673   1.297   2.024   9.936  0.3373  0.1247  0.5650
   57CHL1   C20 6674   1.203   2.180   8.969  0.3761 -0.1367 -0.8413
   57CHL1   H20 6675   1.133   2.093   8.971  0.3265 -0.0820  0.6947
   57CHL1   C21 6676   1.339   2.110   8.956 -0.0316 -1.0486  0.2587
   57CHL1  H21A 6677   1.348   2.066   8.855 -1.2001  0.9236 -0.7539
   57CHL1  H21B 6678   1.361   2.040   9.040  2.3189  1.8288  2.2538
   57CHL1  H21C 6679   1.415   2.191   8.956 -0.9934 -0.0703  2.4199
   57CHL1   C22 6680   1.169   2.260   8.849  0.8476 -0.1587  0.3153
   57CHL1  H22A 6681   1.066   2.298   8.860  0.3010 -0.7796 -2.1180
   57CHL1  H22B 6682   1.234   2.349   8.835 -1.6369  1.6681 -0.2699
   57CHL1   C23 6683   1.164   2.168   8.724  0.8182  0.0256 -0.0387
   57CHL1  H23A 6684   1.264   2.132   8.691  1.9285  0.8729  2.1650
   57CHL1  H23B 6685   1.094   2.085   8.749 -2.5083  2.5404 -0.2880
   57CHL1   C24 6686   1.096   2.232   8.601  0.7711  0.2241 -0.3092
   57CHL1  H24A 6687   0.993   2.264   8.630  0.6971 -0.3342  0.0656
   57CHL1  H24B 6688   1.158   2.320   8.576  0.7747  0.5447  0.7600
   57CHL1   C25 6689   1.088   2.153   8.464 -0.6866  0.0987  0.0908
   57CHL1   H25 6690   1.034   2.058   8.485  0.3956 -0.3929  0.7114
   57CHL1   C26 6691   1.000   2.227   8.367  0.1247 -0.2390 -1.2523
   57CHL1  H26A 6692   1.023   2.334   8.349  0.3185 -0.4337 -2.2337
   57CHL1  H26B 6693   1.019   2.190   8.264  0.8831 -0.9140 -0.8779
   57CHL1  H26C 6694   0.894   2.205   8.390  0.3522  0.8484  1.1818
   57CHL1   C27 6695   1.232   2.115   8.412 -0.2325  0.1911  0.1796
   57CHL1  H27A 6696   1.286   2.208   8.386  0.3199  0.9825  3.7213
   57CHL1  H27B 6697   1.285   2.050   8.485 -0.3250  1.2607  1.2267
   57CHL1  H27C 6698   1.225   2.053   8.320 -3.8063  0.4519  0.1532
   58CHL1    C3 6699   3.275   0.678  10.337 -0.2145  0.1266  0.1507
   58CHL1    H3 6700   3.348   0.754  10.302  0.0264  0.4206  1.2367
   58CHL1    O3 6701   3.261   0.707  10.479 -0.2714  0.3653 -0.0278
   58CHL1   H3' 6702   3.269   0.623  10.525  1.8621  0.8191  0.5357
   58CHL1    C4 6703   3.135   0.689  10.272  0.6003  0.2755 -0.2754
   58CHL1   H4A 6704   3.074   0.614  10.326  0.1746  0.3422 -0.6556
   58CHL1   H4B 6705   3.093   0.789  10.296  1.5582  0.6768 -0.2320
   58CHL1    C5 6706   3.144   0.653  10.125 -0.6873 -0.2584 -0.3010
   58CHL1    C6 6707   3.101   0.738  10.033  0.4390 -0.2602 -0.2833
   58CHL1    H6 6708   3.044   0.822  10.076 -1.4762 -2.4567  1.7311
   58CHL1    C7 6709   3.101   0.710   9.889  0.6745  0.2117  0.3210
   58CHL1   H7A 6710   3.003   0.732   9.842  0.4570  0.8071  1.0417
   58CHL1   H7B 6711   3.170   0.779   9.836  0.1766  0.9653  0.6404
   58CHL1    C8 6712   3.130   0.563   9.848 -0.1032  0.0443 -0.4296
   58CHL1    H8 6713   3.036   0.505   9.862  0.2983 -0.8464 -1.3845
   58CHL1   C14 6714   3.171   0.544   9.701 -0.0472 -0.1239  0.2394
   58CHL1   H14 6715   3.267   0.596   9.681 -0.2431 -0.5979 -2.2792
   58CHL1   C15 6716   3.064   0.603   9.597 -0.1582 -0.5370  1.1242
   58CHL1  H15A 6717   2.961   0.588   9.638 -0.7524  1.3669  0.4411
   58CHL1  H15B 6718   3.081   0.709   9.568 -1.6090 -1.2835 -3.2069
   58CHL1   C16 6719   3.109   0.529   9.473  0.9520  0.3158  0.6889
   58CHL1  H16A 6720   3.011   0.496   9.434  0.8611  2.3238 -0.9833
   58CHL1  H16B 6721   3.150   0.593   9.391  0.2059 -0.9586 -0.7282
   58CHL1   C17 6722   3.207   0.418   9.509  0.4347  0.9878 -0.3539
   58CHL1   H17 6723   3.305   0.470   9.503  0.2273  1.4248  0.0074
   58CHL1   C13 6724   3.196   0.399   9.660  0.5241 -1.1048  0.4507
   58CHL1   C18 6725   3.069   0.312   9.685  0.2739 -0.7272 -0.5009
   58CHL1  H18A 6726   3.029   0.312   9.789  1.4665 -0.5365 -0.0282
   58CHL1  H18B 6727   2.991   0.352   9.617  0.7496 -1.8079 -1.7295
   58CHL1  H18C 6728   3.092   0.206   9.660 -0.4552 -0.8335 -0.7427
   58CHL1   C12 6729   3.314   0.349   9.742 -0.2263 -0.3033 -0.1220
   58CHL1  H12A 6730   3.344   0.245   9.718  3.6242  0.8633 -1.1612
   58CHL1  H12B 6731   3.400   0.406   9.699 -0.4602 -0.9532 -1.5071
   58CHL1   C11 6732   3.284   0.361   9.892  0.9709  0.0734  0.3354
   58CHL1  H11A 6733   3.204   0.287   9.913  0.7902 -0.0298 -0.6871
   58CHL1  H11B 6734   3.369   0.327   9.955 -0.5219 -1.2328  1.7420
   58CHL1    C9 6735   3.241   0.507   9.937  0.1449 -0.5058 -0.2016
   58CHL1    H9 6736   3.327   0.575   9.919 -0.0819  0.0381  0.7390
   58CHL1   C10 6737   3.216   0.523  10.086  0.2865  0.2506 -1.0411
   58CHL1   C19 6738   3.124   0.402  10.129  0.0994  0.3879 -0.9959
   58CHL1  H19A 6739   3.189   0.312  10.134  0.9904  1.0524  2.8175
   58CHL1  H19B 6740   3.087   0.403  10.234  3.1981 -4.0785  0.4530
   58CHL1  H19C 6741   3.032   0.389  10.069 -1.1469 -0.1428  0.9453
   58CHL1    C1 6742   3.349   0.515  10.168  0.0815  0.0316 -0.1356
   58CHL1   H1A 6743   3.405   0.421  10.151  1.5606  0.2788  2.7422
   58CHL1   H1B 6744   3.406   0.600  10.125 -0.5168  1.1102  1.1157
   58CHL1    C2 6745   3.326   0.535  10.319 -0.0263 -0.1539  0.3884
   58CHL1   H2A 6746   3.418   0.529  10.380 -1.5387 -1.1206  2.7083
   58CHL1   H2B 6747   3.266   0.456  10.368  1.7716 -1.0619  1.1725
   58CHL1   C20 6748   3.202   0.305   9.411  0.3064 -0.1771 -0.0196
   58CHL1   H20 6749   3.111   0.243   9.425  0.4382 -0.3971 -0.1269
   58CHL1   C21 6750   3.311   0.210   9.436 -0.7314 -0.0257  0.1852
   58CHL1  H21A 6751   3.410   0.251   9.467 -0.6466  0.1427 -0.3018
   58CHL1  H21B 6752   3.332   0.145   9.348  2.3335  0.4540  0.4220
   58CHL1  H21C 6753   3.270   0.146   9.517  0.1883  0.3872  0.9965
   58CHL1   C22 6754   3.208   0.352   9.258  0.6252  0.0794 -0.2149
   58CHL1  H22A 6755   3.252   0.452   9.242 -1.1844  0.8228 -0.7189
   58CHL1  H22B 6756   3.263   0.277   9.197  0.1915  0.8241 -1.5664
   58CHL1   C23 6757   3.071   0.354   9.186 -0.1003  0.1508  0.3120
   58CHL1  H23A 6758   3.045   0.249   9.161  2.1151 -0.6587  1.1767
   58CHL1  H23B 6759   2.995   0.383   9.263 -0.2158  2.0048 -0.4524
   58CHL1   C24 6760   3.063   0.439   9.054  0.1731 -0.9582 -0.6643
   58CHL1  H24A 6761   2.954   0.452   9.033 -0.3415 -0.2905  1.9944
   58CHL1  H24B 6762   3.109   0.538   9.076 -0.4893 -0.7519 -0.1623
   58CHL1   C25 6763   3.139   0.377   8.938 -0.3369  0.2609 -0.0557
   58CHL1   H25 6764   3.241   0.347   8.967 -1.4279 -1.5309  2.2116
   58CHL1   C26 6765   3.069   0.251   8.884  0.3885  0.1065 -0.2341
   58CHL1  H26A 6766   3.139   0.187   8.826 -1.0549 -2.8919  1.0638
   58CHL1  H26B 6767   3.029   0.200   8.975  0.7136  2.7027  1.4773
   58CHL1  H26C 6768   2.981   0.270   8.818  1.3224  2.2790 -0.9191
   58CHL1   C27 6769   3.150   0.474   8.817 -0.1098  1.2685  0.4231
   58CHL1  H27A 6770   3.227   0.428   8.751 -0.7969  1.3429 -0.4283
   58CHL1  H27B 6771   3.053   0.483   8.765  0.9416  0.5783 -1.7944
   58CHL1  H27C 6772   3.180   0.580   8.826 -0.7483  1.3802  1.3515
   59CHL1    C3 6773   3.185   6.207  10.584 -0.5066 -0.3210  0.1464
   59CHL1    H3 6774   3.273   6.275  10.575  0.3002 -1.4287 -0.6374
   59CHL1    O3 6775   3.154   6.180  10.722  0.1326  0.0555 -0.4021
   59CHL1   H3' 6776   3.098   6.250  10.755 -2.2444 -2.3007  0.8821
   59CHL1    C4 6777   3.066   6.262  10.505  0.4789  0.2589  0.1203
   59CHL1   H4A 6778   2.988   6.190  10.540  0.2751  0.1096 -0.6348
   59CHL1   H4B 6779   3.031   6.358  10.550 -2.1578 -0.5730  0.0458
   59CHL1    C5 6780   3.074   6.278  10.358 -0.2941  0.2126  0.1308
   59CHL1    C6 6781   3.052   6.391  10.288  0.3575 -0.0591  0.0163
   59CHL1    H6 6782   3.029   6.489  10.334  2.1456  0.8612 -0.9098
   59CHL1    C7 6783   3.055   6.399  10.136  0.0221 -0.3552  0.3571
   59CHL1   H7A 6784   2.966   6.447  10.091 -0.7793 -2.9822 -1.0432
   59CHL1   H7B 6785   3.145   6.457  10.107 -0.7178 -0.9891 -3.8305
   59CHL1    C8 6786   3.069   6.260  10.065  0.5595  0.3507  0.0074
   59CHL1    H8 6787   2.964   6.224  10.073  0.5306  0.2957 -0.5548
   59CHL1   C14 6788   3.111   6.276   9.919 -0.5347  0.2342 -0.2656
   59CHL1   H14 6789   3.214   6.316   9.929 -0.1704 -0.3318 -1.6012
   59CHL1   C15 6790   3.039   6.375   9.831  0.1136 -0.5991 -0.6628
   59CHL1  H15A 6791   2.931   6.352   9.841  0.0543 -0.5823 -1.2225
   59CHL1  H15B 6792   3.064   6.473   9.876  0.7725 -1.3085  0.5870
   59CHL1   C16 6793   3.090   6.347   9.696  0.1682 -0.2471  0.1909
   59CHL1  H16A 6794   3.014   6.345   9.615  0.7396 -1.3381 -0.3386
   59CHL1  H16B 6795   3.165   6.424   9.671 -0.0388  0.5094  1.7601
   59CHL1   C17 6796   3.159   6.208   9.711  0.0724  0.0711  0.0697
   59CHL1   H17 6797   3.264   6.243   9.716  0.3657 -0.4290 -1.9313
   59CHL1   C13 6798   3.120   6.143   9.849  0.5850 -0.1553 -0.0263
   59CHL1   C18 6799   2.980   6.086   9.836 -0.3558 -0.5507  0.4081
   59CHL1  H18A 6800   2.933   6.052   9.930 -0.1917 -0.6118  0.4692
   59CHL1  H18B 6801   2.909   6.142   9.772 -0.0136  0.3601  0.8093
   59CHL1  H18C 6802   2.995   5.989   9.782  1.1744 -0.5338  0.7421
   59CHL1   C12 6803   3.213   6.046   9.922 -0.0156 -0.4050  0.3741
   59CHL1  H12A 6804   3.194   5.950   9.870  0.5574 -0.5819  0.4824
   59CHL1  H12B 6805   3.322   6.067   9.909 -0.1125 -1.1004 -2.0277
   59CHL1   C11 6806   3.180   6.031  10.070 -0.1766  0.5048  0.5266
   59CHL1  H11A 6807   3.089   5.967  10.067  0.0938  0.0707  1.3761
   59CHL1  H11B 6808   3.254   5.964  10.119 -0.3744  1.9166  2.8855
   59CHL1    C9 6809   3.167   6.163  10.138  0.4656  0.2452 -0.5072
   59CHL1    H9 6810   3.267   6.211  10.129  0.9629 -0.5296  0.5564
   59CHL1   C10 6811   3.122   6.145  10.289 -1.1554  0.6178  0.2659
   59CHL1   C19 6812   3.003   6.046  10.293  0.6239 -0.5699  0.4515
   59CHL1  H19A 6813   3.051   5.946  10.282  1.6224  0.1407 -2.7410
   59CHL1  H19B 6814   2.931   6.052  10.377 -1.6607 -0.1483 -1.4216
   59CHL1  H19C 6815   2.938   6.062  10.204 -0.5467 -0.5496  1.2799
   59CHL1    C1 6816   3.244   6.086  10.366 -0.0620 -0.2263 -0.4971
   59CHL1   H1A 6817   3.275   5.994  10.312 -1.0785 -0.3354 -0.9141
   59CHL1   H1B 6818   3.330   6.152  10.341  1.5908 -2.1481 -0.1099
   59CHL1    C2 6819   3.228   6.076  10.518  0.8875 -0.5042  0.1476
   59CHL1   H2A 6820   3.318   6.031  10.565  0.7144  1.0575  2.1194
   59CHL1   H2B 6821   3.146   6.003  10.532  0.5673  0.0852  1.4608
   59CHL1   C20 6822   3.155   6.127   9.582  0.4950 -0.0407  0.7150
   59CHL1   H20 6823   3.051   6.093   9.562  0.6569 -0.7956  1.1439
   59CHL1   C21 6824   3.228   5.998   9.600 -0.2687  0.1472  0.8869
   59CHL1  H21A 6825   3.277   5.975   9.503  3.7898  0.6252  2.6526
   59CHL1  H21B 6826   3.162   5.916   9.638 -0.0900  0.2937  1.5181
   59CHL1  H21C 6827   3.319   6.013   9.661  0.4925  0.3599 -0.2729
   59CHL1   C22 6828   3.183   6.221   9.455  0.4454 -0.1494 -0.0933
   59CHL1  H22A 6829   3.104   6.297   9.438  0.2899  0.3961  2.6956
   59CHL1  H22B 6830   3.282   6.271   9.467  0.8783 -1.0511  0.1652
   59CHL1   C23 6831   3.194   6.145   9.319 -0.2204  0.1524 -0.7617
   59CHL1  H23A 6832   3.280   6.075   9.320 -0.2724  0.0870 -0.8615
   59CHL1  H23B 6833   3.108   6.078   9.298 -2.0618  2.2608 -0.3406
   59CHL1   C24 6834   3.225   6.239   9.205  0.6657 -0.2649  0.4575
   59CHL1  H24A 6835   3.146   6.316   9.204 -0.7227 -1.5141 -3.1400
   59CHL1  H24B 6836   3.320   6.292   9.228 -0.5843  2.1907  0.2580
   59CHL1   C25 6837   3.210   6.174   9.070 -1.1205  0.0280  0.2504
   59CHL1   H25 6838   3.246   6.070   9.085 -1.7470  0.0516  2.2443
   59CHL1   C26 6839   3.068   6.172   9.010 -0.0663 -0.5024  0.4786
   59CHL1  H26A 6840   3.060   6.274   8.968  0.0309 -0.4593  0.5658
   59CHL1  H26B 6841   3.060   6.095   8.930  1.4942 -0.4225  0.2045
   59CHL1  H26C 6842   2.997   6.155   9.094  0.0850  3.5424  1.6285
   59CHL1   C27 6843   3.301   6.256   8.968  0.4693  0.0498 -0.1617
   59CHL1  H27A 6844   3.312   6.202   8.871  2.0644  0.2524 -0.1341
   59CHL1  H27B 6845   3.265   6.360   8.951  1.1650  0.1866 -0.8705
   59CHL1  H27C 6846   3.407   6.269   9.001  0.4370 -0.8146  0.3143
   60CHL1    C3 6847   4.348   6.522  10.219 -0.1489  0.1585 -0.2436
   60CHL1    H3 6848   4.240   6.521  10.192 -0.1840  0.0629 -0.0981
   60CHL1    O3 6849   4.376   6.557  10.353 -0.1812  0.0706 -0.0918
   60CHL1   H3' 6850   4.450   6.501  10.377 -2.5215 -3.4552 -0.3166
   60CHL1    C4 6851   4.395   6.378  10.186  0.0351  0.1006 -0.0996
   60CHL1   H4A 6852   4.496   6.365  10.230 -0.0939  0.2841  0.2503
   60CHL1   H4B 6853   4.322   6.307  10.230 -1.8537  1.3009 -1.1376
   60CHL1    C5 6854   4.409   6.335  10.035  0.0739 -0.2752 -0.0671
   60CHL1    C6 6855   4.353   6.223   9.982  0.8263 -0.2865  0.3768
   60CHL1    H6 6856   4.306   6.149  10.047 -1.9664  1.5342  0.5809
   60CHL1    C7 6857   4.368   6.191   9.841 -0.9158 -0.6858  0.3131
   60CHL1   H7A 6858   4.424   6.096   9.847  0.1990 -0.0781 -0.0862
   60CHL1   H7B 6859   4.265   6.172   9.802 -1.0303  1.5858 -0.6670
   60CHL1    C8 6860   4.459   6.278   9.752 -0.1503 -0.0475  0.0243
   60CHL1    H8 6861   4.565   6.245   9.760 -0.0326  0.3780  0.2108
   60CHL1   C14 6862   4.414   6.256   9.611  0.7573  0.4979 -0.2858
   60CHL1   H14 6863   4.312   6.298   9.594  1.0510  0.4632 -2.4806
   60CHL1   C15 6864   4.407   6.110   9.566 -0.2649  0.1305  0.1452
   60CHL1  H15A 6865   4.498   6.053   9.593 -1.7310 -1.9335  0.9780
   60CHL1  H15B 6866   4.315   6.067   9.612 -0.9424  1.7904  0.4205
   60CHL1   C16 6867   4.402   6.119   9.414  0.2251 -0.3924 -0.5517
   60CHL1  H16A 6868   4.486   6.065   9.364 -0.0404 -0.0258 -1.4108
   60CHL1  H16B 6869   4.304   6.087   9.373  0.3810 -1.3544 -0.2076
   60CHL1   C17 6870   4.426   6.270   9.382 -0.0628  0.5494  0.8171
   60CHL1   H17 6871   4.325   6.316   9.377 -0.6490 -0.5886  1.6955
   60CHL1   C13 6872   4.493   6.333   9.507  0.4765 -0.4567  0.7800
   60CHL1   C18 6873   4.644   6.294   9.495  0.0853 -0.0480  0.0895
   60CHL1  H18A 6874   4.702   6.379   9.452  0.5527 -0.2617  0.2901
   60CHL1  H18B 6875   4.688   6.274   9.595 -0.6698 -1.5658  0.1427
   60CHL1  H18C 6876   4.654   6.204   9.432  2.3755  0.2257  0.0010
   60CHL1   C12 6877   4.463   6.483   9.545  0.2567  0.1940 -0.4090
   60CHL1  H12A 6878   4.524   6.556   9.487 -0.5561  0.2635 -1.2025
   60CHL1  H12B 6879   4.358   6.520   9.541  0.4658  0.7874 -0.4582
   60CHL1   C11 6880   4.520   6.512   9.687  0.5566  0.3436 -0.5959
   60CHL1  H11A 6881   4.630   6.497   9.685  0.6754  0.9062  0.6347
   60CHL1  H11B 6882   4.492   6.617   9.713 -2.2395 -1.2479  4.2392
   60CHL1    C9 6883   4.449   6.422   9.792 -0.2570 -0.5182 -0.5425
   60CHL1    H9 6884   4.341   6.444   9.783 -0.2447  0.3025  1.0121
   60CHL1   C10 6885   4.475   6.443   9.943 -0.4055 -0.2142  0.8285
   60CHL1   C19 6886   4.628   6.432   9.963  0.3701  0.1074  0.6714
   60CHL1  H19A 6887   4.670   6.336   9.925  0.6622  0.8112 -0.9020
   60CHL1  H19B 6888   4.683   6.514   9.911 -0.2037 -0.1112 -0.3124
   60CHL1  H19C 6889   4.657   6.431  10.070  2.1217 -0.8457  0.2183
   60CHL1    C1 6890   4.431   6.582   9.981  0.7321  1.1741  0.3048
   60CHL1   H1A 6891   4.490   6.661   9.928  0.9863  0.6211 -0.2461
   60CHL1   H1B 6892   4.333   6.583   9.929  1.1295  0.9379 -0.4718
   60CHL1    C2 6893   4.425   6.619  10.131 -0.5340 -0.3563 -0.0521
   60CHL1   H2A 6894   4.384   6.721  10.148 -2.1954 -1.0649  0.3941
   60CHL1   H2B 6895   4.528   6.624  10.172 -1.0598  1.6992  1.1544
   60CHL1   C20 6896   4.483   6.302   9.244 -0.2079 -0.2889  0.1809
   60CHL1   H20 6897   4.585   6.260   9.243 -0.8476 -1.9627 -1.6437
   60CHL1   C21 6898   4.501   6.453   9.224  0.4646  0.1100 -0.3220
   60CHL1  H21A 6899   4.548   6.485   9.129 -1.6966  2.7725 -0.6264
   60CHL1  H21B 6900   4.570   6.491   9.302 -0.0579 -2.0928  1.3421
   60CHL1  H21C 6901   4.399   6.497   9.232 -0.3651 -1.8877  1.2721
   60CHL1   C22 6902   4.406   6.238   9.125 -1.0487  0.2307  0.0118
   60CHL1  H22A 6903   4.372   6.140   9.165  2.2120 -0.7915  0.6308
   60CHL1  H22B 6904   4.313   6.295   9.110 -0.6855  0.9971  0.6031
   60CHL1   C23 6905   4.490   6.212   8.998 -0.3215 -0.3252  0.1419
   60CHL1  H23A 6906   4.571   6.288   8.999  0.6543 -1.2955 -1.4663
   60CHL1  H23B 6907   4.557   6.123   9.002 -0.5428 -0.5594 -0.9391
   60CHL1   C24 6908   4.402   6.201   8.879 -0.3218 -0.7623 -0.6565
   60CHL1  H24A 6909   4.336   6.112   8.883  0.4441 -1.3292 -0.2065
   60CHL1  H24B 6910   4.341   6.294   8.877  2.0294  0.8674 -0.9554
   60CHL1   C25 6911   4.472   6.208   8.745 -0.1167  0.2080  0.4691
   60CHL1   H25 6912   4.536   6.299   8.747 -0.0583  0.2549 -1.4425
   60CHL1   C26 6913   4.557   6.084   8.716  0.1152 -0.5208 -0.3210
   60CHL1  H26A 6914   4.633   6.096   8.637  0.3233  2.1134  0.2012
   60CHL1  H26B 6915   4.604   6.063   8.815 -0.4504 -1.1328 -0.1693
   60CHL1  H26C 6916   4.484   6.002   8.699 -2.0249  1.0151  0.8970
   60CHL1   C27 6917   4.359   6.218   8.651 -0.2990 -0.0440  0.6704
   60CHL1  H27A 6918   4.295   6.309   8.657  0.9823  0.9904 -0.5877
   60CHL1  H27B 6919   4.398   6.232   8.547  2.3500  0.0130  1.5961
   60CHL1  H27C 6920   4.296   6.128   8.642  0.6709 -0.5573 -1.8601
   61CHL1    C3 6921   6.405   3.299  10.363  0.4705  0.0296 -0.5684
   61CHL1    H3 6922   6.310   3.279  10.309 -0.4413 -2.3096  1.6968
   61CHL1    O3 6923   6.387   3.290  10.507 -0.6142 -0.1022 -0.2385
   61CHL1   H3' 6924   6.476   3.308  10.538 -0.6789 -0.0066 -0.1062
   61CHL1    C4 6925   6.502   3.195  10.320  0.0128 -0.0382  0.0493
   61CHL1   H4A 6926   6.603   3.206  10.365 -0.7207 -0.7270  1.9857
   61CHL1   H4B 6927   6.456   3.101  10.358  0.2714 -0.7085 -1.2462
   61CHL1    C5 6928   6.526   3.197  10.168  1.2811 -0.4490  0.1579
   61CHL1    C6 6929   6.498   3.094  10.091  0.8228 -0.2182 -0.1315
   61CHL1    H6 6930   6.458   3.004  10.140 -0.0568 -0.2928 -0.9618
   61CHL1    C7 6931   6.516   3.098   9.943  0.6630 -0.6409 -0.6154
   61CHL1   H7A 6932   6.557   3.005   9.900  3.4266  0.2186 -0.1013
   61CHL1   H7B 6933   6.411   3.116   9.911  1.6261  0.0021 -3.6810
   61CHL1    C8 6934   6.607   3.213   9.892 -0.1928  0.9614 -0.7405
   61CHL1    H8 6935   6.713   3.195   9.920 -0.3997  0.4093 -0.2871
   61CHL1   C14 6936   6.599   3.239   9.741  0.7749 -0.0561 -0.6268
   61CHL1   H14 6937   6.497   3.283   9.736  1.7500  2.8863  1.9138
   61CHL1   C15 6938   6.604   3.113   9.650 -0.8268 -0.1349  0.3112
   61CHL1  H15A 6939   6.697   3.056   9.671  0.3488  1.7586  0.5450
   61CHL1  H15B 6940   6.509   3.057   9.661 -0.4375 -0.3763  2.8882
   61CHL1   C16 6941   6.621   3.177   9.513 -0.0302 -0.5630  0.8161
   61CHL1  H16A 6942   6.719   3.139   9.479 -0.0278 -0.6311  0.8982
   61CHL1  H16B 6943   6.534   3.148   9.451  0.6062 -2.1711  0.6395
   61CHL1   C17 6944   6.647   3.331   9.536 -0.1596 -0.4192  0.0291
   61CHL1   H17 6945   6.545   3.377   9.535 -1.3007 -2.8281 -0.0562
   61CHL1   C13 6946   6.688   3.345   9.682 -0.0244  0.2566 -0.2322
   61CHL1   C18 6947   6.835   3.302   9.694 -0.3718 -0.0310 -0.0507
   61CHL1  H18A 6948   6.858   3.213   9.630  0.0308  1.2251 -1.7264
   61CHL1  H18B 6949   6.890   3.391   9.658  0.0516 -0.7863 -1.3842
   61CHL1  H18C 6950   6.871   3.281   9.797 -0.4907 -3.1752 -0.5249
   61CHL1   C12 6951   6.661   3.480   9.749  0.1953 -0.3264  0.0697
   61CHL1  H12A 6952   6.730   3.563   9.722  1.2496 -1.4891 -0.9456
   61CHL1  H12B 6953   6.567   3.532   9.725  0.2086 -0.5660 -0.5107
   61CHL1   C11 6954   6.661   3.459   9.898  0.3101 -0.4698  0.8189
   61CHL1  H11A 6955   6.768   3.449   9.923  0.2696  0.6874  1.4971
   61CHL1  H11B 6956   6.646   3.562   9.935  1.8519 -0.3279  1.0916
   61CHL1    C9 6957   6.579   3.348   9.965  0.5312 -0.1125  0.3793
   61CHL1    H9 6958   6.471   3.363   9.943  0.5555 -0.3765  0.0760
   61CHL1   C10 6959   6.583   3.336  10.120 -0.0776  0.2562 -0.5841
   61CHL1   C19 6960   6.724   3.360  10.167  0.3232  0.2705 -0.2512
   61CHL1  H19A 6961   6.771   3.456  10.138  0.2755  0.0168 -1.2048
   61CHL1  H19B 6962   6.732   3.350  10.277  0.8473 -1.5171 -0.4213
   61CHL1  H19C 6963   6.791   3.283  10.123  0.2475  0.2283 -0.2934
   61CHL1    C1 6964   6.490   3.445  10.183  0.8301  0.6885  0.0539
   61CHL1   H1A 6965   6.531   3.546  10.163 -1.2825  1.4261 -0.8449
   61CHL1   H1B 6966   6.391   3.433  10.135  1.2702  2.0832 -1.3219
   61CHL1    C2 6967   6.458   3.438  10.334 -0.0369  0.4155  0.7853
   61CHL1   H2A 6968   6.380   3.512  10.361 -0.2572  1.0904 -1.5086
   61CHL1   H2B 6969   6.551   3.452  10.392  0.2541  0.6749  0.2582
   61CHL1   C20 6970   6.725   3.387   9.411  0.0188 -0.2448  0.0037
   61CHL1   H20 6971   6.822   3.334   9.406 -0.1931 -0.5195 -1.7785
   61CHL1   C21 6972   6.750   3.536   9.436  0.0243 -0.3566  0.2852
   61CHL1  H21A 6973   6.803   3.550   9.532 -1.5955  0.0237  1.1720
   61CHL1  H21B 6974   6.655   3.595   9.433 -0.1447 -0.6617 -0.8784
   61CHL1  H21C 6975   6.821   3.588   9.367  1.9843 -1.2415  1.5763
   61CHL1   C22 6976   6.654   3.369   9.275 -0.5612 -0.3173  0.2427
   61CHL1  H22A 6977   6.610   3.267   9.271 -1.1500 -0.0693  0.3602
   61CHL1  H22B 6978   6.572   3.443   9.268  0.4236  1.1210  2.6387
   61CHL1   C23 6979   6.747   3.383   9.153 -0.3543  0.5590 -0.8460
   61CHL1  H23A 6980   6.785   3.487   9.148  1.7018 -0.1695 -1.4885
   61CHL1  H23B 6981   6.838   3.318   9.150  0.2012  1.2716  0.0812
   61CHL1   C24 6982   6.673   3.346   9.033  0.4762  0.3481 -0.0496
   61CHL1  H24A 6983   6.630   3.245   9.048 -1.2305  1.3991  3.2012
   61CHL1  H24B 6984   6.594   3.420   9.010  1.0532  1.0349  0.1136
   61CHL1   C25 6985   6.763   3.341   8.907  0.4450 -0.3776  0.1615
   61CHL1   H25 6986   6.822   3.249   8.931  0.7310  0.3184  2.4171
   61CHL1   C26 6987   6.688   3.314   8.783  0.0742 -0.0764  0.0116
   61CHL1  H26A 6988   6.608   3.391   8.777 -0.5148 -0.2176  3.6248
   61CHL1  H26B 6989   6.753   3.313   8.693  0.9039  2.4213  0.5117
   61CHL1  H26C 6990   6.638   3.215   8.791 -1.7418  0.4890 -2.8441
   61CHL1   C27 6991   6.853   3.464   8.890  0.0233 -0.0023 -0.0280
   61CHL1  H27A 6992   6.909   3.454   8.795  0.4806 -2.0994  0.4076
   61CHL1  H27B 6993   6.787   3.553   8.897  1.9205  1.4001  0.5920
   61CHL1  H27C 6994   6.917   3.486   8.978  1.2552  1.5374 -1.2406
   62CHL1    C3 6995   6.307   0.118   9.967  0.8165 -0.4584  0.7367
   62CHL1    H3 6996   6.259   0.018   9.953  1.4004 -0.4333 -1.9724
   62CHL1    O3 6997   6.304   0.162  10.100 -0.0013  0.3295 -0.3389
   62CHL1   H3' 6998   6.213   0.170  10.130  0.1200 -0.8191  0.4234
   62CHL1    C4 6999   6.448   0.105   9.916 -0.1325  0.4625  0.2286
   62CHL1   H4A 7000   6.499   0.203   9.933 -1.6570  1.4058 -0.3622
   62CHL1   H4B 7001   6.496   0.029   9.980  1.4652  0.2087 -1.1913
   62CHL1    C5 7002   6.447   0.067   9.771 -0.0231 -0.2845  0.0220
   62CHL1    C6 7003   6.515  -0.042   9.740 -0.2233 -0.3804 -0.9283
   62CHL1    H6 7004   6.564  -0.095   9.823 -0.7967  1.3431  0.5842
   62CHL1    C7 7005   6.532  -0.091   9.598  0.3294 -0.5463 -0.7452
   62CHL1   H7A 7006   6.637  -0.120   9.579  0.1270  0.1235 -3.2443
   62CHL1   H7B 7007   6.471  -0.182   9.584  2.5337 -1.9062 -1.9194
   62CHL1    C8 7008   6.495   0.024   9.498 -0.3944  0.4429  0.3896
   62CHL1    H8 7009   6.574   0.102   9.501 -0.4788  0.4817  2.1570
   62CHL1   C14 7010   6.497  -0.021   9.345  0.6633 -0.6350 -0.0474
   62CHL1   H14 7011   6.429  -0.107   9.363 -0.4412  0.5663  1.8319
   62CHL1   C15 7012   6.625  -0.083   9.276 -0.5840  0.0809  0.4927
   62CHL1  H15A 7013   6.709  -0.012   9.293  0.9743 -0.6352 -3.2783
   62CHL1  H15B 7014   6.661  -0.177   9.322  1.7482  0.9422  0.5743
   62CHL1   C16 7015   6.590  -0.083   9.130 -0.4337  0.0020 -0.0134
   62CHL1  H16A 7016   6.677  -0.047   9.072 -0.1532  1.8662  1.4736
   62CHL1  H16B 7017   6.568  -0.185   9.090 -1.3451  0.4169 -0.6074
   62CHL1   C17 7018   6.470   0.008   9.112 -0.5758 -0.1783  0.5892
   62CHL1   H17 7019   6.384  -0.061   9.098 -0.5283  0.1091 -1.4814
   62CHL1   C13 7020   6.441   0.081   9.243 -0.6251  0.0510 -0.4761
   62CHL1   C18 7021   6.543   0.205   9.255  0.2873 -0.1490 -0.5274
   62CHL1  H18A 7022   6.538   0.251   9.356 -2.4456 -1.7744  0.1857
   62CHL1  H18B 7023   6.649   0.174   9.257  0.4637  0.4188 -0.8196
   62CHL1  H18C 7024   6.517   0.290   9.188 -0.9148  0.0064  0.0985
   62CHL1   C12 7025   6.295   0.108   9.284 -0.3925  0.1437 -0.3386
   62CHL1  H12A 7026   6.241   0.171   9.209 -0.8018  1.8129  1.2844
   62CHL1  H12B 7027   6.243   0.010   9.286 -1.2345  0.5759 -0.5048
   62CHL1   C11 7028   6.293   0.177   9.426  0.6646  0.3034  0.1471
   62CHL1  H11A 7029   6.350   0.270   9.404  3.6653 -1.2652  0.7586
   62CHL1  H11B 7030   6.191   0.219   9.440  1.0404  1.3286 -0.0983
   62CHL1    C9 7031   6.352   0.082   9.536 -0.4108  0.0013  0.6137
   62CHL1    H9 7032   6.287  -0.009   9.535 -0.3383 -0.0568 -0.4535
   62CHL1   C10 7033   6.370   0.147   9.674  0.2904  0.7363  0.1887
   62CHL1   C19 7034   6.455   0.281   9.651 -0.3890 -0.0912 -0.2109
   62CHL1  H19A 7035   6.463   0.342   9.744  0.7640  0.1073 -0.4311
   62CHL1  H19B 7036   6.559   0.261   9.619 -0.0693 -0.7542  1.1979
   62CHL1  H19C 7037   6.398   0.354   9.589 -0.1722 -0.3430 -0.7089
   62CHL1    C1 7038   6.224   0.178   9.733 -0.2080 -0.7423  0.7543
   62CHL1   H1A 7039   6.181   0.259   9.671 -0.4816  0.0383  1.9225
   62CHL1   H1B 7040   6.159   0.087   9.737  1.0590 -1.6297  2.2343
   62CHL1    C2 7041   6.229   0.221   9.880 -0.0545 -0.4407  0.6919
   62CHL1   H2A 7042   6.132   0.239   9.931  0.6967  0.8968  1.7158
   62CHL1   H2B 7043   6.281   0.319   9.870 -1.2048  0.2276  0.9896
   62CHL1   C20 7044   6.483   0.089   8.985  0.0522 -0.1635  0.4371
   62CHL1   H20 7045   6.571   0.156   8.990 -0.4184  0.4492  0.7784
   62CHL1   C21 7046   6.364   0.188   8.973  0.4803  0.1151  0.2390
   62CHL1  H21A 7047   6.266   0.136   8.980  0.4993 -0.0239 -0.4149
   62CHL1  H21B 7048   6.369   0.249   8.880 -1.1280  0.5693  0.4172
   62CHL1  H21C 7049   6.368   0.266   9.051  1.5709 -0.1446  0.4590
   62CHL1   C22 7050   6.504   0.005   8.864 -0.0167 -0.3616  0.0920
   62CHL1  H22A 7051   6.519   0.076   8.780 -0.0049 -0.3031  0.1441
   62CHL1  H22B 7052   6.584  -0.072   8.863  0.3541  0.0085  0.7183
   62CHL1   C23 7053   6.383  -0.082   8.822  0.3845 -0.2551  0.8782
   62CHL1  H23A 7054   6.338  -0.121   8.916  0.9794 -1.6639  0.6023
   62CHL1  H23B 7055   6.302  -0.008   8.801  1.5551  0.8758  0.1401
   62CHL1   C24 7056   6.397  -0.181   8.705 -1.0315 -0.1017  0.0958
   62CHL1  H24A 7057   6.301  -0.232   8.681 -1.0512 -1.1360  2.1983
   62CHL1  H24B 7058   6.423  -0.123   8.613  0.2875 -0.1864  0.4008
   62CHL1   C25 7059   6.508  -0.288   8.741 -0.1213  0.7226  0.1650
   62CHL1   H25 7060   6.608  -0.245   8.767  0.4935  0.6999 -1.9358
   62CHL1   C26 7061   6.465  -0.378   8.860 -0.1034  0.2314  0.4805
   62CHL1  H26A 7062   6.542  -0.445   8.903 -2.0106 -2.3105  0.1610
   62CHL1  H26B 7063   6.402  -0.322   8.934 -1.7869  0.7842 -1.2693
   62CHL1  H26C 7064   6.400  -0.463   8.829 -1.8119  1.6293  0.0063
   62CHL1   C27 7065   6.542  -0.381   8.616 -0.2855 -0.1529 -0.2160
   62CHL1  H27A 7066   6.447  -0.427   8.583 -0.8249  1.7863 -1.5195
   62CHL1  H27B 7067   6.579  -0.318   8.532  0.7437 -1.6276 -0.9223
   62CHL1  H27C 7068   6.612  -0.466   8.633 -1.2817 -1.5509 -2.5444
   63CHL1    C3 7069   3.109   3.894  10.366 -0.1159 -0.3506  0.6886
   63CHL1    H3 7070   3.209   3.938  10.345 -0.0048 -1.6353 -1.7697
   63CHL1    O3 7071   3.090   3.844  10.494 -0.6160  0.0034 -0.8634
   63CHL1   H3' 7072   2.996   3.825  10.496 -0.3251 -1.5833 -1.2214
   63CHL1    C4 7073   2.998   4.006  10.345  0.3234  0.2505 -0.0971
   63CHL1   H4A 7074   2.900   3.962  10.372 -0.7301  1.2458 -2.0939
   63CHL1   H4B 7075   3.023   4.086  10.418  0.6006 -1.3550  1.6374
   63CHL1    C5 7076   3.004   4.062  10.202  0.2131 -0.4532  0.0898
   63CHL1    C6 7077   3.027   4.192  10.176  0.2646 -0.3519 -0.2592
   63CHL1    H6 7078   3.047   4.266  10.255  2.4631 -0.0567 -0.9997
   63CHL1    C7 7079   3.033   4.247  10.037 -0.1159  0.3023 -0.2016
   63CHL1   H7A 7080   2.988   4.348  10.037 -1.9557 -0.4571 -0.5138
   63CHL1   H7B 7081   3.139   4.252  10.003 -0.0841 -0.2822 -0.2081
   63CHL1    C8 7082   2.969   4.145   9.934 -0.4689  0.1288 -0.2421
   63CHL1    H8 7083   2.858   4.149   9.945 -0.6853 -0.0843 -2.1546
   63CHL1   C14 7084   3.000   4.185   9.789 -0.5125 -0.6247  0.8416
   63CHL1   H14 7085   3.111   4.185   9.779 -0.6326 -1.1128 -0.7236
   63CHL1   C15 7086   2.968   4.336   9.749 -0.4009  0.5155 -0.5170
   63CHL1  H15A 7087   2.878   4.382   9.793 -1.4592 -0.1790 -1.8783
   63CHL1  H15B 7088   3.054   4.404   9.770 -0.4112  0.1899  0.6131
   63CHL1   C16 7089   2.960   4.317   9.593  0.1789 -0.8644  0.9678
   63CHL1  H16A 7090   2.856   4.342   9.563  1.2352  0.5999 -1.9175
   63CHL1  H16B 7091   3.034   4.385   9.544 -1.1344  0.4560  0.7304
   63CHL1   C17 7092   2.977   4.167   9.549 -0.1899 -0.5533 -0.8771
   63CHL1   H17 7093   3.086   4.150   9.536 -0.1659 -0.6002 -0.6266
   63CHL1   C13 7094   2.940   4.095   9.685  0.0246 -0.9433  0.0349
   63CHL1   C18 7095   2.793   4.083   9.696  0.9578  0.8073 -1.0652
   63CHL1  H18A 7096   2.766   4.021   9.785  0.0688  2.6517 -0.0019
   63CHL1  H18B 7097   2.734   4.177   9.697 -1.2824 -0.5101 -0.6820
   63CHL1  H18C 7098   2.754   4.020   9.613  1.3043 -0.8770 -0.0039
   63CHL1   C12 7099   3.015   3.961   9.692  0.2608 -0.0242 -0.4754
   63CHL1  H12A 7100   2.986   3.893   9.610  0.3859  1.0025 -1.4025
   63CHL1  H12B 7101   3.121   3.984   9.669  0.6353  2.3363  2.8281
   63CHL1   C11 7102   2.998   3.905   9.835 -0.5234 -0.5403  0.1029
   63CHL1  H11A 7103   2.894   3.871   9.851 -0.9851  1.0587  0.6783
   63CHL1  H11B 7104   3.067   3.819   9.846  0.5184  0.2740  0.1820
   63CHL1    C9 7105   3.023   4.005   9.957  0.1382  1.0440  0.6749
   63CHL1    H9 7106   3.133   4.020   9.952  0.3782 -0.5390  0.6483
   63CHL1   C10 7107   2.985   3.951  10.098 -0.2610  0.5814  0.8906
   63CHL1   C19 7108   2.842   3.900  10.105  0.3670  0.4641  0.4413
   63CHL1  H19A 7109   2.782   3.958  10.032  0.4009  1.0485  0.8743
   63CHL1  H19B 7110   2.826   3.801  10.057 -2.2372  1.1929 -0.3352
   63CHL1  H19C 7111   2.797   3.898  10.206  2.0515  1.7342  1.2707
   63CHL1    C1 7112   3.093   3.839  10.123 -0.4306 -0.1508  0.0835
   63CHL1   H1A 7113   3.070   3.753  10.055  0.3872 -0.7112  0.5026
   63CHL1   H1B 7114   3.198   3.871  10.111 -0.3553  0.1231  1.3752
   63CHL1    C2 7115   3.090   3.777  10.261  0.0386 -0.6627 -0.3682
   63CHL1   H2A 7116   3.169   3.699  10.274 -0.4522 -1.4643 -1.8847
   63CHL1   H2B 7117   2.992   3.727  10.273 -0.1414 -0.4253 -0.8363
   63CHL1   C20 7118   2.901   4.132   9.421  0.2181 -0.1184 -0.0436
   63CHL1   H20 7119   2.793   4.150   9.433 -0.0073  0.2537 -2.1932
   63CHL1   C21 7120   2.911   3.979   9.380 -0.3602  0.1142 -0.0903
   63CHL1  H21A 7121   3.004   3.940   9.426  0.3904  2.1067  0.1569
   63CHL1  H21B 7122   2.900   3.974   9.269  0.6487  0.8058 -0.2374
   63CHL1  H21C 7123   2.823   3.931   9.428 -0.2226  1.3223  1.4673
   63CHL1   C22 7124   2.934   4.221   9.303 -0.4412 -0.3784  0.2984
   63CHL1  H22A 7125   2.868   4.208   9.215 -1.1646  0.7906  0.6314
   63CHL1  H22B 7126   2.916   4.327   9.332 -0.3048 -0.7691  1.9380
   63CHL1   C23 7127   3.078   4.228   9.264 -0.4329  0.4147  0.6892
   63CHL1  H23A 7128   3.148   4.264   9.342  2.0703 -1.0426 -0.7247
   63CHL1  H23B 7129   3.113   4.124   9.248 -1.4649 -0.1726  2.1405
   63CHL1   C24 7130   3.106   4.310   9.133  0.3453  0.6000  0.1816
   63CHL1  H24A 7131   3.026   4.290   9.060  0.8642 -1.8916  0.1987
   63CHL1  H24B 7132   3.105   4.419   9.157  2.2263  0.7181 -0.0571
   63CHL1   C25 7133   3.247   4.296   9.075 -0.2613 -0.5256  0.3805
   63CHL1   H25 7134   3.239   4.385   9.010 -0.1221  0.3933  1.5794
   63CHL1   C26 7135   3.364   4.308   9.173  0.4396 -0.9292 -0.3324
   63CHL1  H26A 7136   3.345   4.399   9.234 -1.4543  0.7139 -3.1719
   63CHL1  H26B 7137   3.361   4.214   9.233  0.2191  0.7293  2.4543
   63CHL1  H26C 7138   3.459   4.319   9.117 -0.0102  1.2559 -0.7621
   63CHL1   C27 7139   3.256   4.178   8.982 -0.0539 -0.1080  0.8619
   63CHL1  H27A 7140   3.354   4.167   8.932 -0.5148  0.4937 -0.2144
   63CHL1  H27B 7141   3.244   4.085   9.042  0.6624  0.6114  2.1723
   63CHL1  H27C 7142   3.187   4.189   8.895  0.8279  1.9600  0.3560
   64CHL1    C3 7143   0.512   0.615  10.088  0.6735 -1.0051 -0.3996
   64CHL1    H3 7144   0.451   0.707  10.103  0.2890 -1.4959  1.2524
   64CHL1    O3 7145   0.546   0.567  10.221 -0.0992  0.4235  0.1102
   64CHL1   H3' 7146   0.467   0.520  10.248  0.8493 -0.4989  1.3719
   64CHL1    C4 7147   0.442   0.507   9.999 -0.1716 -0.2292 -0.6908
   64CHL1   H4A 7148   0.523   0.432   9.996  1.2649  1.2831 -2.2849
   64CHL1   H4B 7149   0.351   0.465  10.046 -0.4168 -0.3462 -1.2612
   64CHL1    C5 7150   0.431   0.548   9.850  0.3408  0.4157 -0.4465
   64CHL1    C6 7151   0.316   0.545   9.789  0.0864 -0.0839 -0.3169
   64CHL1    H6 7152   0.226   0.524   9.848 -0.0437  0.2735 -0.3858
   64CHL1    C7 7153   0.308   0.583   9.647  0.3888  0.2128 -0.9126
   64CHL1   H7A 7154   0.237   0.514   9.595  1.2194 -1.9264  0.6442
   64CHL1   H7B 7155   0.269   0.687   9.642  0.8049  0.4758  0.8907
   64CHL1    C8 7156   0.443   0.581   9.566  0.6046 -0.5514 -0.3456
   64CHL1    H8 7157   0.467   0.473   9.555  0.5358 -0.3935 -2.4184
   64CHL1   C14 7158   0.426   0.655   9.434 -0.1038  0.3222 -0.0081
   64CHL1   H14 7159   0.402   0.759   9.462  1.0669  0.2835  1.2531
   64CHL1   C15 7160   0.320   0.599   9.335 -0.0035 -0.2279  0.4224
   64CHL1  H15A 7161   0.320   0.488   9.328  0.9140 -0.1541 -1.1123
   64CHL1  H15B 7162   0.220   0.636   9.365 -0.2406 -0.6406  0.1425
   64CHL1   C16 7163   0.363   0.657   9.207 -0.3985 -0.4819 -0.0425
   64CHL1  H16A 7164   0.388   0.585   9.126  0.2549  2.0953 -2.3199
   64CHL1  H16B 7165   0.287   0.731   9.173 -1.5044 -2.1143 -1.3177
   64CHL1   C17 7166   0.493   0.737   9.229 -0.2146 -0.1324  0.0047
   64CHL1   H17 7167   0.469   0.841   9.260  1.4601 -0.1624  1.5600
   64CHL1   C13 7168   0.554   0.668   9.350 -0.1713 -0.7494  0.0235
   64CHL1   C18 7169   0.618   0.533   9.319 -0.4137  1.2240  0.5732
   64CHL1  H18A 7170   0.706   0.559   9.257  0.6023  1.8972  2.2599
   64CHL1  H18B 7171   0.654   0.485   9.412  0.1777 -0.2766 -0.3849
   64CHL1  H18C 7172   0.558   0.457   9.264  0.8855  0.0334  0.7369
   64CHL1   C12 7173   0.654   0.767   9.429 -0.4278 -0.5195  0.3187
   64CHL1  H12A 7174   0.754   0.781   9.384  0.8557 -1.7509  2.6030
   64CHL1  H12B 7175   0.606   0.864   9.454  0.2504 -0.6111  2.0803
   64CHL1   C11 7176   0.679   0.696   9.566  0.4511 -0.0783  0.0338
   64CHL1  H11A 7177   0.745   0.607   9.553  0.7402 -0.3548  2.8494
   64CHL1  H11B 7178   0.737   0.767   9.629 -1.0547  2.3661 -1.1791
   64CHL1    C9 7179   0.547   0.658   9.649  0.2741 -0.3857 -0.2868
   64CHL1    H9 7180   0.504   0.760   9.654 -4.3603 -2.1608  1.3765
   64CHL1   C10 7181   0.566   0.586   9.791 -0.3492 -1.1747  0.5123
   64CHL1   C19 7182   0.655   0.465   9.763  0.2492  0.0589 -0.6559
   64CHL1  H19A 7183   0.669   0.389   9.844  1.4850  1.0124  0.0497
   64CHL1  H19B 7184   0.627   0.402   9.676 -1.9919 -0.5465  0.3959
   64CHL1  H19C 7185   0.754   0.500   9.730  0.9551  0.1431  1.3869
   64CHL1    C1 7186   0.635   0.690   9.887 -0.2410  0.1960  0.7506
   64CHL1   H1A 7187   0.739   0.709   9.851  0.0555 -2.0702  0.2458
   64CHL1   H1B 7188   0.576   0.784   9.889  0.8709  0.9267  0.1703
   64CHL1    C2 7189   0.644   0.646  10.029 -0.5027 -0.1735  0.7642
   64CHL1   H2A 7190   0.696   0.730  10.081 -0.2942  0.8028 -0.9497
   64CHL1   H2B 7191   0.710   0.557  10.035 -0.7614 -0.3802  0.5405
   64CHL1   C20 7192   0.571   0.769   9.103 -0.7802 -0.0043  0.2905
   64CHL1   H20 7193   0.668   0.806   9.142 -1.1698 -0.2526  1.5294
   64CHL1   C21 7194   0.498   0.889   9.040  0.4978  0.5842 -0.2088
   64CHL1  H21A 7195   0.476   0.970   9.113  2.3781  1.6175 -0.7227
   64CHL1  H21B 7196   0.403   0.853   8.995  0.7591  0.3015 -0.5456
   64CHL1  H21C 7197   0.544   0.935   8.950 -0.6139  1.9661 -0.1145
   64CHL1   C22 7198   0.589   0.665   8.999  0.0757  0.4438  0.3236
   64CHL1  H22A 7199   0.616   0.567   9.045  1.1253  0.9883  0.9003
   64CHL1  H22B 7200   0.494   0.656   8.941  0.0797  0.7300  0.2717
   64CHL1   C23 7201   0.700   0.694   8.889 -0.9422 -0.3048  0.1740
   64CHL1  H23A 7202   0.681   0.631   8.800 -1.7444 -1.1030  0.8856
   64CHL1  H23B 7203   0.695   0.799   8.854 -0.7491 -0.1953  0.4651
   64CHL1   C24 7204   0.846   0.690   8.947  0.4242  0.2656 -0.3429
   64CHL1  H24A 7205   0.854   0.773   9.021  0.7494 -1.0230  1.1196
   64CHL1  H24B 7206   0.857   0.592   9.000  2.2877  0.8192  0.3978
   64CHL1   C25 7207   0.955   0.716   8.838  0.2536  0.2850 -1.2633
   64CHL1   H25 7208   0.917   0.656   8.753 -1.4707  1.9989 -1.7674
   64CHL1   C26 7209   0.962   0.862   8.802 -0.1277 -0.1941  0.2530
   64CHL1  H26A 7210   1.052   0.882   8.740 -0.5502  0.5408 -0.1262
   64CHL1  H26B 7211   0.870   0.906   8.759  0.9574  0.0391 -1.9668
   64CHL1  H26C 7212   0.996   0.918   8.892  1.1998  0.6199 -0.7179
   64CHL1   C27 7213   1.091   0.666   8.879 -0.0339 -0.4071  0.1690
   64CHL1  H27A 7214   1.131   0.736   8.955  1.0621 -0.2442 -0.5329
   64CHL1  H27B 7215   1.071   0.563   8.916  1.2194 -0.0058  2.1010
   64CHL1  H27C 7216   1.159   0.655   8.791 -1.2765  0.4097 -0.9224
   65CHL1    C3 7217   4.298   4.365  10.145  0.3428 -0.2927 -0.2432
   65CHL1    H3 7218   4.204   4.341  10.091 -0.0469  0.5887  0.0353
   65CHL1    O3 7219   4.280   4.392  10.288 -0.5915 -0.0425 -0.1552
   65CHL1   H3' 7220   4.372   4.397  10.316 -0.1815 -2.8050 -0.6784
   65CHL1    C4 7221   4.393   4.243  10.124  0.2717 -0.5271 -0.6249
   65CHL1   H4A 7222   4.483   4.256  10.187 -0.8738 -1.3813  1.2904
   65CHL1   H4B 7223   4.343   4.155  10.171 -0.0886  0.7463  1.4951
   65CHL1    C5 7224   4.406   4.234   9.977 -0.5126  0.5939  0.7087
   65CHL1    C6 7225   4.357   4.123   9.917  0.6849  0.8729 -0.9912
   65CHL1    H6 7226   4.294   4.053   9.974 -1.0209  2.1252 -1.2842
   65CHL1    C7 7227   4.367   4.099   9.773  0.4827 -0.7290  0.4710
   65CHL1   H7A 7228   4.375   3.992   9.745  0.7005 -0.4688 -0.5068
   65CHL1   H7B 7229   4.283   4.133   9.709  1.0838  0.8311  0.4705
   65CHL1    C8 7230   4.474   4.191   9.703  0.2803  0.1679  0.3814
   65CHL1    H8 7231   4.574   4.154   9.736  0.2551 -1.3177 -1.1145
   65CHL1   C14 7232   4.474   4.170   9.552 -0.5803  0.4411  0.1632
   65CHL1   H14 7233   4.372   4.204   9.523 -1.3414  0.2813  2.4752
   65CHL1   C15 7234   4.491   4.032   9.500 -0.4841  0.7445 -0.3790
   65CHL1  H15A 7235   4.577   3.980   9.547 -2.0248 -1.6777 -0.0287
   65CHL1  H15B 7236   4.400   3.969   9.514 -0.0439  0.7365  3.8222
   65CHL1   C16 7237   4.525   4.063   9.355  0.3254 -0.2573 -0.2503
   65CHL1  H16A 7238   4.621   4.011   9.332  1.2726  0.6555  1.5387
   65CHL1  H16B 7239   4.439   4.022   9.297  0.4202 -1.5611  0.4914
   65CHL1   C17 7240   4.550   4.213   9.341 -0.2998 -0.0034 -0.1723
   65CHL1   H17 7241   4.464   4.259   9.288 -0.9072 -2.4309 -1.4623
   65CHL1   C13 7242   4.570   4.267   9.481 -0.6847 -0.2781  0.2579
   65CHL1   C18 7243   4.716   4.238   9.519 -0.4436  0.3862 -0.2573
   65CHL1  H18A 7244   4.784   4.310   9.469 -0.4775  1.1324  0.7507
   65CHL1  H18B 7245   4.725   4.245   9.630  2.1212  1.2945 -0.4640
   65CHL1  H18C 7246   4.741   4.138   9.478 -1.6134  0.5428 -1.4198
   65CHL1   C12 7247   4.531   4.412   9.515 -0.7562 -0.2969 -0.8621
   65CHL1  H12A 7248   4.610   4.482   9.481 -2.2456  1.0804 -1.6219
   65CHL1  H12B 7249   4.435   4.446   9.471 -1.0657 -2.3913 -1.8859
   65CHL1   C11 7250   4.545   4.435   9.672  0.5467 -0.7897  0.4658
   65CHL1  H11A 7251   4.651   4.441   9.705  0.1672  0.5037  1.5566
   65CHL1  H11B 7252   4.508   4.533   9.709  2.5795  0.4611 -0.5937
   65CHL1    C9 7253   4.457   4.336   9.747 -0.8527 -0.0931  0.2287
   65CHL1    H9 7254   4.354   4.367   9.719 -0.8722 -1.9487 -2.1162
   65CHL1   C10 7255   4.465   4.356   9.902 -0.5914  0.5054  0.0691
   65CHL1   C19 7256   4.612   4.372   9.956 -0.0655  0.3322  0.1856
   65CHL1  H19A 7257   4.657   4.472   9.942 -0.7833  0.8364  1.3102
   65CHL1  H19B 7258   4.612   4.369  10.067  0.6945  0.4664  0.1897
   65CHL1  H19C 7259   4.680   4.292   9.922  0.8738  1.6117 -1.0614
   65CHL1    C1 7260   4.372   4.480   9.941 -0.4947  0.4802 -0.1023
   65CHL1   H1A 7261   4.418   4.573   9.901  0.0832  0.2173 -0.0633
   65CHL1   H1B 7262   4.273   4.457   9.896 -1.0818  0.9059  0.9515
   65CHL1    C2 7263   4.346   4.498  10.087 -0.2776 -0.1172  0.0176
   65CHL1   H2A 7264   4.272   4.579  10.105  1.5601  1.3106  1.6134
   65CHL1   H2B 7265   4.438   4.534  10.137 -1.6185  2.4812  0.8114
   65CHL1   C20 7266   4.660   4.254   9.237 -0.3024  0.2128 -0.5542
   65CHL1   H20 7267   4.765   4.241   9.271 -0.3109 -1.1836 -0.9793
   65CHL1   C21 7268   4.654   4.406   9.214  0.9602 -0.1039  0.2365
   65CHL1  H21A 7269   4.725   4.450   9.286 -1.1264  1.9549  1.1619
   65CHL1  H21B 7270   4.551   4.445   9.228  1.0122 -0.5310  2.1365
   65CHL1  H21C 7271   4.685   4.438   9.113 -0.8535  2.0689  0.2834
   65CHL1   C22 7272   4.663   4.178   9.096 -0.4599  0.7069 -0.1180
   65CHL1  H22A 7273   4.758   4.202   9.044 -0.2295  2.2068  0.9207
   65CHL1  H22B 7274   4.665   4.069   9.114 -0.2943  0.9147  1.1985
   65CHL1   C23 7275   4.538   4.207   9.015  0.2698 -0.2757  0.9274
   65CHL1  H23A 7276   4.438   4.198   9.061 -0.4439  2.6736  0.1847
   65CHL1  H23B 7277   4.533   4.308   8.969 -0.1551 -0.3595  0.7857
   65CHL1   C24 7278   4.539   4.108   8.895 -0.1146  0.1746 -1.3727
   65CHL1  H24A 7279   4.623   4.130   8.827 -0.5559  0.8849 -1.6973
   65CHL1  H24B 7280   4.564   4.004   8.925 -2.2407 -0.8481 -2.8330
   65CHL1   C25 7281   4.419   4.090   8.811 -0.1869  0.1589 -0.3652
   65CHL1   H25 7282   4.323   4.107   8.864 -0.6137  1.8758 -1.5782
   65CHL1   C26 7283   4.433   4.188   8.693 -0.6324 -0.8117 -0.0904
   65CHL1  H26A 7284   4.476   4.286   8.723  0.7605 -0.9666 -1.4197
   65CHL1  H26B 7285   4.508   4.139   8.627 -0.0648 -0.9761  0.6675
   65CHL1  H26C 7286   4.341   4.210   8.634 -1.3901  2.4184  2.0425
   65CHL1   C27 7287   4.408   3.950   8.749  0.0541  0.1426  0.2717
   65CHL1  H27A 7288   4.343   3.961   8.660 -0.5553  3.6646  0.9897
   65CHL1  H27B 7289   4.512   3.916   8.729  0.1408 -0.5771  1.8262
   65CHL1  H27C 7290   4.384   3.876   8.829  0.5089  0.4074  0.6624
   66CHL1    C3 7291   3.579   5.004  10.720  0.6446 -0.6066 -0.9603
   66CHL1    H3 7292   3.684   4.996  10.685  1.4688 -2.1977  1.5539
   66CHL1    O3 7293   3.579   4.986  10.861  0.5915 -0.0089  0.2986
   66CHL1   H3' 7294   3.489   5.007  10.888 -0.3526 -1.3894 -1.4883
   66CHL1    C4 7295   3.525   5.147  10.688  0.3762  0.0898 -0.0544
   66CHL1   H4A 7296   3.419   5.148  10.720 -0.2803  0.4080 -2.0610
   66CHL1   H4B 7297   3.596   5.215  10.740  0.3607 -0.3162  0.4936
   66CHL1    C5 7298   3.525   5.166  10.539  0.2659 -0.2617 -0.6700
   66CHL1    C6 7299   3.605   5.259  10.490  0.2851 -0.7887  0.3626
   66CHL1    H6 7300   3.661   5.330  10.553  1.9227 -1.4167 -0.3285
   66CHL1    C7 7301   3.618   5.289  10.343 -0.6616 -0.1580  0.6961
   66CHL1   H7A 7302   3.607   5.399  10.334  0.9532  0.3814  3.9976
   66CHL1   H7B 7303   3.719   5.258  10.309 -0.9492 -1.3646  0.8770
   66CHL1    C8 7304   3.514   5.212  10.261 -0.2811  0.1721  0.2869
   66CHL1    H8 7305   3.418   5.266  10.276 -0.0789  0.0653  2.3036
   66CHL1   C14 7306   3.551   5.214  10.113  0.2849 -0.2000 -0.5976
   66CHL1   H14 7307   3.646   5.157  10.104  1.1699  1.1550 -0.0027
   66CHL1   C15 7308   3.590   5.354  10.058 -0.2526 -0.0635  0.2369
   66CHL1  H15A 7309   3.519   5.436  10.080 -0.4737 -0.3674  0.6827
   66CHL1  H15B 7310   3.694   5.380  10.087 -0.0328 -0.7401  0.0664
   66CHL1   C16 7311   3.584   5.326   9.908  0.4059  0.3896 -0.6025
   66CHL1  H16A 7312   3.518   5.388   9.843  0.7804 -1.8198 -3.2657
   66CHL1  H16B 7313   3.685   5.325   9.863  0.1681  0.6251 -1.1564
   66CHL1   C17 7314   3.526   5.175   9.888 -0.6442 -0.3378 -0.3891
   66CHL1   H17 7315   3.617   5.112   9.879 -0.4324  0.1568 -1.9412
   66CHL1   C13 7316   3.448   5.154  10.020 -0.3312  0.0320  0.1800
   66CHL1   C18 7317   3.311   5.236  10.017  0.0994 -0.3657 -0.1683
   66CHL1  H18A 7318   3.283   5.263  10.121 -1.9078 -0.5080 -0.6348
   66CHL1  H18B 7319   3.322   5.329   9.957 -1.7662 -0.2750 -0.4279
   66CHL1  H18C 7320   3.225   5.185   9.969 -0.0649  0.1919 -0.4809
   66CHL1   C12 7321   3.431   5.005  10.057  0.0237 -0.5619 -0.2002
   66CHL1  H12A 7322   3.367   4.948   9.986 -2.1548 -1.0615  2.0349
   66CHL1  H12B 7323   3.533   4.961  10.049 -0.8380 -2.8561  0.8247
   66CHL1   C11 7324   3.406   4.983  10.206 -0.4889 -0.6061 -0.1569
   66CHL1  H11A 7325   3.303   5.013  10.233  0.2508  1.3894  0.6581
   66CHL1  H11B 7326   3.430   4.876  10.224  0.4651 -0.6821 -1.6892
   66CHL1    C9 7327   3.496   5.069  10.308  0.0814 -0.1996  0.0848
   66CHL1    H9 7328   3.599   5.029  10.303  0.6320  1.0111  1.3539
   66CHL1   C10 7329   3.456   5.058  10.462 -0.2326  0.7226  0.2155
   66CHL1   C19 7330   3.299   5.066  10.473 -0.1062  0.4245  0.5074
   66CHL1  H19A 7331   3.268   5.147  10.403  0.5888  0.8543  0.6851
   66CHL1  H19B 7332   3.250   4.972  10.441  2.8085 -1.2922  0.7505
   66CHL1  H19C 7333   3.262   5.100  10.572  0.0903  1.2109  0.3194
   66CHL1    C1 7334   3.491   4.920  10.509 -0.5564  0.0328  0.4859
   66CHL1   H1A 7335   3.434   4.842  10.455  0.7764  0.2260 -1.2799
   66CHL1   H1B 7336   3.589   4.886  10.468 -1.6915 -2.3440 -0.4264
   66CHL1    C2 7337   3.500   4.894  10.660 -0.6050 -0.2504  0.3103
   66CHL1   H2A 7338   3.555   4.799  10.678  0.1873  0.6653  3.4737
   66CHL1   H2B 7339   3.397   4.889  10.701 -1.4021  0.4585 -1.5167
   66CHL1   C20 7340   3.452   5.159   9.753 -0.6337  0.2759 -0.0497
   66CHL1   H20 7341   3.372   5.236   9.742 -0.9248 -0.2435 -1.8459
   66CHL1   C21 7342   3.393   5.022   9.730  0.6349 -0.4435  0.4348
   66CHL1  H21A 7343   3.293   5.021   9.779 -0.7282 -1.8510 -2.1826
   66CHL1  H21B 7344   3.468   4.955   9.778  2.3769  1.3168  0.2807
   66CHL1  H21C 7345   3.399   4.991   9.623  3.0151  1.2576 -0.0088
   66CHL1   C22 7346   3.555   5.178   9.641 -0.0178  0.5816  0.0039
   66CHL1  H22A 7347   3.629   5.254   9.674 -0.3155  0.6634  0.5041
   66CHL1  H22B 7348   3.602   5.077   9.636 -1.8549 -0.3191 -0.0220
   66CHL1   C23 7349   3.499   5.221   9.510  0.0781  0.7970  0.7033
   66CHL1  H23A 7350   3.442   5.137   9.464  0.5230 -0.7961  2.8998
   66CHL1  H23B 7351   3.429   5.307   9.520 -0.4027  0.6130 -0.8027
   66CHL1   C24 7352   3.611   5.265   9.417 -0.0542  0.0677  0.4502
   66CHL1  H24A 7353   3.675   5.348   9.454 -0.7207  1.2148 -0.8798
   66CHL1  H24B 7354   3.662   5.167   9.406 -3.2671 -1.5972 -1.0134
   66CHL1   C25 7355   3.564   5.288   9.277 -0.1047  0.1261  0.0200
   66CHL1   H25 7356   3.479   5.220   9.253 -1.2038  1.3394  0.4097
   66CHL1   C26 7357   3.508   5.431   9.254 -0.2265  0.9795 -0.6189
   66CHL1  H26A 7358   3.444   5.430   9.163  1.1904 -0.4368 -1.6610
   66CHL1  H26B 7359   3.460   5.470   9.346 -2.4414 -1.3340 -0.6912
   66CHL1  H26C 7360   3.596   5.497   9.237  1.0221  0.2926  2.4597
   66CHL1   C27 7361   3.676   5.255   9.183 -0.6337 -0.0254  0.0608
   66CHL1  H27A 7362   3.638   5.256   9.078  0.6289 -1.0260 -0.4342
   66CHL1  H27B 7363   3.755   5.331   9.205 -0.3799 -0.3395  0.2415
   66CHL1  H27C 7364   3.716   5.152   9.191  2.2805  1.0493  0.7547
   67CHL1    C3 7365   6.358   4.668  10.420 -0.0086  0.9787  0.0100
   67CHL1    H3 7366   6.405   4.569  10.403 -0.1924  1.1701 -1.8270
   67CHL1    O3 7367   6.317   4.699  10.555 -0.1735  0.1515 -0.1040
   67CHL1   H3' 7368   6.289   4.791  10.557  0.6393  0.5120 -2.2832
   67CHL1    C4 7369   6.459   4.781  10.373  0.1399 -0.2342 -0.3817
   67CHL1   H4A 7370   6.423   4.882  10.404  1.0221  0.4129 -1.3615
   67CHL1   H4B 7371   6.550   4.779  10.436  0.4490  2.2655 -0.6447
   67CHL1    C5 7372   6.493   4.771  10.223  0.2240 -0.3479 -0.7270
   67CHL1    C6 7373   6.616   4.751  10.172 -0.7282 -0.1442  0.4522
   67CHL1    H6 7374   6.702   4.729  10.237  0.1645 -0.0577 -0.6648
   67CHL1    C7 7375   6.652   4.756  10.025 -0.3181  0.0125 -0.1974
   67CHL1   H7A 7376   6.752   4.804  10.017 -0.0998 -0.4336 -0.1620
   67CHL1   H7B 7377   6.669   4.649  10.000  0.2385 -0.0606  0.4734
   67CHL1    C8 7378   6.543   4.811   9.929  0.0908  0.1588  0.2918
   67CHL1    H8 7379   6.539   4.920   9.952 -0.2299 -0.2319  2.2246
   67CHL1   C14 7380   6.565   4.777   9.787  0.9982 -0.2393 -0.8280
   67CHL1   H14 7381   6.550   4.667   9.780  0.4009 -0.2094 -0.1627
   67CHL1   C15 7382   6.701   4.801   9.726  0.4620  0.0962  0.3422
   67CHL1  H15A 7383   6.726   4.907   9.746 -1.4726  0.6950 -0.1768
   67CHL1  H15B 7384   6.795   4.745   9.747  0.0651 -0.7067  0.0164
   67CHL1   C16 7385   6.674   4.782   9.578 -0.4230 -0.1539  0.1626
   67CHL1  H16A 7386   6.709   4.871   9.522 -1.2272 -1.1185 -1.9772
   67CHL1  H16B 7387   6.727   4.692   9.540 -0.3918  0.3203 -0.9446
   67CHL1   C17 7388   6.526   4.774   9.561  0.7377  0.3794 -0.4337
   67CHL1   H17 7389   6.502   4.665   9.561  0.0623  0.4971  1.6616
   67CHL1   C13 7390   6.457   4.827   9.691 -0.2483 -0.3081 -0.2900
   67CHL1   C18 7391   6.454   4.980   9.690  0.5441  0.0553  0.2017
   67CHL1  H18A 7392   6.432   5.025   9.789  0.6593  1.0467 -0.2011
   67CHL1  H18B 7393   6.550   5.018   9.648  0.2061  3.0308  1.8559
   67CHL1  H18C 7394   6.372   5.006   9.620  0.1274  1.5964  1.2098
   67CHL1   C12 7395   6.324   4.758   9.730 -0.1753  0.3550 -0.4284
   67CHL1  H12A 7396   6.244   4.791   9.661 -1.0578 -1.6236 -0.4224
   67CHL1  H12B 7397   6.341   4.648   9.723  3.4156  0.6864  0.7960
   67CHL1   C11 7398   6.291   4.785   9.872 -0.3567  0.2869 -0.4710
   67CHL1  H11A 7399   6.272   4.895   9.871  0.0500  0.3624 -0.1140
   67CHL1  H11B 7400   6.201   4.725   9.898  0.7451 -1.6102 -0.8776
   67CHL1    C9 7401   6.404   4.756   9.978  0.6596 -1.0681  0.1658
   67CHL1    H9 7402   6.419   4.646   9.975  2.7906 -0.8043 -0.6220
   67CHL1   C10 7403   6.374   4.796  10.132 -0.0681 -0.2890 -0.1160
   67CHL1   C19 7404   6.323   4.945  10.147 -0.0415  0.0280  0.3632
   67CHL1  H19A 7405   6.408   5.016  10.139  0.5930 -0.6611  0.8945
   67CHL1  H19B 7406   6.249   4.982  10.072  1.4334  0.4859 -0.9103
   67CHL1  H19C 7407   6.274   4.961  10.246 -1.5040 -0.6860 -0.2179
   67CHL1    C1 7408   6.255   4.700  10.181 -0.1695 -0.1831  0.3999
   67CHL1   H1A 7409   6.168   4.729  10.118 -0.1332 -0.7911  0.0665
   67CHL1   H1B 7410   6.282   4.597  10.151 -0.3632 -0.1347  0.0541
   67CHL1    C2 7411   6.229   4.686  10.335  0.2147  0.4043 -0.2200
   67CHL1   H2A 7412   6.176   4.590  10.351  1.0437  0.3390  2.7751
   67CHL1   H2B 7413   6.169   4.774  10.367  1.9427  1.4320  0.3450
   67CHL1   C20 7414   6.473   4.831   9.419  0.0559  0.0393 -0.0587
   67CHL1   H20 7415   6.494   4.940   9.412  1.7329 -0.2072  0.7472
   67CHL1   C21 7416   6.322   4.810   9.410 -0.1496  0.4468 -0.1268
   67CHL1  H21A 7417   6.295   4.703   9.424 -0.1934  0.2311 -1.6684
   67CHL1  H21B 7418   6.279   4.838   9.311 -0.6193 -1.3556 -0.4623
   67CHL1  H21C 7419   6.264   4.866   9.487  0.9351 -0.3655  1.3197
   67CHL1   C22 7420   6.539   4.758   9.303  0.0283 -0.1644 -0.2274
   67CHL1  H22A 7421   6.633   4.705   9.328 -0.9316 -2.5314 -1.2993
   67CHL1  H22B 7422   6.474   4.670   9.284  0.3271 -0.2245 -0.9889
   67CHL1   C23 7423   6.578   4.846   9.183 -0.3752 -0.5108  0.3621
   67CHL1  H23A 7424   6.490   4.894   9.134 -0.5051 -0.4375  0.6587
   67CHL1  H23B 7425   6.638   4.927   9.231 -1.6664 -0.2226  1.5695
   67CHL1   C24 7426   6.668   4.777   9.077 -0.3023  0.6519 -0.6266
   67CHL1  H24A 7427   6.741   4.714   9.131 -1.1720  1.0578  1.0992
   67CHL1  H24B 7428   6.615   4.712   9.004 -0.1177 -1.7791  1.3122
   67CHL1   C25 7429   6.750   4.874   8.990 -0.0985  0.4146  0.9846
   67CHL1   H25 7430   6.829   4.928   9.046  1.8682  0.0331 -1.2675
   67CHL1   C26 7431   6.823   4.785   8.890  0.3565 -0.1373 -0.0244
   67CHL1  H26A 7432   6.873   4.695   8.932  1.9723  0.8119  0.1391
   67CHL1  H26B 7433   6.748   4.751   8.815  0.7112  0.6290 -0.7426
   67CHL1  H26C 7434   6.887   4.848   8.825 -1.8993  0.6211 -1.6591
   67CHL1   C27 7435   6.661   4.971   8.906 -0.2134 -0.2676 -0.3688
   67CHL1  H27A 7436   6.729   5.034   8.845 -0.7183  0.1429 -0.5128
   67CHL1  H27B 7437   6.594   4.926   8.830 -0.5530  0.2052 -0.3513
   67CHL1  H27C 7438   6.593   5.031   8.970 -0.3671  0.3003 -1.0509
   68CHL1    C3 7439   3.374   1.036  10.081 -0.2351  0.2168 -0.4373
   68CHL1    H3 7440   3.293   0.961  10.091 -0.3683  0.4424  0.2253
   68CHL1    O3 7441   3.375   1.112  10.197 -0.0603  0.4464  0.9485
   68CHL1   H3' 7442   3.368   1.207  10.180  0.9078  0.9701  3.1743
   68CHL1    C4 7443   3.511   0.975  10.058  0.7655 -0.6892  0.2977
   68CHL1   H4A 7444   3.582   1.061  10.067 -0.8849  1.0212 -1.9164
   68CHL1   H4B 7445   3.539   0.908  10.142 -2.3432 -1.6673  0.6876
   68CHL1    C5 7446   3.526   0.905   9.924  0.3053  0.1799 -0.2453
   68CHL1    C6 7447   3.564   0.772   9.925  0.4905 -0.4358 -0.2998
   68CHL1    H6 7448   3.593   0.717  10.016  1.9157 -1.1728 -1.1652
   68CHL1    C7 7449   3.577   0.700   9.789 -0.2954 -0.0983 -0.3629
   68CHL1   H7A 7450   3.678   0.653   9.783 -0.0179 -0.0142  2.3564
   68CHL1   H7B 7451   3.517   0.606   9.783  1.3722 -1.2764  0.3219
   68CHL1    C8 7452   3.568   0.797   9.665 -0.5162  0.5022 -0.0786
   68CHL1    H8 7453   3.667   0.847   9.663 -0.9192  1.3635  0.6245
   68CHL1   C14 7454   3.544   0.723   9.539  0.2369 -0.2031  0.3478
   68CHL1   H14 7455   3.443   0.679   9.546  0.2734 -0.3834 -0.2034
   68CHL1   C15 7456   3.630   0.596   9.511  0.1500 -0.1357 -0.3075
   68CHL1  H15A 7457   3.736   0.628   9.520  0.2923 -0.5962 -0.3148
   68CHL1  H15B 7458   3.611   0.518   9.588  0.5114 -1.9461 -1.9621
   68CHL1   C16 7459   3.608   0.561   9.368  0.4102 -0.4251 -0.2082
   68CHL1  H16A 7460   3.712   0.573   9.330  0.8949 -3.3483 -0.0440
   68CHL1  H16B 7461   3.570   0.458   9.355 -3.3517  0.5206  1.7708
   68CHL1   C17 7462   3.505   0.671   9.312 -0.2781  0.2870 -0.6296
   68CHL1   H17 7463   3.399   0.641   9.326  0.3782 -1.1380  2.0637
   68CHL1   C13 7464   3.527   0.798   9.408 -0.0112  0.3237  0.2664
   68CHL1   C18 7465   3.662   0.867   9.372 -0.3545 -0.6153  0.5485
   68CHL1  H18A 7466   3.658   0.934   9.283  1.6569 -2.7320 -1.2514
   68CHL1  H18B 7467   3.695   0.926   9.460 -0.6889 -1.8445  1.5303
   68CHL1  H18C 7468   3.738   0.787   9.365 -0.4193 -0.5727 -0.8395
   68CHL1   C12 7469   3.414   0.889   9.431  0.0259 -0.8290 -0.7172
   68CHL1  H12A 7470   3.409   0.953   9.340  3.4266 -1.8840 -1.7809
   68CHL1  H12B 7471   3.317   0.834   9.439  0.8789 -2.3131 -0.1121
   68CHL1   C11 7472   3.435   0.979   9.551 -0.2002 -0.0871 -0.4294
   68CHL1  H11A 7473   3.530   1.032   9.528 -0.3508 -0.1925 -1.3509
   68CHL1  H11B 7474   3.347   1.045   9.565 -0.8586 -1.5195  3.2891
   68CHL1    C9 7475   3.459   0.901   9.682 -0.0126 -0.0186 -0.3054
   68CHL1    H9 7476   3.367   0.842   9.704  0.2619 -0.3462 -0.0321
   68CHL1   C10 7477   3.473   0.992   9.805 -0.1604  0.9096 -0.2024
   68CHL1   C19 7478   3.573   1.102   9.774 -0.4077  0.1246 -0.4824
   68CHL1  H19A 7479   3.657   1.063   9.712  0.2346 -2.9429  2.0683
   68CHL1  H19B 7480   3.525   1.186   9.720 -2.4990 -0.2402  0.7278
   68CHL1  H19C 7481   3.611   1.143   9.870  1.7872 -1.6676 -0.4955
   68CHL1    C1 7482   3.334   1.062   9.841  0.5005 -0.1333  0.2331
   68CHL1   H1A 7483   3.322   1.138   9.761  2.0158  3.0793  2.8012
   68CHL1   H1B 7484   3.257   0.982   9.834 -0.5406  0.8923 -0.2822
   68CHL1    C2 7485   3.342   1.136   9.973 -0.4541  0.5801 -0.5310
   68CHL1   H2A 7486   3.254   1.200   9.996 -0.6551 -0.3347  1.4673
   68CHL1   H2B 7487   3.422   1.213   9.966 -0.8306  1.2119  1.3742
   68CHL1   C20 7488   3.531   0.699   9.167 -0.0454  0.0296 -0.1808
   68CHL1   H20 7489   3.631   0.746   9.152 -0.4764  1.5024  1.2905
   68CHL1   C21 7490   3.426   0.796   9.108  0.4826  0.0144  0.5364
   68CHL1  H21A 7491   3.389   0.866   9.185 -1.0242 -1.9984  1.7212
   68CHL1  H21B 7492   3.332   0.743   9.083 -0.2657  0.6158  1.9354
   68CHL1  H21C 7493   3.462   0.859   9.023 -2.7292  2.4865  0.8346
   68CHL1   C22 7494   3.531   0.569   9.083  0.1259 -0.1159 -0.0648
   68CHL1  H22A 7495   3.584   0.482   9.127 -1.9385 -1.3883  0.0428
   68CHL1  H22B 7496   3.424   0.540   9.076  0.4230 -1.0899 -0.8885
   68CHL1   C23 7497   3.597   0.573   8.944  0.1975 -0.0328 -0.2817
   68CHL1  H23A 7498   3.517   0.628   8.888 -0.4736 -0.1343  0.5533
   68CHL1  H23B 7499   3.689   0.634   8.946 -0.1938  0.6116 -1.0396
   68CHL1   C24 7500   3.623   0.435   8.886  0.3167  0.3107  0.1803
   68CHL1  H24A 7501   3.704   0.386   8.944  0.1216 -2.7371 -1.9120
   68CHL1  H24B 7502   3.534   0.369   8.880  2.0628 -2.1357 -0.3104
   68CHL1   C25 7503   3.668   0.448   8.743 -0.8171  1.0090  0.0727
   68CHL1   H25 7504   3.666   0.344   8.703 -1.6121  0.7780  0.6841
   68CHL1   C26 7505   3.576   0.529   8.653 -0.2675 -0.2315  0.2371
   68CHL1  H26A 7506   3.471   0.496   8.664 -0.6520  0.8799 -0.0508
   68CHL1  H26B 7507   3.586   0.633   8.690  0.6506 -0.0979 -0.3292
   68CHL1  H26C 7508   3.605   0.527   8.545 -0.2052  0.1475  0.2461
   68CHL1   C27 7509   3.823   0.480   8.729  0.0576  0.0850  0.5400
   68CHL1  H27A 7510   3.848   0.579   8.774  2.1300 -0.9347  1.8315
   68CHL1  H27B 7511   3.888   0.414   8.791 -0.3756  1.1663  2.2345
   68CHL1  H27C 7512   3.845   0.480   8.620  1.9299 -1.0016  0.8699
   69CHL1    C3 7513   0.169   3.636   6.856 -0.5977 -0.2275 -0.0042
   69CHL1    H3 7514   0.074   3.691   6.869 -0.1477  0.4499  0.4951
   69CHL1    O3 7515   0.199   3.579   6.729  0.0929 -0.2873 -0.3325
   69CHL1   H3' 7516   0.181   3.643   6.660 -1.0588 -0.0100  0.2089
   69CHL1    C4 7517   0.271   3.731   6.911 -0.9511 -0.3234 -0.5953
   69CHL1   H4A 7518   0.370   3.682   6.903 -1.3132 -0.9488 -1.3394
   69CHL1   H4B 7519   0.280   3.818   6.842  1.2791  1.9109  2.2782
   69CHL1    C5 7520   0.253   3.782   7.050  0.3633  0.2330  0.1681
   69CHL1    C6 7521   0.258   3.915   7.077 -0.2433 -0.2226  0.5617
   69CHL1    H6 7522   0.292   3.987   7.001 -2.2705  1.6710  1.3502
   69CHL1    C7 7523   0.234   3.973   7.210 -0.5239  0.1312 -0.0118
   69CHL1   H7A 7524   0.305   4.051   7.244  1.5890 -0.5319 -2.5870
   69CHL1   H7B 7525   0.137   4.027   7.198 -1.3317 -1.7079 -2.4848
   69CHL1    C8 7526   0.236   3.866   7.325 -0.1312  0.0074 -0.8119
   69CHL1    H8 7527   0.341   3.845   7.356  0.2681  0.0863 -2.0696
   69CHL1   C14 7528   0.165   3.929   7.449  0.4889  0.0526 -0.2439
   69CHL1   H14 7529   0.062   3.947   7.410 -0.8096 -1.6675  2.1195
   69CHL1   C15 7530   0.212   4.069   7.498  0.5800 -0.0779  0.2861
   69CHL1  H15A 7531   0.320   4.096   7.499  0.5954 -0.0397  2.3605
   69CHL1  H15B 7532   0.156   4.145   7.441  0.5579  0.5177  1.0801
   69CHL1   C16 7533   0.155   4.070   7.643  0.2214 -0.1806 -0.0422
   69CHL1  H16A 7534   0.243   4.074   7.710 -0.1014  1.3394  0.3385
   69CHL1  H16B 7535   0.096   4.156   7.681 -1.7479 -1.5411  0.0911
   69CHL1   C17 7536   0.083   3.932   7.673  0.1161 -0.2524  1.2735
   69CHL1   H17 7537  -0.021   3.953   7.639  0.2833  0.5897  1.2462
   69CHL1   C13 7538   0.145   3.838   7.568  0.2861  0.5987 -0.1804
   69CHL1   C18 7539   0.289   3.791   7.613  0.6300  1.1059  0.0251
   69CHL1  H18A 7540   0.278   3.715   7.693 -0.9813  0.5709 -0.6779
   69CHL1  H18B 7541   0.344   3.734   7.535 -0.2207 -0.5508  0.5747
   69CHL1  H18C 7542   0.360   3.866   7.654  2.6004 -0.5619 -0.1642
   69CHL1   C12 7543   0.063   3.712   7.524  0.6307 -0.6151 -0.2835
   69CHL1  H12A 7544   0.051   3.636   7.605 -0.1771  1.7807  1.9769
   69CHL1  H12B 7545  -0.034   3.748   7.484  0.3271 -0.2812  0.7402
   69CHL1   C11 7546   0.128   3.643   7.401 -0.0349 -0.4802  0.6962
   69CHL1  H11A 7547   0.225   3.596   7.429 -0.0494 -0.1242  1.3655
   69CHL1  H11B 7548   0.067   3.558   7.363 -2.1726  1.3758 -0.2701
   69CHL1    C9 7549   0.154   3.742   7.282  0.1464  0.0157  0.3741
   69CHL1    H9 7550   0.053   3.773   7.247 -0.2611  0.7675  2.0903
   69CHL1   C10 7551   0.219   3.676   7.155 -0.6716 -0.1308 -0.5135
   69CHL1   C19 7552   0.352   3.612   7.199  0.1047  0.1174  0.0707
   69CHL1  H19A 7553   0.418   3.599   7.111 -1.5484  2.5409 -1.6980
   69CHL1  H19B 7554   0.410   3.681   7.264 -1.2813  1.8690 -0.4548
   69CHL1  H19C 7555   0.332   3.517   7.252 -1.0884 -0.2378 -0.9739
   69CHL1    C1 7556   0.128   3.560   7.092  0.1121  0.9442 -0.4870
   69CHL1   H1A 7557   0.132   3.474   7.162 -2.5845  1.4871  0.4910
   69CHL1   H1B 7558   0.022   3.593   7.104  0.6037  2.1457  0.7974
   69CHL1    C2 7559   0.158   3.517   6.950 -0.7352  0.1520  0.5558
   69CHL1   H2A 7560   0.077   3.448   6.919  0.7841 -3.2482  3.4045
   69CHL1   H2B 7561   0.253   3.458   6.951 -1.3575 -0.9101 -0.7483
   69CHL1   C20 7562   0.075   3.896   7.821  0.0875  0.0541 -0.5411
   69CHL1   H20 7563   0.178   3.867   7.852  1.1229  1.9559 -1.9144
   69CHL1   C21 7564  -0.024   3.778   7.843  0.0762 -0.5007  0.2262
   69CHL1  H21A 7565  -0.048   3.758   7.950 -0.7414 -1.0924 -0.0554
   69CHL1  H21B 7566   0.008   3.687   7.789 -1.1909  0.1090 -1.6852
   69CHL1  H21C 7567  -0.124   3.805   7.801  0.5289  0.7530 -0.0765
   69CHL1   C22 7568   0.039   4.022   7.904  0.2012  0.8854 -0.7900
   69CHL1  H22A 7569   0.120   4.098   7.903  2.6558 -1.5368 -0.2132
   69CHL1  H22B 7570  -0.051   4.064   7.854  0.4427 -0.1214 -2.1351
   69CHL1   C23 7571   0.003   4.008   8.054  0.0141  0.3318 -0.1610
   69CHL1  H23A 7572  -0.086   3.942   8.066 -1.7716  2.7268  0.5727
   69CHL1  H23B 7573   0.093   3.962   8.101  0.4770  1.1582 -0.2117
   69CHL1   C24 7574  -0.024   4.143   8.125 -0.5852 -0.5921  0.1034
   69CHL1  H24A 7575   0.076   4.193   8.124 -0.9166  0.1049  0.8106
   69CHL1  H24B 7576  -0.103   4.206   8.078  1.1461  1.3310 -0.4018
   69CHL1   C25 7577  -0.068   4.136   8.271 -0.2812  0.4742 -0.5686
   69CHL1   H25 7578  -0.158   4.072   8.262 -0.7942  1.1211 -0.0510
   69CHL1   C26 7579   0.037   4.065   8.365 -0.0532  0.4478  1.1669
   69CHL1  H26A 7580  -0.010   4.065   8.466 -2.7581 -1.9737  0.0423
   69CHL1  H26B 7581   0.055   3.960   8.334 -2.4034  0.0560  0.9141
   69CHL1  H26C 7582   0.127   4.129   8.354  0.2432 -0.3465 -1.9627
   69CHL1   C27 7583  -0.112   4.272   8.321 -0.0918 -0.0782  0.0050
   69CHL1  H27A 7584  -0.026   4.342   8.320 -0.0008 -0.0786  2.2996
   69CHL1  H27B 7585  -0.196   4.307   8.257 -2.5427 -0.0988  2.9680
   69CHL1  H27C 7586  -0.156   4.264   8.423 -1.7786  2.9942 -0.3651
   70CHL1    C3 7587   1.735   0.130   7.101 -0.0198 -0.5586 -0.3746
   70CHL1    H3 7588   1.837   0.152   7.139 -0.2194 -0.5141  0.1387
   70CHL1    O3 7589   1.745   0.112   6.962 -0.2784  0.4601 -0.1248
   70CHL1   H3' 7590   1.658   0.132   6.926 -0.9637 -0.8008  0.7397
   70CHL1    C4 7591   1.683   0.006   7.169  0.2558  0.0520 -0.6283
   70CHL1   H4A 7592   1.584  -0.007   7.120 -1.2486  1.3063  1.9123
   70CHL1   H4B 7593   1.749  -0.080   7.142 -1.3381 -1.7390  0.8599
   70CHL1    C5 7594   1.670   0.031   7.319  0.5219  0.9235 -0.4329
   70CHL1    C6 7595   1.739  -0.037   7.409  0.7752  0.6500 -0.2347
   70CHL1    H6 7596   1.793  -0.128   7.382  0.3377 -0.2147  1.6115
   70CHL1    C7 7597   1.733  -0.025   7.563 -0.4836  0.3832  0.0032
   70CHL1   H7A 7598   1.723  -0.126   7.609 -1.6393  0.6786  0.4377
   70CHL1   H7B 7599   1.830   0.017   7.596  0.7939 -2.5540  0.3722
   70CHL1    C8 7600   1.605   0.054   7.596 -0.5665  0.2816 -0.3485
   70CHL1    H8 7601   1.519  -0.013   7.576  1.2901 -1.7074 -2.2144
   70CHL1   C14 7602   1.620   0.085   7.742 -0.2140  0.4051 -0.2379
   70CHL1   H14 7603   1.700   0.161   7.753 -1.4535  1.6922  0.2882
   70CHL1   C15 7604   1.644  -0.033   7.843  0.0188 -0.0507 -0.1700
   70CHL1  H15A 7605   1.587  -0.122   7.810  1.5894 -1.8403  1.6209
   70CHL1  H15B 7606   1.745  -0.080   7.846  0.3986  0.7536  2.6371
   70CHL1   C16 7607   1.593   0.020   7.977 -0.0558  0.6868  0.7941
   70CHL1  H16A 7608   1.526  -0.053   8.028  0.3080  0.4434  0.9303
   70CHL1  H16B 7609   1.676   0.040   8.048  0.0212 -0.0383  0.9183
   70CHL1   C17 7610   1.538   0.169   7.949  0.0652 -0.6090  0.2888
   70CHL1   H17 7611   1.633   0.227   7.950  0.7859 -1.3899 -3.7914
   70CHL1   C13 7612   1.499   0.171   7.798 -0.8001 -0.3028 -0.3917
   70CHL1   C18 7613   1.370   0.098   7.784  0.3985  0.1638 -0.0412
   70CHL1  H18A 7614   1.341   0.082   7.678  0.9639 -3.4706  0.2238
   70CHL1  H18B 7615   1.363  -0.007   7.819 -1.7959 -0.3873 -1.8478
   70CHL1  H18C 7616   1.293   0.156   7.841 -1.8718 -1.9357 -0.7948
   70CHL1   C12 7617   1.496   0.301   7.725  0.0461  0.2178  0.7273
   70CHL1  H12A 7618   1.414   0.369   7.757 -0.8396 -0.4294 -0.0986
   70CHL1  H12B 7619   1.585   0.364   7.747 -0.0679  0.9874 -0.8734
   70CHL1   C11 7620   1.486   0.274   7.574 -0.6616  0.3560  0.1256
   70CHL1  H11A 7621   1.387   0.227   7.556  0.1227 -0.5955 -1.9720
   70CHL1  H11B 7622   1.494   0.368   7.514 -0.5603 -0.0480 -0.5043
   70CHL1    C9 7623   1.598   0.177   7.512 -0.0121  0.0109  0.1456
   70CHL1    H9 7624   1.690   0.238   7.523 -0.0253  0.8287 -3.2240
   70CHL1   C10 7625   1.584   0.154   7.357 -0.1621 -0.3355 -0.1677
   70CHL1   C19 7626   1.437   0.134   7.323  0.2193  0.5894 -0.4472
   70CHL1  H19A 7627   1.428   0.104   7.216  3.5871  0.5670 -0.8186
   70CHL1  H19B 7628   1.392   0.058   7.390  1.6816 -0.5847 -0.7494
   70CHL1  H19C 7629   1.385   0.227   7.353  0.2383 -0.2779  2.6618
   70CHL1    C1 7630   1.651   0.275   7.280 -0.0734  0.6973  0.9844
   70CHL1   H1A 7631   1.578   0.357   7.293 -1.8558 -0.6984  0.2223
   70CHL1   H1B 7632   1.754   0.300   7.314  1.0036 -0.8868 -0.8528
   70CHL1    C2 7633   1.649   0.248   7.126  0.0175 -0.7058  0.1475
   70CHL1   H2A 7634   1.694   0.339   7.079 -0.2105 -0.3960  0.5246
   70CHL1   H2B 7635   1.547   0.236   7.084 -0.4921 -1.9037  1.6579
   70CHL1   C20 7636   1.442   0.214   8.063 -0.4489 -0.4506  0.2586
   70CHL1   H20 7637   1.353   0.149   8.070 -1.8324  1.4375  1.1400
   70CHL1   C21 7638   1.371   0.353   8.037  0.3932 -0.6201  0.6046
   70CHL1  H21A 7639   1.299   0.371   8.120 -1.6584 -1.4290 -0.9092
   70CHL1  H21B 7640   1.309   0.359   7.945  0.0166  0.1887  0.9084
   70CHL1  H21C 7641   1.448   0.433   8.039 -0.1605 -0.0510 -0.2730
   70CHL1   C22 7642   1.514   0.214   8.198 -0.4639 -0.4011  0.0194
   70CHL1  H22A 7643   1.568   0.118   8.209  1.1396  0.3937 -0.6374
   70CHL1  H22B 7644   1.590   0.295   8.205  0.6887 -1.3652 -0.9259
   70CHL1   C23 7645   1.405   0.213   8.309 -0.4092 -0.4667 -0.4664
   70CHL1  H23A 7646   1.323   0.286   8.295  0.7411  1.3133  1.5127
   70CHL1  H23B 7647   1.362   0.111   8.305  0.3548 -0.7912 -0.5304
   70CHL1   C24 7648   1.464   0.239   8.451 -0.0111 -0.2083 -0.0439
   70CHL1  H24A 7649   1.492   0.346   8.454 -0.2554 -0.1255 -0.5519
   70CHL1  H24B 7650   1.394   0.201   8.528  1.0064 -1.5689  0.2266
   70CHL1   C25 7651   1.594   0.151   8.479  0.2838  0.1508 -0.2820
   70CHL1   H25 7652   1.669   0.166   8.399  2.4248 -2.5110  1.0482
   70CHL1   C26 7653   1.651   0.211   8.600 -1.2845  0.7917  0.5118
   70CHL1  H26A 7654   1.591   0.218   8.693  0.7423  3.2269  1.7647
   70CHL1  H26B 7655   1.743   0.152   8.620 -0.0042  2.3815 -0.4402
   70CHL1  H26C 7656   1.687   0.313   8.576 -0.3208  0.0244 -1.5469
   70CHL1   C27 7657   1.575  -0.005   8.503  0.0011 -0.7619  0.5525
   70CHL1  H27A 7658   1.495  -0.030   8.577 -0.3066  0.5876  0.7077
   70CHL1  H27B 7659   1.556  -0.046   8.402  1.3315  2.5488 -1.1974
   70CHL1  H27C 7660   1.677  -0.042   8.529  0.1479 -0.7893 -0.0653
   71CHL1    C3 7661   1.820   1.369   6.879  0.5608  0.2201  0.5875
   71CHL1    H3 7662   1.918   1.414   6.903  0.3678  0.3529  1.1473
   71CHL1    O3 7663   1.791   1.379   6.745  0.2101 -0.0034  0.1499
   71CHL1   H3' 7664   1.794   1.288   6.713  1.7056 -0.4178  1.3207
   71CHL1    C4 7665   1.815   1.216   6.914  0.5785  0.0675 -1.0453
   71CHL1   H4A 7666   1.711   1.197   6.881  1.1701 -1.3892 -2.1099
   71CHL1   H4B 7667   1.883   1.150   6.857  0.2742 -2.4618  1.3115
   71CHL1    C5 7668   1.834   1.195   7.066  0.4391  0.2196  1.1705
   71CHL1    C6 7669   1.934   1.116   7.109  0.5811 -0.5307 -0.0846
   71CHL1    H6 7670   2.006   1.076   7.036  3.2002  0.5146  1.7622
   71CHL1    C7 7671   1.973   1.103   7.253 -0.1824  0.8415 -0.3919
   71CHL1   H7A 7672   2.009   1.003   7.283  2.4663  1.7905 -0.1299
   71CHL1   H7B 7673   2.064   1.167   7.258  1.3983 -1.3696  0.5458
   71CHL1    C8 7674   1.869   1.153   7.346  0.7539 -0.4494 -1.0755
   71CHL1    H8 7675   1.785   1.083   7.367  0.4226  0.2282 -0.1117
   71CHL1   C14 7676   1.937   1.179   7.484 -0.3691  0.0661  0.5690
   71CHL1   H14 7677   2.013   1.259   7.471 -0.2839 -0.0094  0.6100
   71CHL1   C15 7678   2.024   1.070   7.550  0.1461  0.4050 -0.4880
   71CHL1  H15A 7679   1.961   0.980   7.540  0.8516 -0.0283 -1.2142
   71CHL1  H15B 7680   2.119   1.037   7.503  0.1583  0.5040 -0.5337
   71CHL1   C16 7681   2.043   1.121   7.695  0.3484 -0.4207 -0.4552
   71CHL1  H16A 7682   2.024   1.031   7.757 -0.3374 -0.6639 -1.0082
   71CHL1  H16B 7683   2.147   1.157   7.688  0.0525  0.1557 -2.8663
   71CHL1   C17 7684   1.952   1.246   7.711 -0.9410 -0.2606 -0.5159
   71CHL1   H17 7685   2.023   1.329   7.690  0.7469 -1.4634  0.2133
   71CHL1   C13 7686   1.853   1.239   7.599  0.6360 -0.6987  0.8057
   71CHL1   C18 7687   1.745   1.139   7.633  0.4327  0.6380  0.4312
   71CHL1  H18A 7688   1.689   1.096   7.548  0.8266 -0.2962  0.6276
   71CHL1  H18B 7689   1.793   1.048   7.675 -1.1730 -0.0448  0.8646
   71CHL1  H18C 7690   1.669   1.178   7.705 -0.0858 -0.9461  0.7803
   71CHL1   C12 7691   1.785   1.367   7.549 -0.4990  0.2287 -0.0960
   71CHL1  H12A 7692   1.710   1.406   7.621 -2.0238 -0.2690 -1.3535
   71CHL1  H12B 7693   1.869   1.438   7.533  1.6519 -2.0960  0.3614
   71CHL1   C11 7694   1.717   1.341   7.404 -0.5266  0.5629 -0.5181
   71CHL1  H11A 7695   1.636   1.267   7.420  0.5626 -0.5796 -0.1117
   71CHL1  H11B 7696   1.669   1.438   7.378 -0.1623  0.8791 -0.0434
   71CHL1    C9 7697   1.810   1.280   7.295  0.6114 -0.0140  0.5654
   71CHL1    H9 7698   1.899   1.346   7.291  1.7039 -1.3185  2.1700
   71CHL1   C10 7699   1.750   1.281   7.156 -0.2387 -0.0851 -0.1276
   71CHL1   C19 7700   1.612   1.221   7.157 -0.2143  0.4984 -0.0750
   71CHL1  H19A 7701   1.564   1.214   7.057  1.2681 -1.0972 -0.7379
   71CHL1  H19B 7702   1.613   1.124   7.211  1.5184  0.3589 -0.3020
   71CHL1  H19C 7703   1.550   1.291   7.216  0.0188  1.2703 -0.7182
   71CHL1    C1 7704   1.741   1.433   7.110 -0.6774 -0.8061 -0.1123
   71CHL1   H1A 7705   1.661   1.480   7.171  0.2465 -0.3414  0.7675
   71CHL1   H1B 7706   1.834   1.489   7.130 -1.3618  0.2219  0.2790
   71CHL1    C2 7707   1.705   1.441   6.960  0.1153 -0.5104 -1.0172
   71CHL1   H2A 7708   1.692   1.547   6.932 -0.4351 -0.1913  0.4011
   71CHL1   H2B 7709   1.606   1.391   6.947 -0.3026  0.4716 -1.7404
   71CHL1   C20 7710   1.901   1.253   7.856  0.2870  0.0883  0.6346
   71CHL1   H20 7711   1.819   1.180   7.877 -1.2756  1.0561 -1.6589
   71CHL1   C21 7712   1.834   1.391   7.882  0.9813 -0.0653 -0.2274
   71CHL1  H21A 7713   1.895   1.482   7.900  0.4121  0.6982 -1.9496
   71CHL1  H21B 7714   1.779   1.380   7.978 -0.3691  0.4510 -0.9139
   71CHL1  H21C 7715   1.760   1.404   7.800  0.5144 -0.6920  0.0834
   71CHL1   C22 7716   2.017   1.220   7.960  0.2991 -0.5330  0.6149
   71CHL1  H22A 7717   2.055   1.116   7.949 -0.6759 -1.2121  2.9509
   71CHL1  H22B 7718   2.105   1.282   7.933 -0.1555 -1.1146 -2.6373
   71CHL1   C23 7719   1.983   1.237   8.112 -0.2700 -0.0416 -0.5817
   71CHL1  H23A 7720   1.965   1.343   8.140  1.9063  0.3511 -0.5036
   71CHL1  H23B 7721   1.899   1.168   8.135 -1.0883  0.6041 -1.5452
   71CHL1   C24 7722   2.091   1.192   8.207 -0.2516 -0.7975  0.4103
   71CHL1  H24A 7723   2.151   1.107   8.167  2.2569  0.2105  1.7881
   71CHL1  H24B 7724   2.171   1.268   8.201  2.1163 -2.7558  3.8557
   71CHL1   C25 7725   2.055   1.201   8.355  0.3765 -0.8024 -0.2124
   71CHL1   H25 7726   2.007   1.300   8.366  0.4576 -0.8511  0.6970
   71CHL1   C26 7727   1.950   1.100   8.403 -0.2251  0.1262 -1.1954
   71CHL1  H26A 7728   1.911   1.140   8.498  0.5485  3.9282 -2.3283
   71CHL1  H26B 7729   1.871   1.089   8.325  0.6048  1.1711 -2.2133
   71CHL1  H26C 7730   1.990   0.998   8.422  0.3042  0.8731  2.2166
   71CHL1   C27 7731   2.186   1.197   8.437  0.1238 -0.1077  0.0369
   71CHL1  H27A 7732   2.233   1.097   8.430  0.5733 -0.0830  2.0294
   71CHL1  H27B 7733   2.259   1.269   8.395  1.9504 -0.9243  1.6643
   71CHL1  H27C 7734   2.168   1.227   8.543 -1.4465 -1.4929  0.2017
   72CHL1    C3 7735   2.686   0.334   7.149 -1.0182 -0.4727 -0.0498
   72CHL1    H3 7736   2.734   0.235   7.140 -2.4986 -1.2424  0.2460
   72CHL1    O3 7737   2.698   0.396   7.026  0.1636 -0.5463 -0.9367
   72CHL1   H3' 7738   2.662   0.341   6.957  0.1669 -0.7194 -0.8004
   72CHL1    C4 7739   2.549   0.325   7.194  1.1656  0.7181  0.7182
   72CHL1   H4A 7740   2.508   0.428   7.210  1.0192  0.3394  3.2557
   72CHL1   H4B 7741   2.493   0.285   7.107  0.3687  0.3045  1.4012
   72CHL1    C5 7742   2.535   0.254   7.329 -0.1502  1.0148 -0.2419
   72CHL1    C6 7743   2.457   0.144   7.340 -0.0974 -0.3418 -0.0329
   72CHL1    H6 7744   2.406   0.109   7.250 -0.2134 -1.0917  0.3208
   72CHL1    C7 7745   2.428   0.069   7.465 -0.0356 -0.1709 -0.2901
   72CHL1   H7A 7746   2.318   0.056   7.468 -0.1647  0.1908 -2.0763
   72CHL1   H7B 7747   2.461  -0.037   7.464 -1.7866 -0.7678 -2.4452
   72CHL1    C8 7748   2.475   0.145   7.591 -0.7866 -0.1088  0.1201
   72CHL1    H8 7749   2.412   0.231   7.622 -1.8961 -1.4917  1.9221
   72CHL1   C14 7750   2.470   0.058   7.717 -0.3932  0.1414 -0.0918
   72CHL1   H14 7751   2.532  -0.028   7.682 -2.4166 -0.8787 -1.3933
   72CHL1   C15 7752   2.340  -0.007   7.759  0.3311  0.2065  0.1080
   72CHL1  H15A 7753   2.257   0.067   7.755  1.2181  1.1696 -0.9710
   72CHL1  H15B 7754   2.317  -0.086   7.685  0.4970  1.8168 -1.7290
   72CHL1   C16 7755   2.370  -0.059   7.900  0.2912 -0.0540  0.1209
   72CHL1  H16A 7756   2.278  -0.021   7.950  1.3269  2.6721  0.1469
   72CHL1  H16B 7757   2.392  -0.168   7.897  0.1170 -0.0602 -1.6302
   72CHL1   C17 7758   2.501   0.017   7.946 -0.9675 -0.2932  0.0815
   72CHL1   H17 7759   2.586  -0.054   7.934  0.2375  1.4394 -2.2741
   72CHL1   C13 7760   2.522   0.131   7.845 -0.3752 -0.5557 -0.5887
   72CHL1   C18 7761   2.439   0.250   7.892  0.3732 -0.6274  0.5920
   72CHL1  H18A 7762   2.434   0.328   7.813 -0.8386 -0.5884  0.6801
   72CHL1  H18B 7763   2.335   0.219   7.918  0.7528  0.6438  4.0439
   72CHL1  H18C 7764   2.478   0.297   7.984 -2.0538  0.8322  0.9666
   72CHL1   C12 7765   2.664   0.175   7.823 -0.5424 -0.0265  0.6046
   72CHL1  H12A 7766   2.704   0.234   7.908  1.9078  1.1021 -1.1866
   72CHL1  H12B 7767   2.733   0.090   7.807 -0.4289  0.4235 -1.7517
   72CHL1   C11 7768   2.667   0.275   7.699 -0.2321  0.8171 -0.5576
   72CHL1  H11A 7769   2.601   0.360   7.726 -1.8649 -0.4338 -0.4374
   72CHL1  H11B 7770   2.771   0.309   7.682  0.3250 -0.1933  0.6724
   72CHL1    C9 7771   2.614   0.209   7.571 -0.3952 -0.3058 -0.0296
   72CHL1    H9 7772   2.688   0.129   7.550  0.7420  0.7636 -0.2254
   72CHL1   C10 7773   2.620   0.305   7.450  0.1733  0.4203 -0.0894
   72CHL1   C19 7774   2.559   0.449   7.484 -0.4165  0.5148 -0.4548
   72CHL1  H19A 7775   2.550   0.514   7.395  3.8856  2.4063  0.2571
   72CHL1  H19B 7776   2.463   0.438   7.538 -0.1317 -0.9374 -0.1843
   72CHL1  H19C 7777   2.627   0.511   7.546  1.0275 -0.2913 -1.1703
   72CHL1    C1 7778   2.764   0.322   7.392  1.0602 -0.4449 -0.1740
   72CHL1   H1A 7779   2.824   0.385   7.461 -0.5434  1.6271 -0.5691
   72CHL1   H1B 7780   2.814   0.224   7.376  2.3612  0.2473 -0.4569
   72CHL1    C2 7781   2.773   0.399   7.259  0.2899  0.4900  0.7428
   72CHL1   H2A 7782   2.877   0.426   7.228  0.7543 -0.8055  1.1031
   72CHL1   H2B 7783   2.721   0.492   7.291 -1.4525 -0.6561  1.3456
   72CHL1   C20 7784   2.497   0.038   8.099  0.8373  0.2955 -0.3586
   72CHL1   H20 7785   2.407   0.097   8.122 -0.3979 -1.4733 -0.4522
   72CHL1   C21 7786   2.632   0.098   8.146  0.5491 -0.1345  0.0041
   72CHL1  H21A 7787   2.647   0.197   8.098 -2.0816  0.0318 -0.6244
   72CHL1  H21B 7788   2.711   0.026   8.115  0.2782 -0.2968 -0.3127
   72CHL1  H21C 7789   2.623   0.121   8.254 -1.5687 -0.6536 -0.0179
   72CHL1   C22 7790   2.464  -0.101   8.168  0.1310 -0.1789 -0.2714
   72CHL1  H22A 7791   2.371  -0.151   8.133 -0.2903  0.4593 -0.0825
   72CHL1  H22B 7792   2.542  -0.180   8.159 -2.0988 -2.5565  0.0097
   72CHL1   C23 7793   2.445  -0.090   8.322 -0.8720  0.2396  0.7052
   72CHL1  H23A 7794   2.547  -0.090   8.367 -0.3105  1.4944 -0.4845
   72CHL1  H23B 7795   2.401   0.004   8.360 -0.0506  0.6751  0.6159
   72CHL1   C24 7796   2.378  -0.211   8.383  0.5260 -0.5931 -0.0169
   72CHL1  H24A 7797   2.275  -0.228   8.343  0.8071 -1.1949 -0.5013
   72CHL1  H24B 7798   2.436  -0.297   8.343  0.4740  0.3392 -2.2508
   72CHL1   C25 7799   2.378  -0.231   8.532  0.4736 -1.0281 -0.3772
   72CHL1   H25 7800   2.484  -0.213   8.561  0.3037  2.4413 -1.4904
   72CHL1   C26 7801   2.288  -0.135   8.609 -0.1334  0.9849 -0.4577
   72CHL1  H26A 7802   2.188  -0.124   8.562 -0.1037  2.4345 -0.2129
   72CHL1  H26B 7803   2.272  -0.176   8.712 -1.7523 -1.4873 -1.5953
   72CHL1  H26C 7804   2.341  -0.038   8.600  1.9927 -0.1364 -0.6114
   72CHL1   C27 7805   2.334  -0.377   8.572 -0.1145 -0.1938 -0.1507
   72CHL1  H27A 7806   2.410  -0.438   8.519 -0.1941 -0.4052 -0.0212
   72CHL1  H27B 7807   2.346  -0.396   8.681  3.5294 -1.3627 -0.6143
   72CHL1  H27C 7808   2.231  -0.399   8.537  0.3702 -2.0644 -0.4970
   73CHL1    C3 7809   6.049   2.396   6.948  0.1639  0.3003  0.3168
   73CHL1    H3 7810   6.156   2.376   6.972  0.1176  0.6552  0.8487
   73CHL1    O3 7811   6.027   2.376   6.808 -0.7302 -0.1710 -0.3976
   73CHL1   H3' 7812   6.079   2.297   6.791  0.7422  0.8107 -0.6565
   73CHL1    C4 7813   5.974   2.280   7.020 -0.4223  0.4467  0.2604
   73CHL1   H4A 7814   5.870   2.286   6.981  0.0146 -1.3072 -1.3283
   73CHL1   H4B 7815   6.008   2.180   6.984  1.5543  0.7087  1.2885
   73CHL1    C5 7816   5.973   2.293   7.173  0.3960 -0.4106  0.1625
   73CHL1    C6 7817   6.021   2.185   7.247  0.3372 -1.2661  0.0251
   73CHL1    H6 7818   6.044   2.088   7.199  0.9464 -1.5783  0.9185
   73CHL1    C7 7819   6.037   2.189   7.392 -0.0007  0.4645 -0.7821
   73CHL1   H7A 7820   6.005   2.093   7.438  1.2611 -0.1445 -1.1252
   73CHL1   H7B 7821   6.147   2.199   7.405 -0.1805  2.5492 -0.4990
   73CHL1    C8 7822   5.972   2.305   7.464 -0.5034 -0.3711  0.4176
   73CHL1    H8 7823   5.862   2.287   7.455 -0.4200 -0.7633  0.1773
   73CHL1   C14 7824   6.014   2.310   7.609 -0.3800 -0.1460  0.3962
   73CHL1   H14 7825   6.123   2.333   7.617 -0.7374  0.9988  3.1206
   73CHL1   C15 7826   5.986   2.190   7.703 -0.6118  0.3359  0.0731
   73CHL1  H15A 7827   5.881   2.152   7.697 -0.5667  0.3300 -0.7957
   73CHL1  H15B 7828   6.066   2.114   7.698  1.0007  1.9594 -0.0040
   73CHL1   C16 7829   5.986   2.258   7.843 -0.0156  0.2855  0.2414
   73CHL1  H16A 7830   5.889   2.240   7.895  0.7725  0.7497  1.9465
   73CHL1  H16B 7831   6.068   2.226   7.910  2.4068  1.6852 -1.8820
   73CHL1   C17 7832   6.008   2.411   7.816  0.7232  0.5476  0.4631
   73CHL1   H17 7833   6.117   2.417   7.799  0.6427 -0.5341 -0.5220
   73CHL1   C13 7834   5.949   2.429   7.673 -0.2299  0.2855 -0.0367
   73CHL1   C18 7835   5.795   2.409   7.680  0.0936  0.2971 -0.7559
   73CHL1  H18A 7836   5.735   2.483   7.737 -1.3863 -3.8190  3.7141
   73CHL1  H18B 7837   5.738   2.409   7.585 -3.0221  1.1318  0.9706
   73CHL1  H18C 7838   5.762   2.314   7.727 -1.8331  1.6102  0.7047
   73CHL1   C12 7839   5.969   2.564   7.604  0.0586 -0.7280  0.1522
   73CHL1  H12A 7840   5.913   2.641   7.661 -0.4266  0.6555 -2.0648
   73CHL1  H12B 7841   6.078   2.584   7.610  0.4096 -2.3811 -0.1729
   73CHL1   C11 7842   5.930   2.560   7.460  0.0597 -0.2707  0.2587
   73CHL1  H11A 7843   5.820   2.551   7.456  0.1484 -1.4881  0.3291
   73CHL1  H11B 7844   5.948   2.656   7.406 -1.8152  0.1106  0.2623
   73CHL1    C9 7845   5.984   2.439   7.385  0.5505  0.5084 -0.2749
   73CHL1    H9 7846   6.095   2.448   7.391  0.8898 -1.8700 -1.7664
   73CHL1   C10 7847   5.934   2.430   7.236 -0.2205  0.2247 -0.2133
   73CHL1   C19 7848   5.778   2.446   7.217  0.1334  0.2613  0.4929
   73CHL1  H19A 7849   5.732   2.358   7.266 -2.3260  0.2297 -1.6592
   73CHL1  H19B 7850   5.735   2.538   7.262  0.2260  1.2215 -1.3217
   73CHL1  H19C 7851   5.754   2.451   7.109 -2.8204 -1.8558  0.9173
   73CHL1    C1 7852   5.997   2.546   7.153 -1.2030 -0.0304 -0.0493
   73CHL1   H1A 7853   5.938   2.636   7.181  0.8781  1.1890  0.6368
   73CHL1   H1B 7854   6.105   2.568   7.168 -1.0909  0.7306 -1.7941
   73CHL1    C2 7855   5.996   2.538   6.993  0.8001  0.6079 -0.2861
   73CHL1   H2A 7856   6.060   2.618   6.951 -0.7257  0.2921 -3.4679
   73CHL1   H2B 7857   5.897   2.564   6.951 -0.7005 -1.5405  1.6380
   73CHL1   C20 7858   5.979   2.508   7.926  0.2572  0.5515  0.1370
   73CHL1   H20 7859   5.874   2.543   7.916  0.8394  2.2997 -0.2939
   73CHL1   C21 7860   6.072   2.641   7.914 -0.6737  0.2924  0.4656
   73CHL1  H21A 7861   6.051   2.698   7.820 -0.3972  0.0550  0.2597
   73CHL1  H21B 7862   6.181   2.621   7.915 -0.6406  0.5068  1.1638
   73CHL1  H21C 7863   6.054   2.711   7.998 -1.1398  3.1433 -1.8219
   73CHL1   C22 7864   5.983   2.446   8.068  0.3168 -0.6762 -0.0343
   73CHL1  H22A 7865   5.926   2.507   8.142  0.5684 -0.1892 -0.2369
   73CHL1  H22B 7866   5.939   2.344   8.066  0.9539 -0.9602 -2.6586
   73CHL1   C23 7867   6.129   2.439   8.121  0.0692  0.8285 -0.4027
   73CHL1  H23A 7868   6.183   2.399   8.033 -0.2616 -1.6049  0.4324
   73CHL1  H23B 7869   6.161   2.542   8.149 -2.2682  1.8859 -1.4438
   73CHL1   C24 7870   6.155   2.341   8.243  0.5846  0.1282  0.5593
   73CHL1  H24A 7871   6.142   2.244   8.191  1.7569  0.6721 -0.8297
   73CHL1  H24B 7872   6.257   2.355   8.283  1.3806  0.5990 -1.5051
   73CHL1   C25 7873   6.058   2.349   8.369 -0.3630  0.0796 -0.0703
   73CHL1   H25 7874   5.951   2.346   8.339 -0.4773 -1.5035  0.3933
   73CHL1   C26 7875   6.063   2.222   8.459  0.1217 -0.1356 -0.1302
   73CHL1  H26A 7876   6.028   2.134   8.401 -2.2322  0.4063  0.3580
   73CHL1  H26B 7877   6.167   2.200   8.491  0.5127  0.6390 -0.8128
   73CHL1  H26C 7878   5.999   2.232   8.549 -1.6324 -0.4200 -1.3143
   73CHL1   C27 7879   6.095   2.467   8.456 -0.0978 -0.4321 -0.4448
   73CHL1  H27A 7880   6.018   2.498   8.529  2.0856  3.9662  0.2669
   73CHL1  H27B 7881   6.184   2.441   8.516 -1.4342 -0.1859  1.7360
   73CHL1  H27C 7882   6.123   2.566   8.414 -0.2349  0.0491  0.5708
   74CHL1    C3 7883   2.318   1.559   6.739 -1.0454  0.0127 -0.5886
   74CHL1    H3 7884   2.363   1.660   6.737  0.6968 -0.5906  2.0570
   74CHL1    O3 7885   2.313   1.515   6.612 -0.3286 -0.0779  0.3662
   74CHL1   H3' 7886   2.308   1.587   6.549 -0.7743 -1.2550 -0.9905
   74CHL1    C4 7887   2.393   1.457   6.829 -0.1030  0.0065 -0.3411
   74CHL1   H4A 7888   2.330   1.366   6.822 -1.4078  0.7753  0.9063
   74CHL1   H4B 7889   2.494   1.440   6.785 -0.2520 -0.4549 -0.5161
   74CHL1    C5 7890   2.391   1.497   6.973  0.3502 -0.5460  0.1379
   74CHL1    C6 7891   2.506   1.522   7.036  0.1263 -0.1442  0.5732
   74CHL1    H6 7892   2.602   1.493   6.991  1.9577 -1.0129  4.5743
   74CHL1    C7 7893   2.524   1.567   7.175  0.2097  0.1183  0.3000
   74CHL1   H7A 7894   2.594   1.503   7.233  1.1964 -0.2521 -1.2399
   74CHL1   H7B 7895   2.570   1.668   7.175 -0.5814  0.4991 -0.9706
   74CHL1    C8 7896   2.392   1.572   7.255  0.6036  0.0940 -0.0255
   74CHL1    H8 7897   2.366   1.466   7.276  1.1899 -0.2983 -1.2133
   74CHL1   C14 7898   2.389   1.666   7.375 -0.4703  0.2100 -0.4295
   74CHL1   H14 7899   2.401   1.767   7.330  2.9634 -0.0147 -0.2987
   74CHL1   C15 7900   2.511   1.653   7.470 -0.0661 -0.1755 -0.2628
   74CHL1  H15A 7901   2.530   1.546   7.494 -0.9480  0.0015  1.3459
   74CHL1  H15B 7902   2.608   1.690   7.430  0.2001 -1.9747 -1.4326
   74CHL1   C16 7903   2.462   1.726   7.594 -0.4225  0.1259  0.5698
   74CHL1  H16A 7904   2.489   1.657   7.677  0.8753 -3.6036 -2.6422
   74CHL1  H16B 7905   2.503   1.829   7.600 -0.1478  0.0630 -0.1465
   74CHL1   C17 7906   2.310   1.751   7.578  0.6230  0.5001 -0.4084
   74CHL1   H17 7907   2.293   1.857   7.553  2.1371  1.5365  2.5336
   74CHL1   C13 7908   2.264   1.665   7.458 -0.1263 -0.0524 -0.3211
   74CHL1   C18 7909   2.230   1.525   7.512 -0.1337 -0.3134  0.0054
   74CHL1  H18A 7910   2.136   1.521   7.570  0.2262  1.3812  0.7704
   74CHL1  H18B 7911   2.234   1.448   7.432  1.9263 -2.0860  1.7043
   74CHL1  H18C 7912   2.311   1.490   7.579  1.6161  1.7124 -0.9242
   74CHL1   C12 7913   2.153   1.728   7.368 -0.4145  0.2917  0.5292
   74CHL1  H12A 7914   2.056   1.760   7.412 -0.2025  0.4843  0.8554
   74CHL1  H12B 7915   2.192   1.822   7.324 -0.4144 -0.3783 -0.9673
   74CHL1   C11 7916   2.132   1.644   7.239 -0.1840  0.8906  0.0793
   74CHL1  H11A 7917   2.108   1.539   7.266  0.2909  0.5200 -0.8928
   74CHL1  H11B 7918   2.056   1.694   7.174  1.1207  2.6415 -0.1641
   74CHL1    C9 7919   2.271   1.620   7.164 -0.5386 -0.4005  0.4877
   74CHL1    H9 7920   2.304   1.720   7.128 -1.2163 -0.8336 -1.4550
   74CHL1   C10 7921   2.258   1.535   7.034 -0.1189  0.0562 -0.7473
   74CHL1   C19 7922   2.179   1.404   7.072 -0.6988 -0.2272 -0.1002
   74CHL1  H19A 7923   2.078   1.406   7.118 -0.0112 -1.0401  1.5572
   74CHL1  H19B 7924   2.173   1.337   6.984  2.2897 -2.1035  0.9629
   74CHL1  H19C 7925   2.241   1.345   7.144 -0.7654 -0.8859 -0.5717
   74CHL1    C1 7926   2.170   1.619   6.939 -0.2456 -0.1431 -0.6603
   74CHL1   H1A 7927   2.067   1.610   6.979 -1.6749  2.9944 -3.1344
   74CHL1   H1B 7928   2.206   1.724   6.943  0.1491 -0.2255 -1.6653
   74CHL1    C2 7929   2.174   1.567   6.794  0.4024 -0.3443  0.3803
   74CHL1   H2A 7930   2.113   1.640   6.737  1.6862  1.3849  1.1321
   74CHL1   H2B 7931   2.122   1.469   6.785 -1.7614  0.8573 -1.0093
   74CHL1   C20 7932   2.235   1.735   7.712 -0.2015  1.0492 -0.6619
   74CHL1   H20 7933   2.248   1.632   7.751 -1.3975  1.7388  1.7944
   74CHL1   C21 7934   2.078   1.767   7.692 -0.0999 -0.1259 -0.7940
   74CHL1  H21A 7935   2.017   1.742   7.782 -1.9490 -1.1274 -2.2512
   74CHL1  H21B 7936   2.034   1.694   7.621 -1.8950 -2.2202  2.2267
   74CHL1  H21C 7937   2.062   1.873   7.662 -2.0390 -0.2504 -0.3273
   74CHL1   C22 7938   2.307   1.825   7.823  0.0421 -0.6629 -0.5022
   74CHL1  H22A 7939   2.417   1.830   7.811 -0.0133  0.7868 -0.6011
   74CHL1  H22B 7940   2.277   1.929   7.797 -0.1873 -0.9768 -1.5519
   74CHL1   C23 7941   2.276   1.794   7.968  1.0135 -0.8917 -0.1847
   74CHL1  H23A 7942   2.269   1.889   8.025 -3.1320 -2.2829  2.0771
   74CHL1  H23B 7943   2.167   1.770   7.970  0.0610  2.1079 -3.7237
   74CHL1   C24 7944   2.356   1.680   8.040  0.2376 -0.0592 -0.3401
   74CHL1  H24A 7945   2.348   1.590   7.976  1.6845  0.2442 -1.0024
   74CHL1  H24B 7946   2.462   1.705   8.063  0.0111  0.0135  0.6869
   74CHL1   C25 7947   2.289   1.636   8.168 -0.0622  0.2829  0.6225
   74CHL1   H25 7948   2.191   1.596   8.133  0.2660  1.3270 -1.6267
   74CHL1   C26 7949   2.363   1.523   8.242 -0.3847  0.2523 -0.5191
   74CHL1  H26A 7950   2.327   1.425   8.203 -3.9673  1.3104 -0.1944
   74CHL1  H26B 7951   2.473   1.521   8.226 -0.5820 -1.4891 -2.0447
   74CHL1  H26C 7952   2.340   1.522   8.350  0.6659  2.4604 -0.2071
   74CHL1   C27 7953   2.279   1.750   8.264 -0.1031  0.7017  0.3837
   74CHL1  H27A 7954   2.236   1.699   8.353  0.2857 -0.9588 -0.3364
   74CHL1  H27B 7955   2.375   1.798   8.293  0.5575 -0.9915  1.1413
   74CHL1  H27C 7956   2.207   1.824   8.222 -1.9096 -0.5963  1.0732
   75CHL1    C3 7957   3.658   4.031   6.705  1.0433  0.3375  0.2721
   75CHL1    H3 7958   3.713   4.112   6.758  0.1783  0.8953  0.3237
   75CHL1    O3 7959   3.699   4.048   6.574  0.3958  0.2522  0.0705
   75CHL1   H3' 7960   3.684   3.961   6.537 -1.0585  0.4710  0.1066
   75CHL1    C4 7961   3.690   3.896   6.760 -0.3461 -0.6681  0.0057
   75CHL1   H4A 7962   3.648   3.814   6.697 -1.5754 -0.3607  0.3843
   75CHL1   H4B 7963   3.799   3.880   6.750 -0.5081 -0.6993 -2.2973
   75CHL1    C5 7964   3.633   3.873   6.896 -0.0866 -0.5802 -0.1925
   75CHL1    C6 7965   3.722   3.835   6.997  0.5265 -0.5011  0.2295
   75CHL1    H6 7966   3.831   3.834   6.985  0.4533  0.8906 -0.7289
   75CHL1    C7 7967   3.660   3.815   7.137  0.3219  0.1616  0.1382
   75CHL1   H7A 7968   3.702   3.723   7.184 -0.1910  0.1600  0.6030
   75CHL1   H7B 7969   3.687   3.895   7.209 -1.1035  0.4198  0.4152
   75CHL1    C8 7970   3.501   3.797   7.139  0.1352 -0.1326 -0.6157
   75CHL1    H8 7971   3.481   3.695   7.099 -0.8710 -0.4448  0.6244
   75CHL1   C14 7972   3.444   3.805   7.284  0.1209  0.6097  0.7415
   75CHL1   H14 7973   3.456   3.911   7.315 -2.1588  1.1286  0.0165
   75CHL1   C15 7974   3.520   3.713   7.380 -0.0781 -0.4715  0.8174
   75CHL1  H15A 7975   3.554   3.616   7.338 -1.6074 -0.8284  0.3417
   75CHL1  H15B 7976   3.611   3.765   7.417  0.2514  0.8438 -1.6385
   75CHL1   C16 7977   3.418   3.687   7.492 -0.1579  0.2967  0.5619
   75CHL1  H16A 7978   3.402   3.577   7.498  0.7603  0.1651  0.7206
   75CHL1  H16B 7979   3.460   3.722   7.589  0.3348 -2.2176  1.3486
   75CHL1   C17 7980   3.282   3.761   7.454  0.3129  0.1059 -0.4002
   75CHL1   H17 7981   3.296   3.862   7.498  1.2233  1.2074 -3.0293
   75CHL1   C13 7982   3.292   3.769   7.300 -0.7254  0.3982 -0.3951
   75CHL1   C18 7983   3.256   3.636   7.228  0.0448  0.0321  0.0716
   75CHL1  H18A 7984   3.299   3.553   7.287 -0.6157  0.7539  1.6056
   75CHL1  H18B 7985   3.147   3.632   7.209 -0.0505  1.2186  0.2967
   75CHL1  H18C 7986   3.299   3.624   7.126 -2.0288 -1.4260 -0.7032
   75CHL1   C12 7987   3.221   3.875   7.230  0.3476 -0.3038  0.1842
   75CHL1  H12A 7988   3.114   3.849   7.215  0.8047 -3.7615  2.0052
   75CHL1  H12B 7989   3.230   3.970   7.288 -0.8633 -0.4151  0.5973
   75CHL1   C11 7990   3.273   3.891   7.084 -0.1714  0.8644 -0.3554
   75CHL1  H11A 7991   3.236   3.799   7.035  0.6494  0.4879 -0.2804
   75CHL1  H11B 7992   3.227   3.974   7.026 -1.6209 -0.3281 -0.9770
   75CHL1    C9 7993   3.428   3.896   7.061 -0.2618 -0.0571 -0.4559
   75CHL1    H9 7994   3.452   3.995   7.106 -0.0178  0.2806 -1.3212
   75CHL1   C10 7995   3.479   3.904   6.912 -0.2818  0.4786  0.0663
   75CHL1   C19 7996   3.413   3.789   6.827 -0.4044 -0.1425 -0.4081
   75CHL1  H19A 7997   3.434   3.684   6.859  0.8333 -0.2316 -1.4671
   75CHL1  H19B 7998   3.305   3.814   6.822 -1.0454 -2.7224 -0.8174
   75CHL1  H19C 7999   3.442   3.794   6.720 -0.1650  0.9623 -0.2961
   75CHL1    C1 8000   3.450   4.042   6.854  0.1962 -0.4535 -0.0017
   75CHL1   H1A 8001   3.344   4.075   6.865  0.4053  1.1689 -2.3048
   75CHL1   H1B 8002   3.499   4.110   6.926 -0.6507 -0.0725  0.2329
   75CHL1    C2 8003   3.504   4.064   6.712 -0.6010  0.1902 -0.3097
   75CHL1   H2A 8004   3.472   4.165   6.681 -1.4656 -0.5669 -1.9972
   75CHL1   H2B 8005   3.448   3.991   6.649  0.3793 -2.0692  1.2978
   75CHL1   C20 8006   3.153   3.701   7.509 -0.2333 -0.4020 -0.7486
   75CHL1   H20 8007   3.102   3.619   7.453 -2.2211  0.7632 -0.7742
   75CHL1   C21 8008   3.038   3.808   7.508  0.4393  0.0672  0.1272
   75CHL1  H21A 8009   3.062   3.891   7.577 -1.7128  1.4173 -0.6602
   75CHL1  H21B 8010   2.940   3.767   7.542  0.0250 -0.7471 -1.9025
   75CHL1  H21C 8011   3.017   3.853   7.409 -1.9198 -0.7446  0.2006
   75CHL1   C22 8012   3.175   3.647   7.658 -0.6529  0.6344 -0.5638
   75CHL1  H22A 8013   3.081   3.602   7.697  0.6508 -0.4069  1.5214
   75CHL1  H22B 8014   3.254   3.570   7.654 -1.3178 -0.1665  1.0115
   75CHL1   C23 8015   3.214   3.763   7.761 -0.2837  0.6550  0.7613
   75CHL1  H23A 8016   3.291   3.823   7.709 -0.7334 -1.4536 -2.6627
   75CHL1  H23B 8017   3.122   3.825   7.766 -1.8650 -1.1841 -2.2862
   75CHL1   C24 8018   3.259   3.689   7.883 -0.4765 -0.5207  0.4308
   75CHL1  H24A 8019   3.189   3.615   7.926 -0.0007  0.4873  3.1734
   75CHL1  H24B 8020   3.351   3.630   7.862  0.3747  0.6244  0.7892
   75CHL1   C25 8021   3.291   3.777   8.008  0.2961  0.2144 -0.1193
   75CHL1   H25 8022   3.196   3.827   8.037  0.0534  0.0308 -0.5756
   75CHL1   C26 8023   3.331   3.675   8.126 -0.5175 -0.9452 -0.1112
   75CHL1  H26A 8024   3.252   3.601   8.149 -0.9693 -0.3917  0.1636
   75CHL1  H26B 8025   3.422   3.621   8.095  0.6007  1.4438 -1.2902
   75CHL1  H26C 8026   3.359   3.735   8.214  1.1165  1.3400 -2.0583
   75CHL1   C27 8027   3.395   3.883   7.984  0.1429 -0.5337  0.0755
   75CHL1  H27A 8028   3.364   3.950   7.901  1.2976 -2.0242 -1.6304
   75CHL1  H27B 8029   3.397   3.935   8.082  0.5873 -0.2683 -0.0696
   75CHL1  H27C 8030   3.498   3.846   7.969  0.6015  1.4082 -2.1287
   76CHL1    C3 8031   1.661   5.350   7.293 -0.3715  0.1109 -0.7362
   76CHL1    H3 8032   1.632   5.247   7.265  1.1756 -0.5228 -0.1256
   76CHL1    O3 8033   1.633   5.444   7.188  0.5530  0.0883 -0.0393
   76CHL1   H3' 8034   1.723   5.470   7.166  2.0479 -3.2530  1.4731
   76CHL1    C4 8035   1.570   5.391   7.408  0.1612  0.2147 -0.4941
   76CHL1   H4A 8036   1.581   5.499   7.429  0.3784  0.0764  0.1350
   76CHL1   H4B 8037   1.465   5.377   7.376  0.2477  0.7464 -1.0341
   76CHL1    C5 8038   1.604   5.304   7.529  0.6458 -0.0825 -0.6738
   76CHL1    C6 8039   1.503   5.232   7.589 -0.9953 -0.5542  0.5279
   76CHL1    H6 8040   1.399   5.244   7.553 -0.4894  0.8869 -0.5758
   76CHL1    C7 8041   1.520   5.161   7.715 -0.3638  0.3749 -0.6109
   76CHL1   H7A 8042   1.439   5.192   7.784 -1.4626  2.2060 -2.5920
   76CHL1   H7B 8043   1.517   5.052   7.695 -0.5370  0.8270 -3.3884
   76CHL1    C8 8044   1.650   5.199   7.786 -0.5001  0.2821 -0.5606
   76CHL1    H8 8045   1.630   5.294   7.839  1.1824  0.9316 -1.0187
   76CHL1   C14 8046   1.676   5.090   7.889 -0.5235  0.1109  0.0257
   76CHL1   H14 8047   1.696   4.994   7.837  2.7354  0.0473  1.1624
   76CHL1   C15 8048   1.559   5.059   7.987 -0.2422 -0.0928 -0.3991
   76CHL1  H15A 8049   1.485   5.140   8.007  0.3566  0.6286 -1.0210
   76CHL1  H15B 8050   1.511   4.962   7.964  1.4393 -1.4319  1.4584
   76CHL1   C16 8051   1.636   5.028   8.120  0.6237  1.0846  0.0781
   76CHL1  H16A 8052   1.615   5.103   8.199  0.8645  1.7600 -0.4827
   76CHL1  H16B 8053   1.594   4.936   8.165 -1.0989 -0.0387 -3.4463
   76CHL1   C17 8054   1.779   5.010   8.071  0.0251 -0.4658 -0.1144
   76CHL1   H17 8055   1.782   4.910   8.023 -0.4595  0.5614 -2.4043
   76CHL1   C13 8056   1.801   5.117   7.970 -0.1445  0.5500  0.1712
   76CHL1   C18 8057   1.797   5.265   8.039  0.3263  0.4106 -0.1360
   76CHL1  H18A 8058   1.900   5.271   8.080 -0.3072 -3.1449  2.4419
   76CHL1  H18B 8059   1.784   5.337   7.955 -0.0472 -0.2679 -0.6759
   76CHL1  H18C 8060   1.720   5.289   8.115 -0.6276  0.9103 -1.2198
   76CHL1   C12 8061   1.919   5.105   7.879 -0.7967 -0.3548  0.4592
   76CHL1  H12A 8062   2.010   5.132   7.936  0.0774 -0.5154 -0.8073
   76CHL1  H12B 8063   1.932   4.999   7.847  3.2306 -0.2168  1.1480
   76CHL1   C11 8064   1.915   5.199   7.750  0.5702 -0.0729  0.2209
   76CHL1  H11A 8065   1.940   5.305   7.775 -0.4182  0.4009 -0.7094
   76CHL1  H11B 8066   1.997   5.189   7.675  0.0677  3.0483 -0.9075
   76CHL1    C9 8067   1.774   5.194   7.683  0.1250 -0.2534 -0.2420
   76CHL1    H9 8068   1.773   5.090   7.644  1.2534 -0.9794  1.5622
   76CHL1   C10 8069   1.753   5.304   7.574  0.2476 -0.5088 -0.2616
   76CHL1   C19 8070   1.786   5.444   7.623  0.6696  0.1203  0.5659
   76CHL1  H19A 8071   1.888   5.457   7.663  0.2611  0.4210  1.5500
   76CHL1  H19B 8072   1.781   5.506   7.532  2.5458  0.9711  1.0023
   76CHL1  H19C 8073   1.703   5.488   7.683  0.8967  2.5844 -0.8279
   76CHL1    C1 8074   1.844   5.266   7.451  0.5413  0.2836  0.9724
   76CHL1   H1A 8075   1.951   5.273   7.477  0.4898  1.4770  0.8932
   76CHL1   H1B 8076   1.826   5.159   7.425  3.2643 -0.1098  0.4158
   76CHL1    C2 8077   1.814   5.344   7.320  0.6415  0.3445 -0.0933
   76CHL1   H2A 8078   1.867   5.300   7.233 -2.1539 -0.1354 -1.6716
   76CHL1   H2B 8079   1.842   5.449   7.340  1.2597 -0.2669  2.7069
   76CHL1   C20 8080   1.875   5.015   8.191 -0.0013 -0.2616  0.0375
   76CHL1   H20 8081   1.974   5.060   8.168 -0.5147  1.0454  0.2968
   76CHL1   C21 8082   1.898   4.863   8.226 -0.2410  0.0033  0.4538
   76CHL1  H21A 8083   1.921   4.808   8.132  0.2495 -0.8582  1.0742
   76CHL1  H21B 8084   1.818   4.817   8.287 -0.7916 -1.3773 -1.2288
   76CHL1  H21C 8085   1.999   4.865   8.272 -0.8112 -0.6546  1.7553
   76CHL1   C22 8086   1.834   5.095   8.321 -0.4679 -0.0853 -0.5127
   76CHL1  H22A 8087   1.798   5.194   8.285 -2.8059 -1.5784 -2.6650
   76CHL1  H22B 8088   1.752   5.037   8.369  0.3319 -0.5441  0.3329
   76CHL1   C23 8089   1.939   5.096   8.428  0.6283  0.1334 -0.4149
   76CHL1  H23A 8090   1.977   4.992   8.434  1.1822  0.2036 -2.1264
   76CHL1  H23B 8091   2.027   5.158   8.400  1.9876 -1.1886  0.7811
   76CHL1   C24 8092   1.882   5.136   8.575 -0.3454  0.0391  0.3808
   76CHL1  H24A 8093   1.859   5.245   8.567 -2.7769 -0.4744 -0.5064
   76CHL1  H24B 8094   1.788   5.080   8.590  0.7664 -1.4607  2.0770
   76CHL1   C25 8095   1.974   5.129   8.700  0.4510  0.0241 -0.0881
   76CHL1   H25 8096   2.073   5.170   8.672  0.9629 -0.4461  0.9751
   76CHL1   C26 8097   1.914   5.213   8.818  0.3190 -0.2078  0.2190
   76CHL1  H26A 8098   1.823   5.168   8.863  0.2291  0.8304  1.1214
   76CHL1  H26B 8099   1.990   5.219   8.899 -1.4975  2.3423  1.8903
   76CHL1  H26C 8100   1.895   5.319   8.792 -1.0925 -0.1251  1.4335
   76CHL1   C27 8101   1.994   4.985   8.750 -0.0941 -0.2340 -0.1692
   76CHL1  H27A 8102   2.070   4.939   8.683  1.2856  2.7445 -0.8566
   76CHL1  H27B 8103   2.031   4.986   8.854  1.5682 -2.9046 -0.6453
   76CHL1  H27C 8104   1.895   4.934   8.746  0.1878 -0.9820  1.6022
   77CHL1    C3 8105   1.157   2.015   7.012 -0.0251 -0.6838 -0.1600
   77CHL1    H3 8106   1.147   1.918   7.066  2.6346 -0.7265  0.3871
   77CHL1    O3 8107   1.135   2.003   6.874  0.2778  0.3726  0.7213
   77CHL1   H3' 8108   1.215   2.043   6.838  1.7259 -1.5947  1.5979
   77CHL1    C4 8109   1.060   2.128   7.056  1.3230  0.0671 -0.2471
   77CHL1   H4A 8110   1.091   2.223   7.007  0.2158  1.2613  1.2818
   77CHL1   H4B 8111   0.959   2.093   7.026  0.8178 -0.5336  1.9651
   77CHL1    C5 8112   1.075   2.154   7.208 -0.3625  0.2987 -0.4450
   77CHL1    C6 8113   0.968   2.140   7.289  0.3643 -0.3462  0.8203
   77CHL1    H6 8114   0.872   2.114   7.241  0.5789  2.8836 -1.6383
   77CHL1    C7 8115   0.966   2.153   7.438  0.4272 -0.6964  0.1526
   77CHL1   H7A 8116   0.897   2.236   7.464  0.1193 -0.9109  0.0241
   77CHL1   H7B 8117   0.935   2.056   7.483 -2.9944 -0.8281 -2.0796
   77CHL1    C8 8118   1.101   2.209   7.501  0.1179 -0.1177  0.7749
   77CHL1    H8 8119   1.097   2.319   7.486 -0.7552 -0.1544  0.7280
   77CHL1   C14 8120   1.119   2.171   7.645  0.5423  0.4716 -0.2735
   77CHL1   H14 8121   1.127   2.061   7.649 -0.2801  0.4390  1.6133
   77CHL1   C15 8122   1.011   2.225   7.747  0.2392  0.7124  1.0169
   77CHL1  H15A 8123   0.968   2.321   7.713 -2.0122 -0.1994  1.1130
   77CHL1  H15B 8124   0.932   2.147   7.745 -0.9183  1.8459 -1.6027
   77CHL1   C16 8125   1.086   2.237   7.879 -0.3884 -0.0611 -0.0314
   77CHL1  H16A 8126   1.071   2.338   7.923  2.0303  0.8819 -1.2110
   77CHL1  H16B 8127   1.051   2.174   7.964  0.5750  1.5730  1.6644
   77CHL1   C17 8128   1.231   2.194   7.855  0.1969 -0.7233  0.3115
   77CHL1   H17 8129   1.232   2.083   7.851 -1.0752 -0.7242 -1.1256
   77CHL1   C13 8130   1.253   2.224   7.707  0.7210 -0.0520 -0.2845
   77CHL1   C18 8131   1.260   2.385   7.690 -0.4054  0.2981 -1.2415
   77CHL1  H18A 8132   1.169   2.427   7.738  0.5973  0.3896  0.6810
   77CHL1  H18B 8133   1.348   2.418   7.749 -2.0534 -1.1003  2.2748
   77CHL1  H18C 8134   1.269   2.403   7.581 -2.4548  0.7480 -1.3787
   77CHL1   C12 8135   1.367   2.158   7.632  0.5578 -0.4450  0.6675
   77CHL1  H12A 8136   1.465   2.200   7.665  1.6402 -1.0542 -1.5414
   77CHL1  H12B 8137   1.359   2.049   7.655  0.8222 -0.7893 -0.8030
   77CHL1   C11 8138   1.350   2.175   7.485  0.4151  0.2384 -0.3102
   77CHL1  H11A 8139   1.368   2.280   7.452 -0.5917 -0.1213 -2.1800
   77CHL1  H11B 8140   1.421   2.104   7.439 -0.9897 -1.7356  0.4565
   77CHL1    C9 8141   1.217   2.144   7.422  0.2862  0.4763  0.1470
   77CHL1    H9 8142   1.195   2.036   7.436  0.4050  0.3695 -0.4368
   77CHL1   C10 8143   1.214   2.169   7.263 -0.1821  0.8077  0.2441
   77CHL1   C19 8144   1.256   2.310   7.242 -0.2517  1.2728  0.4376
   77CHL1  H19A 8145   1.366   2.321   7.249 -0.2738  1.3764  0.6294
   77CHL1  H19B 8146   1.235   2.344   7.138  1.8434 -3.6986 -1.9227
   77CHL1  H19C 8147   1.204   2.375   7.316  1.7784  2.3749  0.9739
   77CHL1    C1 8148   1.316   2.083   7.188 -0.2800 -0.1367 -0.0100
   77CHL1   H1A 8149   1.419   2.112   7.216 -0.6680 -0.8033  2.3326
   77CHL1   H1B 8150   1.309   1.980   7.229 -0.7349  0.9533  2.9424
   77CHL1    C2 8151   1.301   2.062   7.032  0.2022 -0.1452 -0.6723
   77CHL1   H2A 8152   1.369   1.983   6.992  0.5268  0.1835 -0.7827
   77CHL1   H2B 8153   1.329   2.159   6.987  1.6328  1.0745  2.5729
   77CHL1   C20 8154   1.337   2.233   7.955 -0.2262 -0.1406  0.1418
   77CHL1   H20 8155   1.432   2.260   7.904 -2.4614  1.0568 -3.7353
   77CHL1   C21 8156   1.364   2.115   8.055  0.0560  0.4300 -0.1727
   77CHL1  H21A 8157   1.265   2.075   8.088 -0.0990  1.5327  0.7364
   77CHL1  H21B 8158   1.419   2.143   8.147  1.2590  0.1536 -0.7917
   77CHL1  H21C 8159   1.419   2.032   8.006 -1.2107  0.9345 -2.6244
   77CHL1   C22 8160   1.303   2.351   8.054 -0.5359 -0.2270  0.2576
   77CHL1  H22A 8161   1.209   2.329   8.109 -0.7402 -0.7029 -0.2717
   77CHL1  H22B 8162   1.396   2.353   8.115  0.2611  1.5326 -0.9378
   77CHL1   C23 8163   1.297   2.489   7.992 -0.5702  0.3221  0.1930
   77CHL1  H23A 8164   1.387   2.489   7.927 -0.5230 -0.4744  0.2403
   77CHL1  H23B 8165   1.205   2.495   7.930 -0.0429  0.8190 -0.5582
   77CHL1   C24 8166   1.305   2.605   8.095  0.2639  0.2133 -0.1256
   77CHL1  H24A 8167   1.394   2.587   8.158 -1.2923 -1.0762  1.8228
   77CHL1  H24B 8168   1.321   2.703   8.044  0.7101 -0.2744 -0.9356
   77CHL1   C25 8169   1.179   2.614   8.196  0.2539  0.0318 -0.2511
   77CHL1   H25 8170   1.190   2.536   8.275  0.1451  0.2138 -0.0537
   77CHL1   C26 8171   1.184   2.744   8.266 -0.7366 -0.3339  0.1274
   77CHL1  H26A 8172   1.183   2.830   8.197 -0.5553 -0.6403 -0.2620
   77CHL1  H26B 8173   1.093   2.739   8.331  0.2293  1.9817  1.7695
   77CHL1  H26C 8174   1.275   2.757   8.328 -0.0252  0.2646 -1.0284
   77CHL1   C27 8175   1.046   2.605   8.119 -0.3837 -0.1245  0.6837
   77CHL1  H27A 8176   0.964   2.602   8.194 -1.5434 -0.6197 -0.5765
   77CHL1  H27B 8177   1.036   2.690   8.049  1.6204 -0.2624  0.1609
   77CHL1  H27C 8178   1.039   2.508   8.065 -1.1092  0.3709 -0.1308
   78CHL1    C3 8179   5.226   5.896   6.669 -0.6862  0.5221  0.1570
   78CHL1    H3 8180   5.242   5.786   6.667 -0.3380  0.5802 -0.7806
   78CHL1    O3 8181   5.214   5.932   6.536  0.4774 -0.3281  0.1280
   78CHL1   H3' 8182   5.281   5.888   6.483  0.5054  1.2892 -1.2544
   78CHL1    C4 8183   5.108   5.943   6.749 -0.4077 -0.0154 -0.2820
   78CHL1   H4A 8184   5.093   6.052   6.732 -1.0057 -0.1013 -0.3575
   78CHL1   H4B 8185   5.020   5.899   6.697  1.3785 -0.9842 -2.7162
   78CHL1    C5 8186   5.131   5.919   6.892  0.5092 -0.1857 -0.3985
   78CHL1    C6 8187   5.039   5.854   6.958 -0.5448  0.4441 -0.4204
   78CHL1    H6 8188   4.949   5.820   6.906 -2.0728  2.7261  0.5545
   78CHL1    C7 8189   5.047   5.826   7.105  0.0633 -0.3086 -0.0942
   78CHL1   H7A 8190   4.950   5.847   7.155 -0.2023  2.0912 -1.4525
   78CHL1   H7B 8191   5.062   5.719   7.129 -1.2005 -0.1922  1.3364
   78CHL1    C8 8192   5.155   5.906   7.178 -0.0681 -0.1665  0.0384
   78CHL1    H8 8193   5.109   6.004   7.202 -0.6516 -0.3584 -0.2942
   78CHL1   C14 8194   5.174   5.848   7.315 -0.1537 -0.2692  1.0061
   78CHL1   H14 8195   5.204   5.746   7.282 -0.8190  0.4526 -2.0893
   78CHL1   C15 8196   5.051   5.829   7.411 -0.1695 -0.0932  0.6381
   78CHL1  H15A 8197   4.984   5.916   7.393  0.9171  1.0226  1.7468
   78CHL1  H15B 8198   5.001   5.731   7.398  0.3323 -0.2857  0.1446
   78CHL1   C16 8199   5.118   5.832   7.552 -1.2289  0.5941  0.6574
   78CHL1  H16A 8200   5.080   5.915   7.616  2.3110 -0.2467  4.2813
   78CHL1  H16B 8201   5.087   5.741   7.609  2.8387 -0.9189  0.7823
   78CHL1   C17 8202   5.268   5.837   7.531 -0.3569 -0.3872 -0.7110
   78CHL1   H17 8203   5.303   5.733   7.514 -1.1538 -0.8304  0.2675
   78CHL1   C13 8204   5.284   5.908   7.398 -0.1768  0.0084  0.4089
   78CHL1   C18 8205   5.251   6.056   7.432 -0.1674 -0.4616  0.3250
   78CHL1  H18A 8206   5.158   6.058   7.491 -1.7911 -2.3616 -1.9971
   78CHL1  H18B 8207   5.336   6.104   7.485  2.0177 -2.2440 -1.3728
   78CHL1  H18C 8208   5.219   6.104   7.337 -2.5700 -0.4354  1.0854
   78CHL1   C12 8209   5.416   5.905   7.323 -0.1644  0.3567 -0.2258
   78CHL1  H12A 8210   5.495   5.959   7.379 -2.5863 -1.1047  5.2297
   78CHL1  H12B 8211   5.446   5.799   7.311  2.0594  0.5685  2.4380
   78CHL1   C11 8212   5.399   5.968   7.179 -0.1266  0.7949 -0.7906
   78CHL1  H11A 8213   5.385   6.077   7.192  0.4636  0.7169  0.6185
   78CHL1  H11B 8214   5.495   5.961   7.123  0.4544  2.8411 -0.1038
   78CHL1    C9 8215   5.279   5.906   7.100 -0.3311 -0.0347  0.5084
   78CHL1    H9 8216   5.295   5.798   7.083 -0.3403 -0.4690  2.8309
   78CHL1   C10 8217   5.260   5.968   6.958 -0.3887 -0.3382  0.4826
   78CHL1   C19 8218   5.240   6.117   6.969 -0.1870 -0.4910 -0.4093
   78CHL1  H19A 8219   5.340   6.158   6.995 -0.1564 -1.2385  0.7299
   78CHL1  H19B 8220   5.202   6.159   6.873  2.1079 -0.3895 -1.3398
   78CHL1  H19C 8221   5.175   6.141   7.056  1.6810  0.4524  0.7797
   78CHL1    C1 8222   5.381   5.928   6.865  0.0134 -0.3919  0.4166
   78CHL1   H1A 8223   5.475   5.974   6.901  0.4652 -1.2935  0.4215
   78CHL1   H1B 8224   5.395   5.819   6.886 -1.6675 -0.5044  1.1195
   78CHL1    C2 8225   5.359   5.950   6.716 -0.2444 -0.2626  0.4077
   78CHL1   H2A 8226   5.434   5.901   6.649 -0.1884 -0.7110  0.7939
   78CHL1   H2B 8227   5.349   6.060   6.707 -2.1874 -0.4960 -0.8411
   78CHL1   C20 8228   5.344   5.883   7.657  0.0525 -0.2280 -0.6633
   78CHL1   H20 8229   5.323   5.991   7.674  0.2645 -0.3897  0.6874
   78CHL1   C21 8230   5.498   5.873   7.647  0.2283  0.4229 -0.1373
   78CHL1  H21A 8231   5.520   5.772   7.608  0.0423 -0.3306  1.6282
   78CHL1  H21B 8232   5.538   5.883   7.750 -2.7365 -2.5724  1.4875
   78CHL1  H21C 8233   5.543   5.952   7.582 -0.0621  0.7724  0.0813
   78CHL1   C22 8234   5.301   5.816   7.785  0.0726  0.0202 -0.1782
   78CHL1  H22A 8235   5.190   5.812   7.789 -0.0683  2.8623  0.6494
   78CHL1  H22B 8236   5.337   5.711   7.797 -0.4452 -0.0332  1.0428
   78CHL1   C23 8237   5.339   5.894   7.912  0.0771 -0.6071  0.0918
   78CHL1  H23A 8238   5.449   5.894   7.930  0.0693 -1.7777  0.2367
   78CHL1  H23B 8239   5.327   6.003   7.897  3.8773 -0.2296 -1.4035
   78CHL1   C24 8240   5.259   5.847   8.035  0.2094  0.2716  0.8223
   78CHL1  H24A 8241   5.151   5.857   8.010  0.7624 -0.2653 -2.0837
   78CHL1  H24B 8242   5.276   5.741   8.060 -0.5909  0.1018  0.6917
   78CHL1   C25 8243   5.293   5.939   8.157  0.1830 -0.7664  0.2226
   78CHL1   H25 8244   5.270   6.046   8.142 -0.7762 -0.9029  0.6351
   78CHL1   C26 8245   5.203   5.907   8.272 -0.3685 -0.0560 -0.5701
   78CHL1  H26A 8246   5.093   5.907   8.254 -0.5716 -4.7042 -0.3618
   78CHL1  H26B 8247   5.225   5.806   8.313 -0.8085 -0.1541 -0.5716
   78CHL1  H26C 8248   5.230   5.969   8.360  0.8291 -0.5788 -0.5574
   78CHL1   C27 8249   5.440   5.918   8.200 -0.0433  0.0910 -0.5504
   78CHL1  H27A 8250   5.510   5.949   8.120 -0.9847  0.2391 -1.3385
   78CHL1  H27B 8251   5.469   5.973   8.292 -0.3037 -0.5717 -0.0598
   78CHL1  H27C 8252   5.462   5.809   8.206  0.1134  0.0927 -1.0458
   79CHL1    C3 8253   2.050   4.969   7.189 -0.6670 -0.1751 -0.4125
   79CHL1    H3 8254   1.982   5.036   7.247 -2.8455 -1.0558 -1.8228
   79CHL1    O3 8255   2.032   4.994   7.054 -0.0549  0.1353 -0.3224
   79CHL1   H3' 8256   2.087   4.929   7.009 -1.8764 -2.2032  0.6689
   79CHL1    C4 8257   2.203   5.006   7.222 -0.2914 -0.1056  0.5422
   79CHL1   H4A 8258   2.264   4.939   7.159 -1.6234 -0.2785 -0.6058
   79CHL1   H4B 8259   2.227   5.106   7.180 -1.3867 -0.1516 -0.2207
   79CHL1    C5 8260   2.226   4.987   7.370  0.5054  0.3075 -0.2576
   79CHL1    C6 8261   2.260   5.090   7.446 -0.8655 -0.4100  0.0726
   79CHL1    H6 8262   2.286   5.188   7.405  2.3016 -0.0259  2.5743
   79CHL1    C7 8263   2.295   5.079   7.595  0.1800  0.3365 -0.1859
   79CHL1   H7A 8264   2.396   5.123   7.609 -0.6111  1.6381  1.8830
   79CHL1   H7B 8265   2.225   5.137   7.658 -2.0008  0.8111 -2.8443
   79CHL1    C8 8266   2.301   4.937   7.647 -0.9463 -0.7371 -0.3067
   79CHL1    H8 8267   2.398   4.888   7.626  0.4680  1.0232  1.7894
   79CHL1   C14 8268   2.297   4.942   7.796 -0.2270 -0.5429  0.2702
   79CHL1   H14 8269   2.193   4.975   7.815  0.1520  2.6723 -2.4270
   79CHL1   C15 8270   2.379   5.040   7.875  0.9743  0.5559  0.0501
   79CHL1  H15A 8271   2.483   5.048   7.836  1.2305 -1.0306  0.3492
   79CHL1  H15B 8272   2.330   5.139   7.881 -2.4614 -0.9753 -0.3570
   79CHL1   C16 8273   2.386   4.979   8.019 -0.5046  0.0238  0.0627
   79CHL1  H16A 8274   2.492   4.954   8.043  0.1982  0.9167 -1.9012
   79CHL1  H16B 8275   2.347   5.055   8.090  0.1087  0.8023 -0.4164
   79CHL1   C17 8276   2.307   4.849   8.018  0.6261  0.3176 -0.3638
   79CHL1   H17 8277   2.203   4.884   8.038  0.7026  0.4141 -0.1266
   79CHL1   C13 8278   2.306   4.802   7.867  0.3783 -0.2889 -0.1317
   79CHL1   C18 8279   2.442   4.715   7.846  0.1862 -0.5827 -1.0285
   79CHL1  H18A 8280   2.523   4.738   7.918  0.5823  4.6735 -2.7387
   79CHL1  H18B 8281   2.419   4.606   7.852 -1.5789 -0.2007 -0.0030
   79CHL1  H18C 8282   2.479   4.726   7.742 -0.7196  1.7600 -1.1678
   79CHL1   C12 8283   2.182   4.729   7.809 -1.1784 -0.1006  0.3685
   79CHL1  H12A 8284   2.175   4.629   7.856 -0.4384 -0.2960  0.0873
   79CHL1  H12B 8285   2.092   4.789   7.835 -0.8697  0.0837  1.0224
   79CHL1   C11 8286   2.189   4.714   7.658  0.2008  1.1152  0.6763
   79CHL1  H11A 8287   2.284   4.663   7.633  0.6298  1.9970  0.4616
   79CHL1  H11B 8288   2.104   4.653   7.621  0.9605  0.2654  0.2897
   79CHL1    C9 8289   2.194   4.847   7.588  0.3115 -0.4575  0.1901
   79CHL1    H9 8290   2.101   4.902   7.614 -0.1606 -1.0652 -0.1987
   79CHL1   C10 8291   2.194   4.846   7.429  0.0828 -0.1221 -0.1895
   79CHL1   C19 8292   2.304   4.743   7.381  0.4655  0.3947  0.1301
   79CHL1  H19A 8293   2.393   4.751   7.447 -0.4514 -0.3008  1.5233
   79CHL1  H19B 8294   2.265   4.640   7.394 -0.3557  0.5867 -0.6901
   79CHL1  H19C 8295   2.326   4.747   7.273 -0.5272 -1.1647 -0.1629
   79CHL1    C1 8296   2.055   4.804   7.372 -0.0454 -0.3801  0.2369
   79CHL1   H1A 8297   2.037   4.698   7.403 -2.7114  0.5010  2.0525
   79CHL1   H1B 8298   1.984   4.863   7.434 -0.9274 -2.4773  1.3487
   79CHL1    C2 8299   2.029   4.819   7.221 -0.2310 -0.4132 -0.5980
   79CHL1   H2A 8300   1.924   4.788   7.201 -0.7509  2.5165 -2.9770
   79CHL1   H2B 8301   2.104   4.762   7.162 -0.2323 -0.3037 -0.7048
   79CHL1   C20 8302   2.338   4.757   8.135  0.5410 -0.6015  0.3485
   79CHL1   H20 8303   2.443   4.722   8.121  1.0674  1.1660 -0.4635
   79CHL1   C21 8304   2.245   4.639   8.124  0.3441  0.6531  0.1144
   79CHL1  H21A 8305   2.140   4.672   8.131  0.5080  0.8998  1.7841
   79CHL1  H21B 8306   2.258   4.569   8.209 -0.7011  0.8984  0.4899
   79CHL1  H21C 8307   2.257   4.570   8.037 -2.0350 -1.4812  1.3523
   79CHL1   C22 8308   2.318   4.831   8.269  1.0022  0.0174  0.2512
   79CHL1  H22A 8309   2.362   4.933   8.273  0.3249  0.2782  3.5921
   79CHL1  H22B 8310   2.209   4.845   8.283  0.8094 -1.5796  0.5180
   79CHL1   C23 8311   2.353   4.746   8.394  0.2609  0.4313  0.5411
   79CHL1  H23A 8312   2.290   4.656   8.404  1.7923 -0.9348 -1.4563
   79CHL1  H23B 8313   2.459   4.714   8.383 -0.1534 -1.6010  1.9792
   79CHL1   C24 8314   2.330   4.835   8.524 -0.0154  0.7471  0.5607
   79CHL1  H24A 8315   2.370   4.936   8.503  0.8958  0.4269  0.7137
   79CHL1  H24B 8316   2.221   4.836   8.546 -0.1323  0.4683  0.0057
   79CHL1   C25 8317   2.398   4.772   8.640  0.2271  0.1222  0.5827
   79CHL1   H25 8318   2.503   4.755   8.607 -0.2755  2.1267 -2.3080
   79CHL1   C26 8319   2.391   4.868   8.763  0.4154 -0.2497  0.4249
   79CHL1  H26A 8320   2.289   4.885   8.804  1.3459  0.2737  2.6333
   79CHL1  H26B 8321   2.459   4.835   8.844  0.8126 -0.6519 -0.0658
   79CHL1  H26C 8322   2.426   4.970   8.738 -2.0520  0.8104  1.0307
   79CHL1   C27 8323   2.346   4.627   8.681 -0.3044 -0.0582  0.4540
   79CHL1  H27A 8324   2.398   4.587   8.771  0.0072  0.0048  0.3041
   79CHL1  H27B 8325   2.241   4.645   8.713 -0.8882  0.7736 -1.7642
   79CHL1  H27C 8326   2.361   4.565   8.590  1.2717  3.3566 -1.8219
   80CHL1    C3 8327   6.505   2.470   7.053 -0.3592  1.0059 -0.3533
   80CHL1    H3 8328   6.570   2.557   7.032 -1.0854  1.0722 -2.6428
   80CHL1    O3 8329   6.469   2.399   6.932 -0.0616  0.6888  0.2771
   80CHL1   H3' 8330   6.558   2.382   6.898  0.0806  0.5310  0.7249
   80CHL1    C4 8331   6.580   2.369   7.138  0.5833 -0.5662 -0.2530
   80CHL1   H4A 8332   6.518   2.277   7.143  0.4266 -0.4008  1.2590
   80CHL1   H4B 8333   6.674   2.352   7.082  0.4763  0.7097 -0.8583
   80CHL1    C5 8334   6.607   2.410   7.283  0.0958  0.0057 -0.2084
   80CHL1    C6 8335   6.731   2.412   7.336 -0.3990  0.0595 -0.6799
   80CHL1    H6 8336   6.811   2.381   7.268  0.6684  0.7607  0.2098
   80CHL1    C7 8337   6.769   2.426   7.483  0.1232  0.0855  0.1450
   80CHL1   H7A 8338   6.837   2.343   7.511 -0.6791 -1.7769 -2.9608
   80CHL1   H7B 8339   6.818   2.525   7.498 -0.4366  0.4853 -0.5914
   80CHL1    C8 8340   6.639   2.423   7.569  0.4741 -0.4669  0.1073
   80CHL1    H8 8341   6.606   2.319   7.589 -0.3436 -0.2555 -0.1001
   80CHL1   C14 8342   6.677   2.469   7.708 -0.1096 -0.2207 -0.1656
   80CHL1   H14 8343   6.708   2.575   7.693 -1.4811  0.1260 -0.7555
   80CHL1   C15 8344   6.784   2.395   7.785 -0.6130 -0.4208 -0.5145
   80CHL1  H15A 8345   6.762   2.286   7.786  1.1782 -0.8077 -0.5075
   80CHL1  H15B 8346   6.887   2.421   7.753 -0.8417  0.3624 -0.6503
   80CHL1   C16 8347   6.770   2.466   7.920  0.1872  0.6824 -0.4096
   80CHL1  H16A 8348   6.759   2.374   7.981  0.3872  0.2180 -1.0694
   80CHL1  H16B 8349   6.860   2.531   7.929  1.0037 -0.5358  0.4611
   80CHL1   C17 8350   6.638   2.543   7.927 -0.4672  0.2079  0.2070
   80CHL1   H17 8351   6.654   2.651   7.905 -0.2066 -0.0561 -0.9521
   80CHL1   C13 8352   6.559   2.482   7.810 -0.3584 -0.5925  0.6005
   80CHL1   C18 8353   6.506   2.346   7.849  0.1440 -0.2793  0.4507
   80CHL1  H18A 8354   6.420   2.350   7.919  0.3712  0.6289  0.6876
   80CHL1  H18B 8355   6.456   2.293   7.765 -0.9426  2.0393 -0.4461
   80CHL1  H18C 8356   6.572   2.272   7.899 -0.2867 -0.8926  0.1293
   80CHL1   C12 8357   6.457   2.580   7.746 -0.5202 -1.0594 -0.0150
   80CHL1  H12A 8358   6.370   2.597   7.813  0.4325  2.8689  0.4502
   80CHL1  H12B 8359   6.502   2.680   7.735 -1.6163 -0.5405  0.0982
   80CHL1   C11 8360   6.409   2.523   7.604 -0.6710  0.2556 -0.8559
   80CHL1  H11A 8361   6.352   2.431   7.630 -1.8055  1.5438  1.6546
   80CHL1  H11B 8362   6.331   2.595   7.570 -1.9372  0.1798  1.6360
   80CHL1    C9 8363   6.528   2.497   7.508 -0.0972 -0.1326 -0.3110
   80CHL1    H9 8364   6.574   2.597   7.491  1.3311 -0.7829 -0.4866
   80CHL1   C10 8365   6.484   2.440   7.368 -0.6335  0.0921  0.2965
   80CHL1   C19 8366   6.394   2.319   7.386 -0.6348 -0.7437 -0.4455
   80CHL1  H19A 8367   6.372   2.275   7.286  1.6404 -0.6048 -1.0585
   80CHL1  H19B 8368   6.437   2.241   7.452 -1.9764  0.3950  1.8959
   80CHL1  H19C 8369   6.296   2.353   7.426  1.0053  0.7850  2.5669
   80CHL1    C1 8370   6.413   2.557   7.284 -0.1862 -0.0502  0.0829
   80CHL1   H1A 8371   6.321   2.591   7.335  0.0157 -0.1817  0.5451
   80CHL1   H1B 8372   6.482   2.643   7.285 -1.9772  1.4717  2.5790
   80CHL1    C2 8373   6.387   2.517   7.136  0.0385 -0.6505  0.5471
   80CHL1   H2A 8374   6.338   2.596   7.075  0.4331 -1.3595 -0.7292
   80CHL1   H2B 8375   6.311   2.438   7.117  2.0466 -1.9854 -2.8155
   80CHL1   C20 8376   6.589   2.531   8.068 -0.4775  0.4919 -0.4845
   80CHL1   H20 8377   6.546   2.431   8.090 -0.5468  0.6885  0.3329
   80CHL1   C21 8378   6.462   2.623   8.078 -0.2411  0.6684 -0.1405
   80CHL1  H21A 8379   6.489   2.726   8.046  0.6989  0.7146  0.7425
   80CHL1  H21B 8380   6.433   2.634   8.185  0.6789 -0.6439  0.2628
   80CHL1  H21C 8381   6.380   2.583   8.015  0.1800  1.1352 -0.9950
   80CHL1   C22 8382   6.686   2.574   8.183  0.2520  0.3083 -0.3757
   80CHL1  H22A 8383   6.780   2.520   8.161 -0.1542 -0.7293  0.3768
   80CHL1  H22B 8384   6.710   2.682   8.172 -2.1535  0.7871 -1.6916
   80CHL1   C23 8385   6.654   2.529   8.326 -0.1131  0.2267 -0.2240
   80CHL1  H23A 8386   6.550   2.557   8.355  0.4864  1.8988  0.4323
   80CHL1  H23B 8387   6.664   2.419   8.336  2.3188  0.4069 -0.0943
   80CHL1   C24 8388   6.748   2.586   8.434 -0.1328 -0.0285  0.1741
   80CHL1  H24A 8389   6.846   2.533   8.434 -0.3722 -0.6190  2.5162
   80CHL1  H24B 8390   6.773   2.686   8.394 -2.2353  0.5361  0.1844
   80CHL1   C25 8391   6.691   2.594   8.569 -0.0478 -0.0690 -0.0966
   80CHL1   H25 8392   6.593   2.646   8.568  0.1135  0.2384 -0.3534
   80CHL1   C26 8393   6.669   2.451   8.610 -0.0805  0.5867  0.0004
   80CHL1  H26A 8394   6.654   2.440   8.719  0.8849 -0.5280  0.0451
   80CHL1  H26B 8395   6.589   2.404   8.549  0.0009  2.0484 -1.2867
   80CHL1  H26C 8396   6.766   2.400   8.590  1.0580  2.0116  1.6213
   80CHL1   C27 8397   6.788   2.669   8.666 -0.4762 -0.5041  0.4558
   80CHL1  H27A 8398   6.875   2.605   8.691 -1.2005 -0.9991  1.8510
   80CHL1  H27B 8399   6.831   2.760   8.619  0.0485 -1.2865 -0.6104
   80CHL1  H27C 8400   6.736   2.691   8.762 -0.5147  1.2331  0.0665
   81CHL1    C3 8401   0.053   6.519   6.894 -0.5686 -0.6784  0.6824
   81CHL1    H3 8402   0.067   6.408   6.894  0.5398 -0.5556  0.0908
   81CHL1    O3 8403   0.039   6.567   6.762  0.0765  0.5178 -0.0754
   81CHL1   H3' 8404   0.115   6.616   6.730 -1.4450  2.6045 -0.6352
   81CHL1    C4 8405  -0.080   6.553   6.952  0.9968 -0.3325 -0.4237
   81CHL1   H4A 8406  -0.104   6.660   6.934 -0.4937 -0.5112  0.3270
   81CHL1   H4B 8407  -0.163   6.500   6.900 -0.1201  0.2923  0.6768
   81CHL1    C5 8408  -0.083   6.521   7.094  0.3348 -0.0686 -0.2180
   81CHL1    C6 8409  -0.174   6.435   7.144  0.5361 -0.4495 -0.2959
   81CHL1    H6 8410  -0.246   6.387   7.077 -2.2690  0.1069  2.0990
   81CHL1    C7 8411  -0.170   6.393   7.289 -0.0738 -0.2407  0.7784
   81CHL1   H7A 8412  -0.273   6.380   7.330 -0.0947 -1.4905  0.3782
   81CHL1   H7B 8413  -0.142   6.285   7.290  0.8863 -0.0239 -0.9554
   81CHL1    C8 8414  -0.089   6.473   7.391  0.2485  0.0072 -0.2271
   81CHL1    H8 8415  -0.143   6.566   7.420 -0.6592  0.0155 -1.7888
   81CHL1   C14 8416  -0.062   6.387   7.514  0.3547  0.0520  0.2095
   81CHL1   H14 8417  -0.007   6.301   7.471 -0.1308  0.5360 -1.4383
   81CHL1   C15 8418  -0.178   6.341   7.604  0.4743 -0.5018 -0.1541
   81CHL1  H15A 8419  -0.243   6.431   7.614  0.4689 -0.6938  1.9732
   81CHL1  H15B 8420  -0.238   6.259   7.559 -1.4418 -0.6540  2.4499
   81CHL1   C16 8421  -0.106   6.302   7.735  0.5454 -0.0034 -0.1065
   81CHL1  H16A 8422  -0.166   6.341   7.819  0.1625 -0.8736  0.0284
   81CHL1  H16B 8423  -0.100   6.192   7.751  2.2423  0.2652  1.4940
   81CHL1   C17 8424   0.040   6.348   7.720  0.1578  0.1960  0.3819
   81CHL1   H17 8425   0.088   6.258   7.676 -3.0850 -1.1512 -0.6813
   81CHL1   C13 8426   0.036   6.450   7.607 -0.0429  1.0340  0.0147
   81CHL1   C18 8427  -0.012   6.589   7.665  0.4970 -1.0406 -0.1548
   81CHL1  H18A 8428  -0.103   6.569   7.726  1.6708 -1.5727  1.4798
   81CHL1  H18B 8429   0.072   6.639   7.717 -1.7720 -0.5733  3.4265
   81CHL1  H18C 8430  -0.033   6.657   7.579 -1.5365  1.4862  2.1751
   81CHL1   C12 8431   0.171   6.465   7.540 -0.6877  0.3059  0.2054
   81CHL1  H12A 8432   0.250   6.510   7.604 -0.7280  1.1341 -0.3030
   81CHL1  H12B 8433   0.208   6.367   7.505  0.6155  0.4605  1.0830
   81CHL1   C11 8434   0.165   6.540   7.403  0.4728  0.0896 -0.8750
   81CHL1  H11A 8435   0.158   6.648   7.428 -0.4468 -0.5333  1.8748
   81CHL1  H11B 8436   0.258   6.519   7.345  0.7471  1.0985 -0.8081
   81CHL1    C9 8437   0.042   6.500   7.314  0.4277  0.7482  0.1128
   81CHL1    H9 8438   0.076   6.397   7.287  0.8389  0.7271  0.7045
   81CHL1   C10 8439   0.031   6.573   7.181 -0.7016  0.4159  0.5943
   81CHL1   C19 8440   0.013   6.726   7.198 -0.3138  0.0723  0.6873
   81CHL1  H19A 8441  -0.093   6.743   7.225 -0.1116  0.0456  1.5321
   81CHL1  H19B 8442   0.072   6.772   7.280  1.4845 -0.1479 -0.4345
   81CHL1  H19C 8443   0.030   6.788   7.108  0.2970  0.2407  0.9141
   81CHL1    C1 8444   0.165   6.541   7.101 -0.8989  0.5526 -0.2255
   81CHL1   H1A 8445   0.241   6.588   7.167 -0.9800 -1.3928  1.3574
   81CHL1   H1B 8446   0.190   6.433   7.106 -0.8003  0.6093  0.7295
   81CHL1    C2 8447   0.171   6.583   6.954  0.2562  0.0541  0.3726
   81CHL1   H2A 8448   0.258   6.539   6.901 -0.3238 -0.9252  0.1944
   81CHL1   H2B 8449   0.174   6.694   6.957  0.4154  0.0336  2.2675
   81CHL1   C20 8450   0.112   6.393   7.855  0.1681  0.6226 -0.1723
   81CHL1   H20 8451   0.203   6.448   7.824  2.2087 -2.2003  0.4066
   81CHL1   C21 8452   0.166   6.264   7.925 -0.0239 -0.2524  0.0526
   81CHL1  H21A 8453   0.206   6.280   8.027 -0.6337 -0.3703  0.3141
   81CHL1  H21B 8454   0.263   6.241   7.875  0.6676  1.3722  0.5864
   81CHL1  H21C 8455   0.085   6.189   7.916 -0.1249  0.0888 -2.9093
   81CHL1   C22 8456   0.042   6.481   7.966 -0.3258  0.2960  0.3660
   81CHL1  H22A 8457  -0.036   6.543   7.918  0.5001  1.5710  0.6262
   81CHL1  H22B 8458   0.008   6.402   8.037  0.2604 -1.5267 -1.3044
   81CHL1   C23 8459   0.132   6.579   8.050 -0.2158  0.4986 -0.4583
   81CHL1  H23A 8460   0.181   6.516   8.127 -0.7508 -0.4697 -0.8921
   81CHL1  H23B 8461   0.199   6.609   7.967  0.1252 -1.9829 -1.1752
   81CHL1   C24 8462   0.057   6.689   8.117  0.0895  0.0469 -0.5161
   81CHL1  H24A 8463   0.122   6.774   8.148 -1.4511  1.8542 -1.9829
   81CHL1  H24B 8464  -0.017   6.732   8.046  1.8749 -0.9953 -3.2044
   81CHL1   C25 8465  -0.022   6.646   8.242 -0.7265  0.5359 -0.4872
   81CHL1   H25 8466  -0.078   6.555   8.214 -2.4387  0.7268  1.9616
   81CHL1   C26 8467   0.081   6.628   8.364  0.4015 -0.5504  0.3933
   81CHL1  H26A 8468   0.035   6.637   8.465 -0.9163 -3.0571  0.1019
   81CHL1  H26B 8469   0.137   6.533   8.355  2.2174  0.4472  0.7183
   81CHL1  H26C 8470   0.158   6.707   8.356  1.2172 -1.3235  0.4269
   81CHL1   C27 8471  -0.127   6.756   8.285  0.2084  0.0676 -0.7000
   81CHL1  H27A 8472  -0.206   6.763   8.207 -0.4789 -1.6686 -0.2168
   81CHL1  H27B 8473  -0.190   6.724   8.371 -1.4714 -0.0319 -1.9086
   81CHL1  H27C 8474  -0.087   6.859   8.296  2.2782 -0.6868 -0.8114
   82CHL1    C3 8475   5.898   2.897   7.025 -0.7154 -0.5861 -0.7695
   82CHL1    H3 8476   5.922   2.791   7.050 -1.6194 -0.2182  2.0584
   82CHL1    O3 8477   5.920   2.913   6.885 -0.0037  0.2135  0.1528
   82CHL1   H3' 8478   5.877   2.995   6.862  0.2376  0.3532  0.2008
   82CHL1    C4 8479   5.746   2.919   7.048 -0.7597  0.8622 -1.4157
   82CHL1   H4A 8480   5.719   3.022   7.017 -2.0161  0.8173 -0.5658
   82CHL1   H4B 8481   5.683   2.852   6.985  1.3681 -2.3221 -0.3822
   82CHL1    C5 8482   5.707   2.915   7.191  0.2085  0.2973 -0.6159
   82CHL1    C6 8483   5.621   2.825   7.234  0.6966 -0.2151 -0.0845
   82CHL1    H6 8484   5.581   2.755   7.159  0.0700 -0.5222  0.5291
   82CHL1    C7 8485   5.571   2.831   7.372 -0.7816  0.0028  0.5290
   82CHL1   H7A 8486   5.462   2.846   7.382 -0.8406 -1.4349  2.9297
   82CHL1   H7B 8487   5.592   2.734   7.423 -1.0986 -0.9392 -1.0938
   82CHL1    C8 8488   5.634   2.937   7.465  0.3181 -0.3240 -0.2498
   82CHL1    H8 8489   5.561   3.020   7.472  0.1084 -0.6267  1.8451
   82CHL1   C14 8490   5.643   2.887   7.608 -0.1720 -0.7186  0.3629
   82CHL1   H14 8491   5.713   2.800   7.616  2.1946  0.9775 -0.6206
   82CHL1   C15 8492   5.512   2.836   7.671 -0.4085  0.5694  0.1097
   82CHL1  H15A 8493   5.431   2.908   7.649 -2.9267 -1.5424  1.8338
   82CHL1  H15B 8494   5.480   2.732   7.649  1.4669 -0.5378  2.1767
   82CHL1   C16 8495   5.540   2.839   7.821  0.6814  0.2161  0.2371
   82CHL1  H16A 8496   5.455   2.899   7.859  1.6112  1.3854  0.5276
   82CHL1  H16B 8497   5.539   2.739   7.869 -0.7389 -0.1935 -0.5717
   82CHL1   C17 8498   5.675   2.905   7.837 -0.2014 -0.1678 -0.4205
   82CHL1   H17 8499   5.750   2.823   7.827 -1.2739 -0.9378 -3.0101
   82CHL1   C13 8500   5.700   2.989   7.712  0.6067  0.2032  0.7506
   82CHL1   C18 8501   5.600   3.113   7.733 -0.4917 -0.8817 -0.8390
   82CHL1  H18A 8502   5.504   3.094   7.784 -0.8004  2.1009 -0.1219
   82CHL1  H18B 8503   5.654   3.191   7.792 -1.0810 -0.3182 -1.0346
   82CHL1  H18C 8504   5.579   3.175   7.643  0.5850 -1.8079 -1.7706
   82CHL1   C12 8505   5.839   3.021   7.675  0.7089  0.4098 -1.3312
   82CHL1  H12A 8506   5.886   3.091   7.747  3.5089 -2.6483  0.1134
   82CHL1  H12B 8507   5.905   2.932   7.686 -0.0737  0.0049  0.3769
   82CHL1   C11 8508   5.846   3.066   7.532 -0.3730  0.2309 -0.7882
   82CHL1  H11A 8509   5.807   3.169   7.517  1.1272  0.4834 -3.6483
   82CHL1  H11B 8510   5.953   3.078   7.505 -0.4327 -2.4258 -2.5775
   82CHL1    C9 8511   5.779   2.966   7.433 -0.4797 -0.7031  0.1149
   82CHL1    H9 8512   5.833   2.869   7.443 -1.6234 -1.6335 -2.0969
   82CHL1   C10 8513   5.787   3.010   7.283  0.2753  0.1357  0.6267
   82CHL1   C19 8514   5.733   3.150   7.266 -0.3355  0.2443  0.0281
   82CHL1  H19A 8515   5.798   3.219   7.325  1.1171  0.3856 -1.6518
   82CHL1  H19B 8516   5.732   3.186   7.161  0.6621  3.3620  0.9591
   82CHL1  H19C 8517   5.628   3.160   7.302  0.5213  0.0182  2.8331
   82CHL1    C1 8518   5.942   3.004   7.253  0.3933 -0.1724 -0.2276
   82CHL1   H1A 8519   6.000   3.091   7.290  1.3928 -0.6424 -0.6522
   82CHL1   H1B 8520   5.985   2.915   7.302 -1.1013  0.4747  2.4173
   82CHL1    C2 8521   5.984   3.000   7.100  0.6326  0.3403  0.2642
   82CHL1   H2A 8522   6.091   2.972   7.100  0.1547 -1.6245  0.0811
   82CHL1   H2B 8523   5.980   3.102   7.055 -4.1693  0.9025  1.4151
   82CHL1   C20 8524   5.684   2.972   7.980  0.0389 -0.3077 -0.4730
   82CHL1   H20 8525   5.618   3.061   7.989 -1.5057 -1.4993  0.4701
   82CHL1   C21 8526   5.824   3.036   8.004 -0.3271 -0.1953  0.1557
   82CHL1  H21A 8527   5.824   3.144   7.979 -1.1332  0.1115  1.3881
   82CHL1  H21B 8528   5.904   2.978   7.952  1.0158  0.2947  1.5786
   82CHL1  H21C 8529   5.854   3.031   8.111 -0.6147  3.7969  0.5714
   82CHL1   C22 8530   5.644   2.874   8.098 -0.0105 -0.7830 -0.7272
   82CHL1  H22A 8531   5.637   2.928   8.195 -1.4827 -0.3883 -1.0209
   82CHL1  H22B 8532   5.543   2.831   8.083 -1.1194  1.2279  0.5080
   82CHL1   C23 8533   5.739   2.751   8.133  0.4455 -0.2511 -0.4750
   82CHL1  H23A 8534   5.752   2.683   8.047  2.6547 -0.7476  0.1733
   82CHL1  H23B 8535   5.841   2.793   8.152 -0.6622  1.2577  3.0131
   82CHL1   C24 8536   5.706   2.680   8.267 -0.1912 -0.0152  0.0384
   82CHL1  H24A 8537   5.796   2.649   8.324 -1.1119 -1.3662  0.7914
   82CHL1  H24B 8538   5.648   2.754   8.326 -0.1796  1.1240 -1.3117
   82CHL1   C25 8539   5.623   2.549   8.246 -0.1594 -1.1101 -0.2061
   82CHL1   H25 8540   5.697   2.472   8.214 -0.7430 -1.4309 -0.8187
   82CHL1   C26 8541   5.557   2.503   8.375 -0.7053 -0.2297  0.4101
   82CHL1  H26A 8542   5.501   2.589   8.418 -0.1528  0.1737  0.3492
   82CHL1  H26B 8543   5.491   2.415   8.362 -0.5944 -0.6388  2.2832
   82CHL1  H26C 8544   5.636   2.503   8.453  3.2459  5.9688 -2.8092
   82CHL1   C27 8545   5.511   2.575   8.145 -0.3824  0.1137  0.2012
   82CHL1  H27A 8546   5.434   2.639   8.192 -1.0882 -0.5747  0.0047
   82CHL1  H27B 8547   5.541   2.609   8.044 -2.4674  1.8745  0.1063
   82CHL1  H27C 8548   5.475   2.471   8.127  1.7874 -0.9283  1.3503
   83CHL1    C3 8549   1.104   4.614   7.078 -0.8063  0.5392 -0.0804
   83CHL1    H3 8550   1.196   4.677   7.074  0.3307 -1.0127  0.6190
   83CHL1    O3 8551   1.010   4.655   6.974  0.1613 -0.2069 -0.7192
   83CHL1   H3' 8552   1.073   4.672   6.903  2.9940  1.1055  1.9012
   83CHL1    C4 8553   1.151   4.464   7.066  0.0998 -0.2309 -0.0359
   83CHL1   H4A 8554   1.053   4.413   7.062 -1.2895  2.3493 -1.8151
   83CHL1   H4B 8555   1.199   4.459   6.967 -0.2511  1.5815 -0.3464
   83CHL1    C5 8556   1.239   4.413   7.176 -0.4055  0.1494 -0.2446
   83CHL1    C6 8557   1.363   4.362   7.157 -0.1415  0.2539  0.0739
   83CHL1    H6 8558   1.412   4.364   7.059  4.9053 -1.3054  2.2114
   83CHL1    C7 8559   1.454   4.312   7.269 -0.0923 -0.8388  0.1969
   83CHL1   H7A 8560   1.516   4.223   7.244 -1.0282 -1.3909 -0.2183
   83CHL1   H7B 8561   1.532   4.390   7.280 -1.2855  1.0776 -3.2318
   83CHL1    C8 8562   1.377   4.281   7.402  0.0741 -0.0598  0.7367
   83CHL1    H8 8563   1.317   4.191   7.379  2.0364 -0.8041 -1.9007
   83CHL1   C14 8564   1.468   4.261   7.515 -0.7208 -0.5686 -0.3379
   83CHL1   H14 8565   1.516   4.359   7.535 -0.6239 -0.9219  1.3892
   83CHL1   C15 8566   1.579   4.156   7.497 -0.7698  0.2974 -0.3196
   83CHL1  H15A 8567   1.541   4.060   7.455  1.5029 -0.9022  0.1576
   83CHL1  H15B 8568   1.665   4.194   7.438  2.2069 -0.9809  2.8267
   83CHL1   C16 8569   1.633   4.131   7.635  0.1425  0.6105 -0.4920
   83CHL1  H16A 8570   1.654   4.022   7.647 -1.4516 -0.0387 -2.9287
   83CHL1  H16B 8571   1.727   4.187   7.650 -0.0080  0.7760 -0.1545
   83CHL1   C17 8572   1.522   4.192   7.734 -0.7456 -0.8518  0.6983
   83CHL1   H17 8573   1.558   4.292   7.767  1.7929 -1.0204 -1.2471
   83CHL1   C13 8574   1.400   4.221   7.641  0.3164  0.2373  0.2491
   83CHL1   C18 8575   1.319   4.084   7.623 -0.7486  0.1621 -0.1885
   83CHL1  H18A 8576   1.260   4.067   7.715 -2.6974 -0.0017 -1.4014
   83CHL1  H18B 8577   1.253   4.094   7.534 -0.4317  0.4441 -0.3989
   83CHL1  H18C 8578   1.389   4.003   7.595  1.3958  2.5318 -2.2637
   83CHL1   C12 8579   1.305   4.335   7.687 -0.0230 -0.1615  0.1893
   83CHL1  H12A 8580   1.238   4.296   7.766  1.0828 -1.0897  0.6964
   83CHL1  H12B 8581   1.364   4.424   7.719  0.3689 -0.4890  0.3878
   83CHL1   C11 8582   1.208   4.368   7.574  0.0747 -0.3491  0.1713
   83CHL1  H11A 8583   1.141   4.280   7.581 -0.2619  0.0130  2.0969
   83CHL1  H11B 8584   1.148   4.458   7.598  0.9227  0.3424 -0.2555
   83CHL1    C9 8585   1.281   4.390   7.432  0.0599  0.0007 -0.2445
   83CHL1    H9 8586   1.338   4.484   7.449  0.4992 -0.5378  1.3712
   83CHL1   C10 8587   1.181   4.429   7.316  0.8041 -0.0357 -0.3997
   83CHL1   C19 8588   1.054   4.341   7.332 -0.0339  0.2232  0.4081
   83CHL1  H19A 8589   0.997   4.372   7.423  0.9349 -1.6915  1.7411
   83CHL1  H19B 8590   0.988   4.351   7.244  1.3202  0.0033 -0.6533
   83CHL1  H19C 8591   1.076   4.232   7.336 -2.0740 -0.2934 -1.1573
   83CHL1    C1 8592   1.142   4.581   7.332  0.6096  0.2311  0.4198
   83CHL1   H1A 8593   1.107   4.594   7.436  2.4192 -0.7225  1.1843
   83CHL1   H1B 8594   1.236   4.640   7.324  0.0116  1.2509  0.7333
   83CHL1    C2 8595   1.044   4.635   7.221  0.1130  0.6784 -0.4374
   83CHL1   H2A 8596   1.010   4.740   7.235 -2.9167  0.0342 -2.0564
   83CHL1   H2B 8597   0.953   4.571   7.220  1.3962 -1.2262  0.5375
   83CHL1   C20 8598   1.494   4.121   7.872  0.1862  0.0608 -0.0181
   83CHL1   H20 8599   1.438   4.027   7.854 -0.4502 -0.2179  2.9183
   83CHL1   C21 8600   1.424   4.213   7.973  0.6146  0.4126  0.2056
   83CHL1  H21A 8601   1.478   4.308   7.993 -0.7614  1.0000  1.3739
   83CHL1  H21B 8602   1.419   4.165   8.073 -0.5546 -0.0416 -0.0537
   83CHL1  H21C 8603   1.321   4.241   7.942  0.6132 -0.4749 -0.6432
   83CHL1   C22 8604   1.635   4.070   7.925  0.1867 -0.1225 -0.2862
   83CHL1  H22A 8605   1.686   3.992   7.864 -1.8563  0.1630 -2.5368
   83CHL1  H22B 8606   1.698   4.162   7.932  1.2105 -0.6170 -2.1087
   83CHL1   C23 8607   1.616   4.009   8.066  0.2879 -0.0009 -0.5518
   83CHL1  H23A 8608   1.589   4.089   8.138  1.9883 -0.5653  0.7896
   83CHL1  H23B 8609   1.528   3.943   8.069  0.1612  0.1830  1.6035
   83CHL1   C24 8610   1.746   3.933   8.116 -0.1868  0.3171 -0.2292
   83CHL1  H24A 8611   1.747   3.845   8.048 -0.2093  0.9847 -1.1107
   83CHL1  H24B 8612   1.831   4.002   8.095  0.6945 -0.6731  0.0265
   83CHL1   C25 8613   1.749   3.867   8.250 -0.0692 -0.6381 -0.2485
   83CHL1   H25 8614   1.684   3.777   8.257  1.7005 -1.8574  2.6125
   83CHL1   C26 8615   1.888   3.809   8.279 -0.2785 -0.3150  0.2854
   83CHL1  H26A 8616   1.927   3.743   8.199 -2.2019  0.9119 -1.7885
   83CHL1  H26B 8617   1.964   3.888   8.295  0.3134 -0.8867  0.3485
   83CHL1  H26C 8618   1.880   3.754   8.376  1.8717 -0.9680  0.1439
   83CHL1   C27 8619   1.698   3.953   8.364  0.1006 -0.0243 -0.5498
   83CHL1  H27A 8620   1.696   3.901   8.462 -0.0201  0.0598 -0.5067
   83CHL1  H27B 8621   1.763   4.042   8.378  0.1827  0.3210 -2.7417
   83CHL1  H27C 8622   1.590   3.978   8.356 -0.2444 -0.9760  0.8735
   84CHL1    C3 8623   3.784   6.034   7.003  0.3608  0.4077  0.5643
   84CHL1    H3 8624   3.682   5.988   7.001  1.1045 -1.3454  0.5667
   84CHL1    O3 8625   3.834   6.023   6.868  0.0932  0.3346 -0.6419
   84CHL1   H3' 8626   3.930   6.034   6.871  0.2221 -0.6722  2.0199
   84CHL1    C4 8627   3.791   6.176   7.049  0.2306 -0.5171  0.2860
   84CHL1   H4A 8628   3.895   6.217   7.045  0.6813 -1.4141  1.9653
   84CHL1   H4B 8629   3.732   6.237   6.978  0.1015  0.0080  0.8367
   84CHL1    C5 8630   3.744   6.200   7.191 -0.6127 -0.1227  0.2635
   84CHL1    C6 8631   3.656   6.297   7.225  0.5593  0.5555 -0.2606
   84CHL1    H6 8632   3.597   6.356   7.153 -1.0576  0.8754  1.2428
   84CHL1    C7 8633   3.627   6.322   7.372 -0.5256 -0.3287  0.3199
   84CHL1   H7A 8634   3.629   6.432   7.387  0.2218 -0.3820  0.6745
   84CHL1   H7B 8635   3.526   6.282   7.394 -1.2611  1.4496  0.3890
   84CHL1    C8 8636   3.717   6.257   7.477 -0.7505 -0.3025  1.0514
   84CHL1    H8 8637   3.810   6.316   7.486 -0.8953  0.0841  0.0951
   84CHL1   C14 8638   3.655   6.260   7.617 -0.0125 -0.4376  0.3410
   84CHL1   H14 8639   3.558   6.207   7.604 -1.9996  2.6826  1.5178
   84CHL1   C15 8640   3.617   6.393   7.677 -0.4862 -0.0789 -0.1429
   84CHL1  H15A 8641   3.707   6.456   7.668  0.3334 -1.0175  1.1157
   84CHL1  H15B 8642   3.540   6.450   7.620 -1.6773 -1.0747  0.4289
   84CHL1   C16 8643   3.594   6.353   7.828 -0.2790  0.2222 -0.1252
   84CHL1  H16A 8644   3.643   6.428   7.893 -1.3382  0.5504  0.3056
   84CHL1  H16B 8645   3.485   6.364   7.845 -0.6601 -0.7836 -1.6632
   84CHL1   C17 8646   3.643   6.210   7.847 -0.7269  0.2093 -0.0046
   84CHL1   H17 8647   3.555   6.144   7.828 -1.3225  1.1715 -0.7067
   84CHL1   C13 8648   3.733   6.185   7.724  0.1850  0.1381 -0.5736
   84CHL1   C18 8649   3.869   6.249   7.746  0.6293 -0.0842 -0.2035
   84CHL1  H18A 8650   3.851   6.342   7.804 -2.2215  0.5269 -1.8710
   84CHL1  H18B 8651   3.927   6.175   7.806 -1.4483 -2.1747 -0.6138
   84CHL1  H18C 8652   3.930   6.270   7.655  0.5392  2.7072  0.2955
   84CHL1   C12 8653   3.750   6.039   7.680  0.3036 -0.2635  0.0912
   84CHL1  H12A 8654   3.803   5.989   7.764 -0.2640 -0.3130  0.4269
   84CHL1  H12B 8655   3.645   6.003   7.676 -0.1799  1.1289 -0.3411
   84CHL1   C11 8656   3.816   6.019   7.543  0.0878 -0.1151  0.2342
   84CHL1  H11A 8657   3.918   6.052   7.570  0.9838 -2.0051 -0.6176
   84CHL1  H11B 8658   3.825   5.914   7.508  0.3956  0.3051 -1.0177
   84CHL1    C9 8659   3.749   6.112   7.431  0.2713 -0.3832 -0.2300
   84CHL1    H9 8660   3.652   6.059   7.425 -0.4297  0.1256  3.7787
   84CHL1   C10 8661   3.811   6.109   7.285  0.2704  0.6295 -0.6542
   84CHL1   C19 8662   3.961   6.141   7.319 -0.1321  0.1582 -0.5508
   84CHL1  H19A 8663   3.975   6.209   7.405  0.6078 -0.5294 -0.1161
   84CHL1  H19B 8664   4.005   6.040   7.335 -0.4698 -0.1961 -1.7457
   84CHL1  H19C 8665   4.013   6.173   7.226  0.7980  2.7095  0.7459
   84CHL1    C1 8666   3.812   5.957   7.231  0.2472 -0.5183 -0.1239
   84CHL1   H1A 8667   3.866   5.889   7.300 -1.3955  1.2768  3.1785
   84CHL1   H1B 8668   3.705   5.926   7.236  0.3634 -0.7712  3.6551
   84CHL1    C2 8669   3.869   5.941   7.094  0.7432 -0.3709  0.4758
   84CHL1   H2A 8670   3.868   5.835   7.060  2.8260 -0.6573  1.1718
   84CHL1   H2B 8671   3.971   5.984   7.094  0.2790  0.7801  1.1949
   84CHL1   C20 8672   3.703   6.167   7.983 -0.0730 -0.5585  0.1595
   84CHL1   H20 8673   3.747   6.065   7.979  0.3204 -0.4232  0.7788
   84CHL1   C21 8674   3.576   6.139   8.060  0.5915  0.7981  0.8190
   84CHL1  H21A 8675   3.511   6.229   8.056 -0.5009 -0.0139 -0.3525
   84CHL1  H21B 8676   3.595   6.121   8.168  1.7997 -0.1868  0.4779
   84CHL1  H21C 8677   3.512   6.054   8.028 -1.4850  1.9220  1.8457
   84CHL1   C22 8678   3.799   6.268   8.063 -0.1281  1.1382 -0.5633
   84CHL1  H22A 8679   3.896   6.279   8.012  0.1076 -0.7758 -0.6136
   84CHL1  H22B 8680   3.745   6.365   8.061  0.5756  1.5388 -0.3783
   84CHL1   C23 8681   3.831   6.232   8.204 -0.5525  1.1082 -0.1575
   84CHL1  H23A 8682   3.743   6.251   8.268 -1.5917  2.1459 -1.8268
   84CHL1  H23B 8683   3.862   6.127   8.224 -1.5791  1.0541  1.2810
   84CHL1   C24 8684   3.945   6.322   8.257  0.3146  0.5113  0.0603
   84CHL1  H24A 8685   4.041   6.318   8.201  0.7324  2.5979  0.5567
   84CHL1  H24B 8686   3.908   6.426   8.248 -0.7146  0.0193 -2.0394
   84CHL1   C25 8687   3.956   6.302   8.407  0.6198 -0.1693  0.2950
   84CHL1   H25 8688   3.855   6.286   8.450  0.8236 -1.9858  0.1538
   84CHL1   C26 8689   4.036   6.169   8.433 -0.2449  0.0195 -0.1731
   84CHL1  H26A 8690   4.077   6.156   8.536  2.9747  2.0428 -1.0617
   84CHL1  H26B 8691   3.975   6.082   8.401  0.6153 -1.0224  0.9079
   84CHL1  H26C 8692   4.125   6.174   8.366 -0.0682 -1.2459 -0.0575
   84CHL1   C27 8693   4.034   6.419   8.472 -0.2618 -0.0407 -0.6527
   84CHL1  H27A 8694   3.976   6.513   8.459 -0.7168 -0.3237 -0.7201
   84CHL1  H27B 8695   4.054   6.401   8.580 -0.5804  1.4891 -0.3178
   84CHL1  H27C 8696   4.133   6.436   8.426 -0.0853  1.6862  0.2724
   85CHL1    C3 8697   2.264   5.834   7.063  0.1219 -0.3929  1.1327
   85CHL1    H3 8698   2.196   5.913   7.101  0.8249  0.9205 -0.2601
   85CHL1    O3 8699   2.288   5.860   6.923 -0.0254  0.7277 -0.4121
   85CHL1   H3' 8700   2.201   5.853   6.884  0.0578 -1.7174 -0.3696
   85CHL1    C4 8701   2.402   5.825   7.130  0.4178 -0.6319 -0.2015
   85CHL1   H4A 8702   2.463   5.751   7.074  2.0084  1.1392 -0.9147
   85CHL1   H4B 8703   2.470   5.911   7.112  0.5925 -0.8853 -0.7968
   85CHL1    C5 8704   2.378   5.799   7.275  0.2693  0.4996 -0.1786
   85CHL1    C6 8705   2.432   5.877   7.373  0.4160 -0.3458  0.3929
   85CHL1    H6 8706   2.493   5.962   7.339 -1.4837  0.9996  0.1694
   85CHL1    C7 8707   2.415   5.852   7.518 -0.1085 -0.8263 -0.3837
   85CHL1   H7A 8708   2.502   5.896   7.571 -0.5211  1.0481 -1.1602
   85CHL1   H7B 8709   2.336   5.918   7.561 -0.0984 -1.5713  0.8103
   85CHL1    C8 8710   2.380   5.706   7.556 -0.6061  0.0465 -0.7038
   85CHL1    H8 8711   2.448   5.620   7.542 -3.3193 -1.9616 -2.6654
   85CHL1   C14 8712   2.328   5.700   7.702 -0.0069 -0.7289  0.5218
   85CHL1   H14 8713   2.245   5.773   7.711  2.7439  2.7453 -0.4973
   85CHL1   C15 8714   2.440   5.756   7.798  0.1737  0.4155 -0.3864
   85CHL1  H15A 8715   2.544   5.723   7.777  0.2628 -0.2724  1.0171
   85CHL1  H15B 8716   2.435   5.866   7.809  0.9983  0.4983 -0.7723
   85CHL1   C16 8717   2.393   5.693   7.933 -0.3519  0.6561 -0.3377
   85CHL1  H16A 8718   2.476   5.640   7.984 -1.6277 -0.3262  0.8089
   85CHL1  H16B 8719   2.370   5.776   8.002  2.5250  1.3480 -0.0800
   85CHL1   C17 8720   2.275   5.599   7.904  0.7612 -0.7737  0.6150
   85CHL1   H17 8721   2.183   5.661   7.916  1.0890 -0.0095 -0.6394
   85CHL1   C13 8722   2.291   5.567   7.754 -0.0468  0.7774  0.3823
   85CHL1   C18 8723   2.389   5.453   7.725 -0.3971  0.4712 -0.1439
   85CHL1  H18A 8724   2.371   5.361   7.786  2.3682 -1.2627 -1.7333
   85CHL1  H18B 8725   2.382   5.419   7.620 -1.4534  0.5390 -0.1043
   85CHL1  H18C 8726   2.492   5.489   7.744 -0.1169 -1.8104  4.0875
   85CHL1   C12 8727   2.164   5.539   7.670 -0.3717  0.3992 -0.3913
   85CHL1  H12A 8728   2.115   5.441   7.691 -0.6518  0.5726 -0.2235
   85CHL1  H12B 8729   2.085   5.612   7.698 -0.0176  0.2768  1.0422
   85CHL1   C11 8730   2.178   5.550   7.514 -0.1905 -0.0948  0.0451
   85CHL1  H11A 8731   2.231   5.460   7.474  1.1916  1.4192 -1.7074
   85CHL1  H11B 8732   2.079   5.560   7.467 -1.0071  0.7735  1.8334
   85CHL1    C9 8733   2.262   5.673   7.464  0.5806  0.5248  0.1917
   85CHL1    H9 8734   2.197   5.763   7.477  0.4865  0.8625 -2.1783
   85CHL1   C10 8735   2.292   5.676   7.313 -0.2837  0.0691  1.0183
   85CHL1   C19 8736   2.374   5.553   7.285  0.3936  0.1735  0.3050
   85CHL1  H19A 8737   2.294   5.476   7.283  0.4596  0.1112 -0.1701
   85CHL1  H19B 8738   2.420   5.543   7.184 -0.4488 -2.7579  0.1275
   85CHL1  H19C 8739   2.445   5.522   7.364  1.7791  1.0596 -0.5476
   85CHL1    C1 8740   2.165   5.664   7.227 -0.0714 -0.1678 -0.2157
   85CHL1   H1A 8741   2.108   5.570   7.241  0.8821 -0.9233 -1.2385
   85CHL1   H1B 8742   2.098   5.747   7.257 -1.5092 -2.3679  3.3861
   85CHL1    C2 8743   2.184   5.703   7.075  0.1632 -0.3032  0.5658
   85CHL1   H2A 8744   2.081   5.711   7.034 -0.3323 -1.5407  1.5034
   85CHL1   H2B 8745   2.231   5.613   7.032 -0.0709  0.9243 -2.4846
   85CHL1   C20 8746   2.259   5.480   8.001 -0.5653  0.5182  0.7838
   85CHL1   H20 8747   2.359   5.434   8.017  1.6875  4.6340  0.0013
   85CHL1   C21 8748   2.149   5.385   7.956  0.6554 -0.3350 -0.4287
   85CHL1  H21A 8749   2.059   5.451   7.950  1.7751  1.4239  1.1096
   85CHL1  H21B 8750   2.124   5.301   8.024  0.4738  0.2938  0.2905
   85CHL1  H21C 8751   2.186   5.340   7.861 -1.6920 -1.5790 -0.8373
   85CHL1   C22 8752   2.237   5.523   8.146  0.3795 -0.0403 -0.1884
   85CHL1  H22A 8753   2.317   5.596   8.172  1.3600 -0.9312 -0.6263
   85CHL1  H22B 8754   2.133   5.561   8.151 -0.2981 -1.5573 -1.8754
   85CHL1   C23 8755   2.251   5.418   8.255  0.2227  0.0681 -0.0540
   85CHL1  H23A 8756   2.166   5.347   8.241 -0.0493 -0.1449  2.1863
   85CHL1  H23B 8757   2.349   5.366   8.250 -1.1894 -3.0416  1.2341
   85CHL1   C24 8758   2.227   5.481   8.396 -0.2768  0.4250 -0.5236
   85CHL1  H24A 8759   2.319   5.536   8.422 -0.8100  1.1452 -0.1168
   85CHL1  H24B 8760   2.154   5.565   8.391  1.7956  2.3586  0.0829
   85CHL1   C25 8761   2.210   5.376   8.509 -0.2118  0.6679  0.3486
   85CHL1   H25 8762   2.109   5.333   8.491  0.2018 -0.6455  1.0773
   85CHL1   C26 8763   2.317   5.263   8.504 -0.4685  0.1604  0.1101
   85CHL1  H26A 8764   2.295   5.197   8.590 -0.3748 -0.3587 -0.2599
   85CHL1  H26B 8765   2.298   5.212   8.407 -0.8608  2.0420 -0.8437
   85CHL1  H26C 8766   2.424   5.292   8.503 -0.8999  2.0492  2.1545
   85CHL1   C27 8767   2.205   5.442   8.645  0.2451 -0.7426  0.4250
   85CHL1  H27A 8768   2.173   5.365   8.717 -1.2697 -0.7299 -0.2032
   85CHL1  H27B 8769   2.305   5.485   8.669 -0.1465  0.8632 -0.6433
   85CHL1  H27C 8770   2.133   5.526   8.637  0.5694 -0.5788 -1.0334
   86CHL1    C3 8771   0.324   0.246   6.849  0.2846  0.2242  0.9165
   86CHL1    H3 8772   0.425   0.243   6.803 -0.7729 -1.0657 -1.5146
   86CHL1    O3 8773   0.237   0.247   6.733  0.0523 -0.2079  0.6886
   86CHL1   H3' 8774   0.192   0.331   6.721  0.4089 -0.3482 -2.0712
   86CHL1    C4 8775   0.273   0.130   6.933 -0.5841 -0.8016 -0.1273
   86CHL1   H4A 8776   0.162   0.133   6.934 -0.9668 -5.3234  2.8619
   86CHL1   H4B 8777   0.285   0.039   6.870  1.7504 -1.4023  1.0584
   86CHL1    C5 8778   0.338   0.122   7.077  0.5207  1.0379  0.0523
   86CHL1    C6 8779   0.396   0.011   7.117  0.6113  0.2963 -0.2390
   86CHL1    H6 8780   0.380  -0.072   7.046 -3.7525  1.0303 -0.4152
   86CHL1    C7 8781   0.438  -0.008   7.262 -0.5161 -0.4544  0.3668
   86CHL1   H7A 8782   0.402  -0.111   7.284  1.7645 -0.7234  3.4797
   86CHL1   H7B 8783   0.549  -0.017   7.268 -0.2103  2.6738  1.1264
   86CHL1    C8 8784   0.387   0.101   7.353  0.1297  0.2539 -0.4234
   86CHL1    H8 8785   0.283   0.067   7.374  1.4742 -1.9464  3.7032
   86CHL1   C14 8786   0.462   0.086   7.481 -0.1343 -1.0363  0.0774
   86CHL1   H14 8787   0.560   0.133   7.458 -1.5420  2.6993  0.9088
   86CHL1   C15 8788   0.487  -0.051   7.554  0.0358 -0.4376 -0.8862
   86CHL1  H15A 8789   0.390  -0.102   7.571  0.1519 -0.3153  0.2459
   86CHL1  H15B 8790   0.557  -0.122   7.505 -1.3786 -0.2365 -3.3463
   86CHL1   C16 8791   0.546  -0.006   7.693  0.8343  0.1867 -0.1988
   86CHL1  H16A 8792   0.480  -0.053   7.769  1.6242 -0.0890  0.3228
   86CHL1  H16B 8793   0.654  -0.026   7.707  0.8031 -0.4848 -0.8227
   86CHL1   C17 8794   0.515   0.140   7.708  0.8548 -0.3830  0.1336
   86CHL1   H17 8795   0.606   0.190   7.668 -0.2684  1.7362  0.0827
   86CHL1   C13 8796   0.413   0.182   7.590 -0.0911  0.1364  0.3315
   86CHL1   C18 8797   0.264   0.151   7.628 -0.0218 -0.4158 -0.0925
   86CHL1  H18A 8798   0.259   0.055   7.684  3.1704 -2.0182 -2.2555
   86CHL1  H18B 8799   0.225   0.237   7.686  0.4551 -0.8525  0.8948
   86CHL1  H18C 8800   0.200   0.132   7.539 -0.7531  2.7919 -0.3904
   86CHL1   C12 8801   0.416   0.328   7.536 -0.6523 -0.1187 -0.8035
   86CHL1  H12A 8802   0.381   0.401   7.612  3.0492 -0.2156  1.2465
   86CHL1  H12B 8803   0.524   0.352   7.522 -0.6482  0.2023 -0.2868
   86CHL1   C11 8804   0.351   0.343   7.401 -0.0431  0.0519  0.3115
   86CHL1  H11A 8805   0.243   0.335   7.427 -0.1448  1.9920  0.6552
   86CHL1  H11B 8806   0.353   0.446   7.359  0.2525  0.5457  1.4945
   86CHL1    C9 8807   0.397   0.242   7.294 -0.2568 -0.7167 -0.1926
   86CHL1    H9 8808   0.505   0.261   7.276 -0.8057  1.6109 -1.2998
   86CHL1   C10 8809   0.318   0.249   7.162  0.0283 -0.1817 -0.6081
   86CHL1   C19 8810   0.169   0.264   7.188 -0.5167 -0.7092  0.3014
   86CHL1  H19A 8811   0.151   0.367   7.226  1.8896  0.9061 -2.5259
   86CHL1  H19B 8812   0.111   0.267   7.093  0.8474  0.9863 -0.5361
   86CHL1  H19C 8813   0.143   0.191   7.268 -0.5997 -0.3308  0.6234
   86CHL1    C1 8814   0.376   0.368   7.071  0.2049  0.0269  0.3388
   86CHL1   H1A 8815   0.353   0.460   7.129 -0.5034  0.1709 -0.1570
   86CHL1   H1B 8816   0.486   0.360   7.061  0.2700  1.0638  0.1088
   86CHL1    C2 8817   0.309   0.370   6.932  0.3192 -0.3636 -0.6125
   86CHL1   H2A 8818   0.353   0.454   6.874 -1.1055  0.5849 -0.3604
   86CHL1   H2B 8819   0.202   0.398   6.935  0.7202  1.2026  0.9578
   86CHL1   C20 8820   0.500   0.185   7.853  0.0794 -0.2733 -0.1961
   86CHL1   H20 8821   0.420   0.130   7.907  1.7769 -1.1718  1.5259
   86CHL1   C21 8822   0.460   0.326   7.872 -0.2258 -0.0319  0.3433
   86CHL1  H21A 8823   0.528   0.397   7.819 -1.1007  1.6734  1.3919
   86CHL1  H21B 8824   0.460   0.340   7.982 -0.7754 -1.0160  0.4751
   86CHL1  H21C 8825   0.356   0.336   7.834  0.0411 -1.0120 -0.6878
   86CHL1   C22 8826   0.625   0.151   7.931 -0.4237 -0.2333 -0.2373
   86CHL1  H22A 8827   0.644   0.044   7.908 -0.3768  0.3480 -3.3486
   86CHL1  H22B 8828   0.714   0.212   7.904  0.5439 -0.9545  1.1768
   86CHL1   C23 8829   0.621   0.172   8.088 -0.5973  0.3480  0.0753
   86CHL1  H23A 8830   0.630   0.283   8.097 -0.5487  0.4545 -1.1232
   86CHL1  H23B 8831   0.519   0.148   8.125  0.5151 -2.3164  1.6560
   86CHL1   C24 8832   0.724   0.093   8.175 -0.0278 -0.1393 -0.7776
   86CHL1  H24A 8833   0.675  -0.001   8.210 -3.2554  1.8486  0.5073
   86CHL1  H24B 8834   0.815   0.068   8.117  0.6512  0.0893  0.1698
   86CHL1   C25 8835   0.768   0.164   8.303 -0.2279 -0.1798 -0.3635
   86CHL1   H25 8836   0.808   0.264   8.275 -0.7734  0.2015  0.1880
   86CHL1   C26 8837   0.651   0.188   8.402  0.7884  0.1324 -0.5298
   86CHL1  H26A 8838   0.694   0.241   8.490 -1.7226 -0.8432  1.4051
   86CHL1  H26B 8839   0.568   0.246   8.355  0.1702 -0.3934 -0.0918
   86CHL1  H26C 8840   0.609   0.090   8.432  0.3525  0.4569 -0.0807
   86CHL1   C27 8841   0.878   0.076   8.363 -1.0095  0.6878  0.1803
   86CHL1  H27A 8842   0.823  -0.011   8.404 -2.0242  2.1056  2.0049
   86CHL1  H27B 8843   0.955   0.042   8.291  0.4421 -0.3056  2.1113
   86CHL1  H27C 8844   0.929   0.126   8.448 -1.8878  0.8657  0.6145
   87CHL1    C3 8845   5.662   6.641   6.827  0.1845  0.4541  0.7199
   87CHL1    H3 8846   5.754   6.579   6.815  0.6109  0.9140  1.5215
   87CHL1    O3 8847   5.616   6.694   6.702  0.6969  0.2897 -0.4834
   87CHL1   H3' 8848   5.684   6.753   6.668  1.0308  0.3284  0.2327
   87CHL1    C4 8849   5.548   6.559   6.888 -0.4693  0.4283  0.1499
   87CHL1   H4A 8850   5.461   6.624   6.869  0.1543  0.8287 -1.4278
   87CHL1   H4B 8851   5.545   6.470   6.822 -2.4418  1.2305 -0.9011
   87CHL1    C5 8852   5.585   6.507   7.026  0.3656 -0.2877  0.1573
   87CHL1    C6 8853   5.575   6.377   7.055  0.2694 -0.4283  0.2156
   87CHL1    H6 8854   5.558   6.298   6.980 -0.8552  0.3018 -0.3225
   87CHL1    C7 8855   5.590   6.328   7.193  0.0269 -0.3476 -0.8029
   87CHL1   H7A 8856   5.507   6.258   7.213  0.6744 -1.9864 -3.2551
   87CHL1   H7B 8857   5.689   6.277   7.193  1.9975  3.1165 -1.4810
   87CHL1    C8 8858   5.607   6.428   7.313  0.6648 -1.0574  0.5280
   87CHL1    H8 8859   5.504   6.462   7.336  0.0764 -1.1580 -1.6996
   87CHL1   C14 8860   5.687   6.373   7.424  0.1054  0.8544 -0.2916
   87CHL1   H14 8861   5.790   6.354   7.389  0.1951  0.8352 -0.0156
   87CHL1   C15 8862   5.632   6.244   7.497 -0.5054  0.2740  0.2694
   87CHL1  H15A 8863   5.522   6.252   7.513 -0.9119 -1.7941 -1.1220
   87CHL1  H15B 8864   5.650   6.149   7.442 -1.0102  1.3866 -1.9595
   87CHL1   C16 8865   5.700   6.246   7.632  0.1578  0.0386 -0.3495
   87CHL1  H16A 8866   5.637   6.234   7.723 -0.1268  1.8927 -0.2670
   87CHL1  H16B 8867   5.769   6.160   7.625 -1.1798 -0.8960 -3.8086
   87CHL1   C17 8868   5.778   6.378   7.641 -0.5832 -0.4582  0.2001
   87CHL1   H17 8869   5.878   6.352   7.600 -0.6035  2.3961 -2.0302
   87CHL1   C13 8870   5.705   6.473   7.541 -0.0030 -0.2942 -0.0140
   87CHL1   C18 8871   5.571   6.524   7.594  0.8557 -0.4764  0.2642
   87CHL1  H18A 8872   5.521   6.442   7.651  3.2552 -3.0071 -1.0116
   87CHL1  H18B 8873   5.583   6.609   7.664 -0.4698 -0.0354 -0.0131
   87CHL1  H18C 8874   5.500   6.563   7.518 -0.5367 -2.1422  0.6416
   87CHL1   C12 8875   5.780   6.590   7.495  1.3420 -1.0557 -0.1493
   87CHL1  H12A 8876   5.771   6.675   7.567 -2.3969 -0.6188 -0.9025
   87CHL1  H12B 8877   5.885   6.564   7.469  1.6704 -1.0234  1.0651
   87CHL1   C11 8878   5.715   6.655   7.373 -0.3346 -0.7805  0.2778
   87CHL1  H11A 8879   5.622   6.703   7.411 -0.3302 -0.9485  0.5026
   87CHL1  H11B 8880   5.780   6.739   7.340 -0.2641 -1.5960 -1.7989
   87CHL1    C9 8881   5.685   6.551   7.263  0.1907 -0.6695  0.1736
   87CHL1    H9 8882   5.782   6.506   7.233 -0.4196 -0.6412 -1.9699
   87CHL1   C10 8883   5.627   6.616   7.123 -0.1286  0.2989 -0.7538
   87CHL1   C19 8884   5.497   6.699   7.163 -0.1741 -0.7456  0.0292
   87CHL1  H19A 8885   5.426   6.630   7.215  2.6844 -1.5424  3.3015
   87CHL1  H19B 8886   5.521   6.778   7.238 -1.7068 -0.2355 -0.0005
   87CHL1  H19C 8887   5.467   6.749   7.069 -1.0222 -0.8428  0.2434
   87CHL1    C1 8888   5.742   6.704   7.060  0.7615  0.5673  0.0486
   87CHL1   H1A 8889   5.771   6.795   7.118  1.1373  0.2116  0.4305
   87CHL1   H1B 8890   5.838   6.648   7.055 -0.4592 -1.8905  1.9844
   87CHL1    C2 8891   5.709   6.753   6.921  0.0456 -0.4427 -0.2170
   87CHL1   H2A 8892   5.788   6.812   6.870  0.0768  0.6376  1.0340
   87CHL1   H2B 8893   5.621   6.821   6.929  0.4600  0.3210 -1.6444
   87CHL1   C20 8894   5.792   6.423   7.790 -0.2737  0.2882  0.0355
   87CHL1   H20 8895   5.686   6.430   7.824 -1.0609 -2.8441 -1.4097
   87CHL1   C21 8896   5.856   6.563   7.808  0.2333 -0.0247 -0.6371
   87CHL1  H21A 8897   5.786   6.630   7.754 -0.6776 -2.2642 -2.3547
   87CHL1  H21B 8898   5.961   6.571   7.772  0.2041 -0.4539 -0.8256
   87CHL1  H21C 8899   5.851   6.597   7.914 -0.2642 -1.6342 -0.1127
   87CHL1   C22 8900   5.856   6.313   7.878 -0.4358 -0.1413  0.0899
   87CHL1  H22A 8901   5.825   6.211   7.848  2.6730 -1.6269  1.5517
   87CHL1  H22B 8902   5.960   6.323   7.841 -0.4770  0.0819  0.0277
   87CHL1   C23 8903   5.857   6.342   8.034  0.4292  0.2271  1.2106
   87CHL1  H23A 8904   5.934   6.276   8.078  0.5179 -0.3259  0.2509
   87CHL1  H23B 8905   5.884   6.448   8.053 -2.9651  1.5744 -0.5227
   87CHL1   C24 8906   5.715   6.310   8.091 -0.8273  0.5462  0.1748
   87CHL1  H24A 8907   5.639   6.378   8.046  0.5585  1.1839 -1.3328
   87CHL1  H24B 8908   5.696   6.208   8.051 -0.4184  0.5630 -0.0756
   87CHL1   C25 8909   5.691   6.306   8.244 -0.5049 -0.7408 -0.2311
   87CHL1   H25 8910   5.721   6.411   8.264 -2.2545  0.3344 -2.7376
   87CHL1   C26 8911   5.549   6.288   8.288 -1.2771  0.0759 -0.8103
   87CHL1  H26A 8912   5.483   6.342   8.217 -1.4118  0.1407 -0.6367
   87CHL1  H26B 8913   5.521   6.180   8.286 -2.1203  0.0370  3.6148
   87CHL1  H26C 8914   5.539   6.317   8.394  2.7247 -2.0446  0.3531
   87CHL1   C27 8915   5.789   6.202   8.301  0.5652  0.6267 -0.4619
   87CHL1  H27A 8916   5.893   6.240   8.291  0.3357  2.0599  1.8253
   87CHL1  H27B 8917   5.773   6.194   8.411  2.0233  0.3248 -0.2404
   87CHL1  H27C 8918   5.781   6.109   8.240  2.0161  0.6003 -0.6528
   88CHL1    C3 8919   2.933   5.057   7.095  0.4633  0.4694 -0.3290
   88CHL1    H3 8920   2.851   5.072   7.170  0.4328  2.2529 -0.6718
   88CHL1    O3 8921   2.866   5.042   6.974  0.0148 -0.0496  0.3673
   88CHL1   H3' 8922   2.815   5.123   6.964  0.7631  0.3778 -0.0729
   88CHL1    C4 8923   3.012   5.188   7.098  0.0991 -0.1065 -0.4455
   88CHL1   H4A 8924   3.093   5.184   7.022 -1.1625  1.4944 -1.9775
   88CHL1   H4B 8925   2.947   5.273   7.067  0.9395  0.8758  0.4094
   88CHL1    C5 8926   3.076   5.215   7.236 -0.3853  0.1212 -0.3611
   88CHL1    C6 8927   3.048   5.325   7.300 -0.5893  0.2044 -0.1563
   88CHL1    H6 8928   2.985   5.399   7.249 -0.3727 -0.5605 -1.6056
   88CHL1    C7 8929   3.096   5.361   7.439 -0.3506  0.1006  0.9169
   88CHL1   H7A 8930   3.144   5.461   7.444 -0.5451  0.2941 -0.7977
   88CHL1   H7B 8931   3.010   5.348   7.508 -1.0641 -0.9868 -0.1300
   88CHL1    C8 8932   3.199   5.259   7.490 -0.0525 -0.3604  0.4195
   88CHL1    H8 8933   3.294   5.295   7.446  0.9543 -2.3420  0.8675
   88CHL1   C14 8934   3.200   5.269   7.640  1.0300 -0.3197 -0.3919
   88CHL1   H14 8935   3.100   5.232   7.670 -0.0494  0.8492 -2.3716
   88CHL1   C15 8936   3.216   5.407   7.715 -0.1788 -0.0803 -0.1627
   88CHL1  H15A 8937   3.299   5.463   7.667 -1.4202  0.9933 -1.1541
   88CHL1  H15B 8938   3.129   5.475   7.699  0.6753  1.3546  0.9817
   88CHL1   C16 8939   3.250   5.369   7.864 -0.1889  0.0711  0.5423
   88CHL1  H16A 8940   3.349   5.407   7.897 -0.2526 -0.6460  1.5891
   88CHL1  H16B 8941   3.186   5.401   7.949 -1.8965 -1.0632 -0.2480
   88CHL1   C17 8942   3.259   5.210   7.861 -0.2563 -0.0947 -0.4252
   88CHL1   H17 8943   3.163   5.168   7.898  0.6979 -1.5967  0.4861
   88CHL1   C13 8944   3.295   5.175   7.714  0.1188  0.1479  0.9707
   88CHL1   C18 8945   3.445   5.224   7.687 -0.3300 -0.1987 -0.4292
   88CHL1  H18A 8946   3.464   5.329   7.719 -2.5579  0.3921 -0.8913
   88CHL1  H18B 8947   3.509   5.153   7.745 -0.4636  0.7508  0.9292
   88CHL1  H18C 8948   3.469   5.218   7.579  1.4603 -0.2722 -0.0584
   88CHL1   C12 8949   3.270   5.031   7.671  0.4675 -0.4845 -0.7834
   88CHL1  H12A 8950   3.353   4.962   7.698  1.1303  0.0230 -1.4616
   88CHL1  H12B 8951   3.181   4.985   7.717 -0.7682  0.2867 -2.3011
   88CHL1   C11 8952   3.257   5.012   7.522  0.1412 -0.0838 -0.4623
   88CHL1  H11A 8953   3.364   5.026   7.493 -0.4252  0.0354 -2.7263
   88CHL1  H11B 8954   3.225   4.908   7.501  2.9710 -1.4771  1.4925
   88CHL1    C9 8955   3.169   5.115   7.447 -0.4342  0.4863 -1.3095
   88CHL1    H9 8956   3.067   5.108   7.490 -0.0212  2.4315  0.1527
   88CHL1   C10 8957   3.157   5.097   7.298  0.5699 -0.8348  0.4910
   88CHL1   C19 8958   3.295   5.105   7.238  0.4061 -0.8109  0.8539
   88CHL1  H19A 8959   3.344   5.203   7.258 -1.1215 -0.0012  0.8477
   88CHL1  H19B 8960   3.355   5.027   7.290  0.3336 -0.8659  0.8539
   88CHL1  H19C 8961   3.297   5.087   7.129  1.4248  1.4714  0.4458
   88CHL1    C1 8962   3.085   4.963   7.268  0.3809 -0.3710 -0.2666
   88CHL1   H1A 8963   3.165   4.886   7.276  1.5130  0.9269  1.5683
   88CHL1   H1B 8964   3.004   4.958   7.343 -0.9280  3.5992 -1.1636
   88CHL1    C2 8965   3.026   4.938   7.129  0.3018 -0.2021  0.2047
   88CHL1   H2A 8966   2.959   4.850   7.127 -0.8852  0.6351  1.3901
   88CHL1   H2B 8967   3.101   4.929   7.048  0.7135 -0.3681  0.5996
   88CHL1   C20 8968   3.358   5.164   7.972 -0.1994 -0.7265  0.3097
   88CHL1   H20 8969   3.464   5.199   7.966 -0.6220  0.7803  0.9720
   88CHL1   C21 8970   3.354   5.008   7.977  0.4193 -0.0217 -0.2409
   88CHL1  H21A 8971   3.259   4.973   7.934 -1.1539  1.7580  1.5611
   88CHL1  H21B 8972   3.364   4.975   8.083 -1.3706  0.1819  0.0187
   88CHL1  H21C 8973   3.445   4.964   7.930  1.0425  1.3293 -0.3547
   88CHL1   C22 8974   3.323   5.233   8.114 -0.4498 -0.7312 -0.1099
   88CHL1  H22A 8975   3.403   5.208   8.187  0.2109  1.1284 -0.1223
   88CHL1  H22B 8976   3.337   5.343   8.101 -1.6586 -0.3886  1.2006
   88CHL1   C23 8977   3.183   5.202   8.172  1.2261  0.4268  0.7677
   88CHL1  H23A 8978   3.101   5.230   8.102  1.2036 -0.8845  0.2445
   88CHL1  H23B 8979   3.178   5.092   8.186 -3.1072  0.6478  2.4931
   88CHL1   C24 8980   3.170   5.253   8.312  0.2441 -0.1420 -0.4210
   88CHL1  H24A 8981   3.075   5.209   8.348  1.1896 -1.4208  0.6138
   88CHL1  H24B 8982   3.258   5.210   8.366  0.4750 -0.8564 -1.3450
   88CHL1   C25 8983   3.171   5.408   8.319  0.1710 -0.9211 -0.4342
   88CHL1   H25 8984   3.267   5.440   8.271  1.0092 -3.4936 -0.5958
   88CHL1   C26 8985   3.056   5.474   8.246  0.0892 -0.1418 -0.3267
   88CHL1  H26A 8986   2.959   5.448   8.293 -0.8671  1.2449 -1.4584
   88CHL1  H26B 8987   3.062   5.585   8.250  0.5294 -0.1233 -1.1737
   88CHL1  H26C 8988   3.045   5.431   8.145  0.7459  1.8787 -1.3167
   88CHL1   C27 8989   3.169   5.445   8.466 -0.7012  0.3940 -0.3844
   88CHL1  H27A 8990   3.090   5.384   8.513  0.3973 -2.0852 -1.5470
   88CHL1  H27B 8991   3.268   5.418   8.509 -1.2491 -0.2391  0.5014
   88CHL1  H27C 8992   3.150   5.553   8.483 -1.8008  0.0575  0.6302
   89CHL1    C3 8993   0.808   0.754   6.986 -0.7197 -0.2518  0.1170
   89CHL1    H3 8994   0.828   0.864   6.984  0.1572 -0.4136 -0.0728
   89CHL1    O3 8995   0.855   0.689   6.870  0.1896  0.0840  0.2463
   89CHL1   H3' 8996   0.830   0.596   6.874 -0.7778  0.0617 -3.1303
   89CHL1    C4 8997   0.889   0.695   7.110 -0.0834 -0.2001  0.5677
   89CHL1   H4A 8998   0.891   0.584   7.098  0.3042  0.0350 -2.2350
   89CHL1   H4B 8999   0.994   0.724   7.086  0.2377 -0.5926  1.4758
   89CHL1    C5 9000   0.849   0.751   7.238  0.2252  0.2286  0.1557
   89CHL1    C6 9001   0.935   0.824   7.317  0.7328  0.1075  0.2648
   89CHL1    H6 9002   1.036   0.852   7.284  0.1064  0.9235 -1.0446
   89CHL1    C7 9003   0.894   0.876   7.453  0.1199 -0.1511  0.3685
   89CHL1   H7A 9004   0.983   0.864   7.519  0.5539  0.1934 -0.1455
   89CHL1   H7B 9005   0.872   0.985   7.453  1.4549  0.1863  2.6217
   89CHL1    C8 9006   0.772   0.796   7.508  0.9708 -0.3724 -0.3106
   89CHL1    H8 9007   0.815   0.697   7.533 -0.0892 -1.2731 -1.8665
   89CHL1   C14 9008   0.726   0.865   7.635  0.2522 -0.3291  0.9621
   89CHL1   H14 9009   0.689   0.964   7.602  2.3943 -0.0664 -0.9151
   89CHL1   C15 9010   0.838   0.890   7.732  0.0832 -0.3035 -1.1818
   89CHL1  H15A 9011   0.893   0.795   7.748 -2.3463 -1.4762  0.8964
   89CHL1  H15B 9012   0.910   0.971   7.707 -0.8201  0.6855 -0.7014
   89CHL1   C16 9013   0.759   0.910   7.862 -0.4556 -0.3081 -0.1173
   89CHL1  H16A 9014   0.807   0.844   7.936 -1.8636  0.2545  1.3611
   89CHL1  H16B 9015   0.771   1.019   7.880 -0.3622 -0.1531 -1.0633
   89CHL1   C17 9016   0.604   0.880   7.830 -0.3717  0.1931  0.3092
   89CHL1   H17 9017   0.564   0.980   7.802  2.7100  1.8637  1.3004
   89CHL1   C13 9018   0.615   0.797   7.701 -0.7725 -0.9127  0.2576
   89CHL1   C18 9019   0.650   0.652   7.734  0.1040 -0.1214  0.1159
   89CHL1  H18A 9020   0.731   0.644   7.810  2.3874  2.1991 -1.8974
   89CHL1  H18B 9021   0.564   0.593   7.773  0.3054 -0.4199  0.1155
   89CHL1  H18C 9022   0.671   0.593   7.642  1.6627  0.6765 -0.0711
   89CHL1   C12 9023   0.488   0.805   7.608 -0.1376 -0.4008 -0.6496
   89CHL1  H12A 9024   0.412   0.741   7.658  0.0760 -0.4720 -0.4104
   89CHL1  H12B 9025   0.446   0.907   7.618  1.2597  0.0445  1.3340
   89CHL1   C11 9026   0.517   0.758   7.461  0.8384  0.1705  0.2578
   89CHL1  H11A 9027   0.516   0.647   7.465 -0.0474  0.0167 -2.4379
   89CHL1  H11B 9028   0.432   0.778   7.392 -1.5983 -1.3708  2.5984
   89CHL1    C9 9029   0.658   0.790   7.406 -0.0453 -0.0065  0.2102
   89CHL1    H9 9030   0.642   0.898   7.385  0.8859  0.3598  1.2685
   89CHL1   C10 9031   0.701   0.720   7.277 -0.7457  0.4364  0.0789
   89CHL1   C19 9032   0.683   0.570   7.296  0.2281 -0.2155  0.1714
   89CHL1  H19A 9033   0.580   0.540   7.323 -0.9042  1.5471 -1.8030
   89CHL1  H19B 9034   0.699   0.517   7.200  3.4513 -0.0309  0.4979
   89CHL1  H19C 9035   0.755   0.533   7.371 -0.0399  1.7465  1.4542
   89CHL1    C1 9036   0.620   0.769   7.158 -0.3486  0.3463 -0.3463
   89CHL1   H1A 9037   0.515   0.734   7.170 -0.1220 -0.8028 -1.5140
   89CHL1   H1B 9038   0.627   0.880   7.160  2.3257  0.2666 -1.5082
   89CHL1    C2 9039   0.658   0.725   7.008 -0.0426 -0.5368  0.2115
   89CHL1   H2A 9040   0.594   0.791   6.945 -1.0169 -0.2965  1.4113
   89CHL1   H2B 9041   0.626   0.620   6.993 -2.4790  0.3348 -1.5333
   89CHL1   C20 9042   0.522   0.825   7.944  0.3670 -0.3863  0.2788
   89CHL1   H20 9043   0.575   0.731   7.968  2.0710 -0.0414 -1.7652
   89CHL1   C21 9044   0.375   0.784   7.909 -0.4360  0.2401 -0.3428
   89CHL1  H21A 9045   0.395   0.689   7.853  1.2252  0.9962 -1.1160
   89CHL1  H21B 9046   0.329   0.857   7.839 -1.2065  0.4290  0.3479
   89CHL1  H21C 9047   0.312   0.766   7.999  0.9324  2.6241  1.1786
   89CHL1   C22 9048   0.522   0.916   8.069 -0.2117  0.0762  0.7407
   89CHL1  H22A 9049   0.602   0.993   8.069  1.0674 -1.1901  0.5828
   89CHL1  H22B 9050   0.425   0.970   8.067  0.1866  0.7757 -0.2210
   89CHL1   C23 9051   0.519   0.835   8.209  0.4082  0.5363 -0.2097
   89CHL1  H23A 9052   0.451   0.894   8.274 -1.2790 -2.2442  0.6879
   89CHL1  H23B 9053   0.465   0.739   8.199  2.9527 -1.1039  0.6361
   89CHL1   C24 9054   0.654   0.801   8.263 -0.7136 -0.4261 -0.1042
   89CHL1  H24A 9055   0.721   0.760   8.184 -0.2062  0.6307 -0.2474
   89CHL1  H24B 9056   0.688   0.903   8.289 -4.8139  1.9763 -2.8936
   89CHL1   C25 9057   0.662   0.714   8.391 -0.4316  0.1751  0.4139
   89CHL1   H25 9058   0.768   0.711   8.424 -0.5384 -1.3120  0.6817
   89CHL1   C26 9059   0.588   0.772   8.503  0.0508 -0.2187 -0.4657
   89CHL1  H26A 9060   0.586   0.883   8.494 -2.5943 -0.2517 -1.1203
   89CHL1  H26B 9061   0.480   0.748   8.489  0.6794 -2.2221 -2.4812
   89CHL1  H26C 9062   0.609   0.732   8.605 -1.7942  0.7609  0.3640
   89CHL1   C27 9063   0.622   0.567   8.354  0.1505 -0.0021 -0.5145
   89CHL1  H27A 9064   0.517   0.540   8.332  0.4692 -3.4365  1.4378
   89CHL1  H27B 9065   0.687   0.535   8.270 -0.8138 -0.1624 -1.2070
   89CHL1  H27C 9066   0.651   0.497   8.435 -0.9660 -1.0393 -0.9789
   90CHL1    C3 9067   3.931   4.278   6.912  0.2314 -0.0920 -0.4597
   90CHL1    H3 9068   3.828   4.241   6.931  0.3649 -0.6785 -0.8690
   90CHL1    O3 9069   3.953   4.273   6.770 -0.4739  0.5383 -0.4400
   90CHL1   H3' 9070   4.049   4.283   6.764 -0.4094 -0.2859 -1.0635
   90CHL1    C4 9071   3.953   4.420   6.970 -0.4489  0.4364  0.3331
   90CHL1   H4A 9072   4.054   4.444   6.931 -0.5749  0.4136 -0.0015
   90CHL1   H4B 9073   3.877   4.486   6.924 -0.7000 -0.3967 -0.4901
   90CHL1    C5 9074   3.945   4.429   7.123 -0.0600  0.1371  0.1120
   90CHL1    C6 9075   3.864   4.522   7.173  0.1321 -0.3747 -0.2236
   90CHL1    H6 9076   3.809   4.595   7.112  0.4312  0.6402  0.6759
   90CHL1    C7 9077   3.851   4.536   7.327 -0.4800  0.4468  0.4918
   90CHL1   H7A 9078   3.849   4.644   7.355 -1.3314  1.2014 -2.1715
   90CHL1   H7B 9079   3.753   4.500   7.366 -1.7374  1.1669 -1.8145
   90CHL1    C8 9080   3.967   4.470   7.402  0.3807 -0.3052  0.3969
   90CHL1    H8 9081   4.057   4.535   7.399  0.9140 -1.0530 -1.3576
   90CHL1   C14 9082   3.935   4.466   7.555  0.4521 -0.1688  0.6632
   90CHL1   H14 9083   3.851   4.392   7.555  0.4363 -0.1623  1.6055
   90CHL1   C15 9084   3.903   4.592   7.633 -0.0511 -0.0535 -0.4920
   90CHL1  H15A 9085   3.982   4.666   7.611  2.9763 -2.2617  2.0087
   90CHL1  H15B 9086   3.806   4.642   7.615 -1.3589 -1.9590  0.8610
   90CHL1   C16 9087   3.908   4.542   7.775 -0.2580  0.0401 -0.1870
   90CHL1  H16A 9088   3.945   4.619   7.846 -0.5750  2.4902 -2.5050
   90CHL1  H16B 9089   3.804   4.511   7.797  0.2198 -1.3384  0.2325
   90CHL1   C17 9090   3.977   4.406   7.793  0.1287  0.2854  0.1856
   90CHL1   H17 9091   3.897   4.330   7.805  0.9102 -0.1000  4.8695
   90CHL1   C13 9092   4.036   4.386   7.646 -0.3030 -0.2731  0.0340
   90CHL1   C18 9093   4.176   4.450   7.648 -0.0222  0.4219  0.0009
   90CHL1  H18A 9094   4.199   4.464   7.540  1.1891 -2.5807 -0.2159
   90CHL1  H18B 9095   4.183   4.546   7.703  1.4444  0.7402 -0.7051
   90CHL1  H18C 9096   4.256   4.383   7.685 -0.0021 -0.0956 -0.9510
   90CHL1   C12 9097   4.052   4.236   7.588  0.1879  0.1219 -0.6854
   90CHL1  H12A 9098   4.117   4.175   7.654 -0.0267  1.1458  0.5205
   90CHL1  H12B 9099   3.952   4.189   7.599  0.0682  0.7780  1.8263
   90CHL1   C11 9100   4.086   4.242   7.436 -0.4844  0.3343  0.1931
   90CHL1  H11A 9101   4.193   4.262   7.413  0.0606 -3.7378 -1.7718
   90CHL1  H11B 9102   4.075   4.136   7.402 -0.6209  0.5231 -0.3523
   90CHL1    C9 9103   3.991   4.329   7.345  0.6380  0.1887 -0.1519
   90CHL1    H9 9104   3.896   4.271   7.341  0.9155 -0.2247 -1.9057
   90CHL1   C10 9105   4.034   4.327   7.194 -0.3836  0.1119 -0.6238
   90CHL1   C19 9106   4.172   4.386   7.175  0.1317 -0.9923  0.5811
   90CHL1  H19A 9107   4.254   4.330   7.226 -2.2152 -3.7402  1.6361
   90CHL1  H19B 9108   4.207   4.396   7.070 -1.9655 -0.7121 -0.1445
   90CHL1  H19C 9109   4.173   4.494   7.204 -1.2513 -0.5290 -0.9469
   90CHL1    C1 9110   4.013   4.176   7.136 -0.0151  0.4980 -0.8063
   90CHL1   H1A 9111   4.095   4.107   7.165  0.5449  1.3086 -0.4182
   90CHL1   H1B 9112   3.911   4.146   7.168  1.0799 -1.7252  0.8428
   90CHL1    C2 9113   4.014   4.176   6.975  0.2305 -0.2098 -0.1194
   90CHL1   H2A 9114   3.986   4.074   6.941  0.7077  0.5861 -3.1637
   90CHL1   H2B 9115   4.120   4.196   6.949  0.0750 -2.0720 -2.4749
   90CHL1   C20 9116   4.069   4.392   7.916 -0.2324 -0.4521 -0.0466
   90CHL1   H20 9117   4.148   4.471   7.910  0.4141 -0.7644  2.7104
   90CHL1   C21 9118   4.135   4.249   7.919 -0.2212 -0.2515 -0.3756
   90CHL1  H21A 9119   4.213   4.233   7.996 -0.9611 -2.8268 -0.0624
   90CHL1  H21B 9120   4.184   4.233   7.821 -0.1752  1.6976 -0.7008
   90CHL1  H21C 9121   4.052   4.176   7.936 -1.2033  0.8811 -0.2000
   90CHL1   C22 9122   3.995   4.410   8.048  0.8097 -0.0650 -0.1312
   90CHL1  H22A 9123   4.069   4.411   8.131 -0.1438  1.5682  0.7624
   90CHL1  H22B 9124   3.947   4.510   8.035 -0.4751 -0.9814 -3.1470
   90CHL1   C23 9125   3.884   4.306   8.077 -0.6764  0.6784 -0.2517
   90CHL1  H23A 9126   3.816   4.297   7.989 -1.8269  1.5694  0.5152
   90CHL1  H23B 9127   3.932   4.206   8.086 -1.8891  0.2456  2.3779
   90CHL1   C24 9128   3.803   4.333   8.205  0.1054  0.3306  0.1241
   90CHL1  H24A 9129   3.876   4.326   8.289  0.8855 -0.3760 -0.5949
   90CHL1  H24B 9130   3.755   4.433   8.192 -1.1487 -0.5012 -2.3170
   90CHL1   C25 9131   3.690   4.235   8.229  0.2854 -0.7452  0.2657
   90CHL1   H25 9132   3.723   4.131   8.209  0.3535 -0.4388 -1.3773
   90CHL1   C26 9133   3.654   4.231   8.384 -0.3994 -0.8891  0.3676
   90CHL1  H26A 9134   3.741   4.236   8.453 -1.2330 -1.9547  1.5420
   90CHL1  H26B 9135   3.595   4.323   8.404  2.9324  1.5194  0.0287
   90CHL1  H26C 9136   3.589   4.143   8.399 -0.2369 -1.2066 -0.7104
   90CHL1   C27 9137   3.563   4.254   8.133 -0.5571  0.6807  0.0136
   90CHL1  H27A 9138   3.586   4.211   8.033 -1.5789 -0.9905  0.4471
   90CHL1  H27B 9139   3.481   4.193   8.177  1.5208 -1.8003  0.6534
   90CHL1  H27C 9140   3.519   4.356   8.137  0.0284  0.9597 -0.5490
   91CHL1    C3 9141   0.782   5.837   7.150 -0.4068 -0.3353  0.3244
   91CHL1    H3 9142   0.893   5.837   7.154 -0.3210  1.1049 -0.8560
   91CHL1    O3 9143   0.748   5.913   7.040 -0.2016  1.2712 -0.0879
   91CHL1   H3' 9144   0.654   5.900   7.026  0.3606 -0.6238 -2.7685
   91CHL1    C4 9145   0.714   5.704   7.131  0.3753 -0.2275  0.3375
   91CHL1   H4A 9146   0.603   5.711   7.118  0.3626 -1.1650 -0.1501
   91CHL1   H4B 9147   0.736   5.649   7.036 -0.7056 -0.5513  0.2584
   91CHL1    C5 9148   0.739   5.620   7.263  0.4449  0.3317  1.2424
   91CHL1    C6 9149   0.798   5.496   7.247  0.7289 -0.4820  0.7112
   91CHL1    H6 9150   0.817   5.452   7.148 -4.3548 -2.4670  0.3327
   91CHL1    C7 9151   0.831   5.417   7.369 -0.3258 -0.5129  0.4917
   91CHL1   H7A 9152   0.791   5.318   7.339 -0.3994 -0.0006 -1.2196
   91CHL1   H7B 9153   0.937   5.402   7.399 -0.5904 -2.3119  0.6155
   91CHL1    C8 9154   0.756   5.461   7.494 -0.4731 -0.6797 -0.7768
   91CHL1    H8 9155   0.649   5.436   7.479 -1.7791  2.6040  1.6538
   91CHL1   C14 9156   0.805   5.389   7.619  0.0827  0.4734 -0.3726
   91CHL1   H14 9157   0.905   5.434   7.636  1.0463 -1.2896 -1.0066
   91CHL1   C15 9158   0.825   5.229   7.612 -0.2649  0.3292  0.5500
   91CHL1  H15A 9159   0.743   5.197   7.544  2.2634  1.9108 -3.6828
   91CHL1  H15B 9160   0.924   5.199   7.571 -0.2842  0.0613  0.7029
   91CHL1   C16 9161   0.817   5.177   7.757  0.0744  0.6579  0.1594
   91CHL1  H16A 9162   0.720   5.126   7.776  1.0558 -0.3866  2.7139
   91CHL1  H16B 9163   0.899   5.108   7.785 -0.2425  0.5035  0.7284
   91CHL1   C17 9164   0.805   5.307   7.842 -0.6769  0.0460 -0.2248
   91CHL1   H17 9165   0.907   5.342   7.869 -1.3072  2.1485 -0.3245
   91CHL1   C13 9166   0.735   5.411   7.751 -0.0135 -0.0973  0.5063
   91CHL1   C18 9167   0.587   5.374   7.730  0.5207  0.3061 -0.6856
   91CHL1  H18A 9168   0.536   5.409   7.822  1.1259  0.3578 -0.3611
   91CHL1  H18B 9169   0.521   5.422   7.654 -2.0821 -2.6242 -0.4982
   91CHL1  H18C 9170   0.573   5.264   7.734  1.1851  0.2626  1.9493
   91CHL1   C12 9171   0.754   5.560   7.773 -0.1026 -0.2815 -0.3664
   91CHL1  H12A 9172   0.700   5.581   7.868  0.0330  1.1932 -0.5970
   91CHL1  H12B 9173   0.862   5.569   7.799 -0.5155 -1.3837  1.9787
   91CHL1   C11 9174   0.710   5.649   7.661  0.2014  0.3010  0.7125
   91CHL1  H11A 9175   0.599   5.647   7.656  0.2420  0.0900 -1.6088
   91CHL1  H11B 9176   0.740   5.755   7.678 -2.0868  0.7520  2.3495
   91CHL1    C9 9177   0.760   5.611   7.512 -0.6451 -0.6434 -0.3579
   91CHL1    H9 9178   0.865   5.646   7.510 -1.0397  0.5961 -2.2551
   91CHL1   C10 9179   0.700   5.695   7.399  0.3126  0.6609  0.0272
   91CHL1   C19 9180   0.542   5.683   7.402  0.3520  0.4788  0.1059
   91CHL1  H19A 9181   0.490   5.719   7.311  2.2196 -0.9771 -1.6210
   91CHL1  H19B 9182   0.498   5.586   7.435 -1.6460  1.1234 -0.5113
   91CHL1  H19C 9183   0.515   5.750   7.486  0.2861 -2.6647  2.8027
   91CHL1    C1 9184   0.744   5.842   7.409 -0.3031 -0.9373  0.1128
   91CHL1   H1A 9185   0.691   5.899   7.488  1.0885  2.4879 -1.2230
   91CHL1   H1B 9186   0.853   5.843   7.432 -0.5060  0.2417  1.1151
   91CHL1    C2 9187   0.724   5.919   7.275 -0.0500  0.3147  0.0775
   91CHL1   H2A 9188   0.779   6.015   7.275 -1.4737  1.1446  0.6179
   91CHL1   H2B 9189   0.617   5.935   7.249 -0.0796 -0.8977 -0.6347
   91CHL1   C20 9190   0.746   5.275   7.982 -0.3083  0.6352 -0.0713
   91CHL1   H20 9191   0.640   5.243   7.971 -0.7209  2.0643 -0.4022
   91CHL1   C21 9192   0.753   5.395   8.081 -0.0111 -0.2193  0.4208
   91CHL1  H21A 9193   0.856   5.435   8.093  0.7345 -2.2923  1.2962
   91CHL1  H21B 9194   0.724   5.365   8.184 -1.9746 -0.0126 -0.0265
   91CHL1  H21C 9195   0.693   5.478   8.036  1.6824  1.3129  0.8628
   91CHL1   C22 9196   0.818   5.151   8.051 -0.1818 -0.2499  0.9990
   91CHL1  H22A 9197   0.752   5.109   8.130  1.5692 -0.2764  2.5183
   91CHL1  H22B 9198   0.840   5.071   7.977  2.2057  1.2941 -0.1025
   91CHL1   C23 9199   0.958   5.184   8.114  0.2463 -0.6430  0.0398
   91CHL1  H23A 9200   1.024   5.243   8.046  0.8593 -2.8353 -1.3723
   91CHL1  H23B 9201   0.924   5.245   8.200  1.1310  0.1450 -0.1506
   91CHL1   C24 9202   1.038   5.061   8.157 -0.3510 -0.3916 -0.2673
   91CHL1  H24A 9203   0.975   4.995   8.221 -0.8408 -1.5164 -1.8481
   91CHL1  H24B 9204   1.063   5.014   8.059 -1.7664 -2.5849  0.3437
   91CHL1   C25 9205   1.176   5.076   8.223  0.0618 -0.6593 -0.5036
   91CHL1   H25 9206   1.228   5.148   8.155 -0.2497  1.2584  1.1755
   91CHL1   C26 9207   1.151   5.134   8.360 -0.2289 -0.1450  0.3096
   91CHL1  H26A 9208   1.100   5.233   8.365  2.0867  1.0586  3.4606
   91CHL1  H26B 9209   1.116   5.058   8.433  2.7335 -0.9539  1.0089
   91CHL1  H26C 9210   1.243   5.176   8.406 -0.8732  0.9190  0.6829
   91CHL1   C27 9211   1.256   4.946   8.233  0.0210  0.2913  0.0590
   91CHL1  H27A 9212   1.274   4.922   8.126 -1.2071  1.9905 -0.5726
   91CHL1  H27B 9213   1.353   4.958   8.286 -0.4354 -1.1780  1.3121
   91CHL1  H27C 9214   1.194   4.870   8.285  1.4624 -1.1856 -0.2706
   92CHL1    C3 9215   2.555   6.430   7.088  0.4841 -0.1306 -0.6878
   92CHL1    H3 9216   2.662   6.459   7.097  0.5468 -0.6011  0.1740
   92CHL1    O3 9217   2.517   6.440   6.950 -0.7077  0.7827 -0.5805
   92CHL1   H3' 9218   2.427   6.408   6.939 -0.5872  0.5140 -0.7954
   92CHL1    C4 9219   2.533   6.292   7.131  0.4498 -0.7041  0.2795
   92CHL1   H4A 9220   2.426   6.261   7.126  0.1215  0.0362  1.8552
   92CHL1   H4B 9221   2.596   6.231   7.064 -2.3604 -1.6590 -1.7103
   92CHL1    C5 9222   2.588   6.291   7.276  0.3556 -0.2690 -0.4754
   92CHL1    C6 9223   2.695   6.229   7.315 -0.1281  0.1540  0.3339
   92CHL1    H6 9224   2.753   6.180   7.236  0.1862  0.2539  0.4994
   92CHL1    C7 9225   2.739   6.208   7.458 -0.3123 -0.3526 -0.2895
   92CHL1   H7A 9226   2.751   6.099   7.476 -1.9923 -0.2042  2.4192
   92CHL1   H7B 9227   2.838   6.252   7.482  0.3414 -1.4555 -0.8682
   92CHL1    C8 9228   2.629   6.243   7.566 -0.3035  0.3317  0.8064
   92CHL1    H8 9229   2.549   6.168   7.551 -1.2930  0.8566  3.1309
   92CHL1   C14 9230   2.682   6.244   7.707 -0.4878  0.0194  1.0388
   92CHL1   H14 9231   2.771   6.310   7.720  0.9274 -1.4384 -0.5741
   92CHL1   C15 9232   2.741   6.111   7.755 -0.5564 -0.5928  0.0249
   92CHL1  H15A 9233   2.672   6.034   7.715 -0.8000 -0.1735 -0.3641
   92CHL1  H15B 9234   2.831   6.087   7.694 -2.1447 -1.3203 -2.1329
   92CHL1   C16 9235   2.755   6.125   7.904 -0.0071  0.6114 -0.3675
   92CHL1  H16A 9236   2.707   6.036   7.951  1.1504 -0.3001 -0.8580
   92CHL1  H16B 9237   2.861   6.132   7.937  1.0579 -0.7887 -3.1731
   92CHL1   C17 9238   2.679   6.252   7.939 -0.3495  0.2844 -0.0523
   92CHL1   H17 9239   2.760   6.328   7.944  0.7446 -0.8877  0.4827
   92CHL1   C13 9240   2.589   6.283   7.820 -0.3565  0.3791  0.5779
   92CHL1   C18 9241   2.471   6.187   7.811 -0.2399  0.5103  0.5656
   92CHL1  H18A 9242   2.431   6.165   7.710  1.3126 -2.0789  0.4217
   92CHL1  H18B 9243   2.500   6.090   7.857 -0.2650 -0.3080 -1.0936
   92CHL1  H18C 9244   2.393   6.220   7.883 -1.9060  0.8959 -1.3389
   92CHL1   C12 9245   2.544   6.430   7.787  0.0334 -0.0783  0.4560
   92CHL1  H12A 9246   2.492   6.481   7.871 -0.5306 -1.4114  0.9492
   92CHL1  H12B 9247   2.636   6.488   7.764 -1.1171  2.3076  1.5441
   92CHL1   C11 9248   2.475   6.435   7.645 -0.2685 -0.3411 -0.5205
   92CHL1  H11A 9249   2.381   6.377   7.658 -0.7551  0.4849 -0.2550
   92CHL1  H11B 9250   2.449   6.541   7.621 -0.2522  0.1609  1.4963
   92CHL1    C9 9251   2.564   6.376   7.528 -0.1694 -0.0668 -0.6437
   92CHL1    H9 9252   2.654   6.441   7.526 -0.1043 -0.1718 -1.0152
   92CHL1   C10 9253   2.510   6.375   7.383  0.5525 -0.8126 -0.2951
   92CHL1   C19 9254   2.367   6.320   7.392 -0.4565 -0.0068  0.0390
   92CHL1  H19A 9255   2.316   6.395   7.457  3.3904  2.9816 -0.0421
   92CHL1  H19B 9256   2.319   6.307   7.293 -1.0656 -2.7221  0.6136
   92CHL1  H19C 9257   2.368   6.222   7.444  0.6265 -0.3982 -0.7000
   92CHL1    C1 9258   2.513   6.520   7.330  0.1322 -0.2139 -0.3121
   92CHL1   H1A 9259   2.429   6.573   7.379  0.2798 -0.0377 -0.2499
   92CHL1   H1B 9260   2.611   6.563   7.360 -0.3279  0.4439  0.2855
   92CHL1    C2 9261   2.481   6.531   7.177  0.1167  0.3198  0.1349
   92CHL1   H2A 9262   2.514   6.632   7.143 -1.6564  0.1385 -2.3877
   92CHL1   H2B 9263   2.372   6.526   7.156 -0.6987 -2.4789  3.9850
   92CHL1   C20 9264   2.629   6.247   8.085  0.3347 -0.3410 -0.7183
   92CHL1   H20 9265   2.555   6.166   8.098 -0.6297  0.7769  1.1373
   92CHL1   C21 9266   2.562   6.377   8.120 -0.2308  0.0933  0.1434
   92CHL1  H21A 9267   2.632   6.461   8.102 -1.2000  0.9510  0.3079
   92CHL1  H21B 9268   2.527   6.376   8.226  0.9479 -0.3438  0.5415
   92CHL1  H21C 9269   2.475   6.401   8.055 -0.9512 -0.2965  0.9308
   92CHL1   C22 9270   2.743   6.230   8.189 -0.3906 -0.2933  0.0074
   92CHL1  H22A 9271   2.783   6.126   8.181  1.1427  0.3514 -1.3546
   92CHL1  H22B 9272   2.829   6.294   8.158 -1.5569  0.8094 -1.0503
   92CHL1   C23 9273   2.712   6.247   8.342 -0.2968 -0.0833 -0.0719
   92CHL1  H23A 9274   2.686   6.352   8.368 -1.2524  0.0923 -1.6143
   92CHL1  H23B 9275   2.618   6.192   8.361  0.1472 -0.2346  1.9001
   92CHL1   C24 9276   2.831   6.186   8.423 -0.0425  0.1400  0.2779
   92CHL1  H24A 9277   2.858   6.089   8.376  0.1017 -0.1066  0.8654
   92CHL1  H24B 9278   2.918   6.255   8.422 -0.3301  0.5402  1.3301
   92CHL1   C25 9279   2.793   6.158   8.568  0.8772  0.2628  0.1482
   92CHL1   H25 9280   2.728   6.068   8.573  1.0289  0.2187  2.0314
   92CHL1   C26 9281   2.917   6.127   8.648  0.1488 -0.4110 -0.4555
   92CHL1  H26A 9282   2.999   6.194   8.614 -2.0072  1.4622 -2.3210
   92CHL1  H26B 9283   2.912   6.156   8.755 -0.5327  1.7172 -1.0166
   92CHL1  H26C 9284   2.957   6.025   8.632  2.7745  0.8304 -2.5456
   92CHL1   C27 9285   2.717   6.275   8.646 -0.3370 -0.6649  0.2060
   92CHL1  H27A 9286   2.787   6.361   8.654  1.3670 -1.7603 -1.9212
   92CHL1  H27B 9287   2.625   6.282   8.584  0.9570 -3.3988 -2.2680
   92CHL1  H27C 9288   2.706   6.249   8.754  2.5590  0.4294  0.8506
   93CHL1    C3 9289   2.857   4.465   6.943 -0.1400 -0.4147  0.8624
   93CHL1    H3 9290   2.794   4.551   6.974  0.6757  1.1968 -1.6227
   93CHL1    O3 9291   2.862   4.473   6.800  0.1627  0.1086  0.0733
   93CHL1   H3' 9292   2.861   4.384   6.764 -2.2127 -0.2201  0.7724
   93CHL1    C4 9293   3.001   4.496   7.000 -0.0690 -0.4620  0.1105
   93CHL1   H4A 9294   3.078   4.428   6.958  1.1375  0.7681  0.2554
   93CHL1   H4B 9295   3.027   4.602   6.978 -0.0652 -0.3287  0.7189
   93CHL1    C5 9296   3.006   4.477   7.149 -0.3929  0.2304  0.2811
   93CHL1    C6 9297   3.043   4.580   7.232 -0.2726 -0.0333  0.1772
   93CHL1    H6 9298   3.062   4.681   7.192 -0.0455 -0.8576 -1.9603
   93CHL1    C7 9299   3.060   4.557   7.376  0.1037 -0.0107 -0.0312
   93CHL1   H7A 9300   3.160   4.591   7.410  0.5352 -0.6223 -0.6879
   93CHL1   H7B 9301   2.980   4.619   7.423  0.6685  0.1710  0.7157
   93CHL1    C8 9302   3.046   4.414   7.428  1.0805  0.8316 -0.2024
   93CHL1    H8 9303   3.136   4.350   7.413 -0.9963 -2.6309  1.0108
   93CHL1   C14 9304   3.026   4.421   7.581  0.5755  0.4705  0.2051
   93CHL1   H14 9305   2.925   4.466   7.589 -0.1088 -1.2146  2.1949
   93CHL1   C15 9306   3.137   4.488   7.669  0.1926  0.2747  0.0149
   93CHL1  H15A 9307   3.241   4.451   7.652  0.4564  1.5125 -1.2277
   93CHL1  H15B 9308   3.138   4.599   7.667 -0.8140  0.3304  1.2222
   93CHL1   C16 9309   3.110   4.437   7.809  0.4050 -1.1028  0.3423
   93CHL1  H16A 9310   3.201   4.405   7.864  0.9331  2.0497  1.5076
   93CHL1  H16B 9311   3.073   4.526   7.864  1.2205 -0.1179 -0.6347
   93CHL1   C17 9312   2.998   4.325   7.791  0.2253  0.7426 -0.7714
   93CHL1   H17 9313   2.899   4.369   7.813  0.4082  0.6468  0.3032
   93CHL1   C13 9314   2.999   4.280   7.641  0.1399 -0.0629 -0.5875
   93CHL1   C18 9315   3.119   4.192   7.619 -0.5034  0.6854 -0.6385
   93CHL1  H18A 9316   3.212   4.240   7.656 -0.5497  0.1926  0.1468
   93CHL1  H18B 9317   3.118   4.099   7.680  1.2422  0.3430 -1.0754
   93CHL1  H18C 9318   3.132   4.158   7.514  2.6390 -1.0431  0.1937
   93CHL1   C12 9319   2.876   4.225   7.579  0.3574 -0.0174  0.4389
   93CHL1  H12A 9320   2.860   4.122   7.618  0.6341 -0.8922 -1.6153
   93CHL1  H12B 9321   2.781   4.278   7.601 -0.8795 -2.1133  0.4230
   93CHL1   C11 9322   2.892   4.211   7.426 -0.0959  0.5425 -0.2452
   93CHL1  H11A 9323   2.966   4.130   7.412  1.4443  1.7228  0.6989
   93CHL1  H11B 9324   2.796   4.176   7.382 -1.2422  0.9921  1.7627
   93CHL1    C9 9325   2.928   4.346   7.359  0.1951  0.4294 -0.5850
   93CHL1    H9 9326   2.833   4.398   7.382 -0.8169 -1.7135  0.3840
   93CHL1   C10 9327   2.946   4.340   7.200  0.4588 -0.5256 -0.4549
   93CHL1   C19 9328   3.046   4.231   7.168 -0.1289  0.0037 -0.4326
   93CHL1  H19A 9329   3.076   4.216   7.062  1.0378  0.8488 -0.2461
   93CHL1  H19B 9330   3.141   4.231   7.226  0.4286 -2.6547 -1.2114
   93CHL1  H19C 9331   3.003   4.132   7.191 -1.5702  0.2837 -1.7514
   93CHL1    C1 9332   2.808   4.310   7.137 -0.1389 -0.0102 -0.7094
   93CHL1   H1A 9333   2.764   4.209   7.156  2.2249 -1.2767 -1.5429
   93CHL1   H1B 9334   2.732   4.380   7.177 -0.8229 -0.6754 -0.8169
   93CHL1    C2 9335   2.803   4.331   6.987 -0.8453 -0.4775  0.3748
   93CHL1   H2A 9336   2.694   4.317   6.965 -0.6960 -0.7180 -0.2326
   93CHL1   H2B 9337   2.850   4.247   6.932 -1.3434  0.9606 -2.4691
   93CHL1   C20 9338   3.017   4.209   7.898  0.1629  0.2417  0.3187
   93CHL1   H20 9339   3.112   4.155   7.884  1.0381  1.2020  2.2497
   93CHL1   C21 9340   2.896   4.111   7.900 -0.0259 -0.0974  0.4122
   93CHL1  H21A 9341   2.924   4.017   7.848  1.1987  1.0883 -1.1788
   93CHL1  H21B 9342   2.807   4.164   7.858  1.9232  1.5889 -1.8543
   93CHL1  H21C 9343   2.857   4.077   7.999 -1.1006 -2.6467 -0.8104
   93CHL1   C22 9344   3.026   4.251   8.054  0.2670 -0.3193 -0.1806
   93CHL1  H22A 9345   3.090   4.338   8.080  0.1070 -0.5584  1.0916
   93CHL1  H22B 9346   2.922   4.279   8.078  0.4092 -0.3035  0.4217
   93CHL1   C23 9347   3.072   4.142   8.148  0.2300 -1.6387  0.0882
   93CHL1  H23A 9348   2.989   4.070   8.165 -0.2850 -1.0020  0.2900
   93CHL1  H23B 9349   3.156   4.085   8.101 -0.5492 -1.9942 -0.9161
   93CHL1   C24 9350   3.113   4.204   8.278 -0.4346 -0.2997  0.0716
   93CHL1  H24A 9351   3.206   4.263   8.262 -0.3728 -0.5211 -0.3971
   93CHL1  H24B 9352   3.039   4.283   8.302 -1.0383 -0.6448 -0.6346
   93CHL1   C25 9353   3.135   4.112   8.396  0.6765  0.1052 -0.1925
   93CHL1   H25 9354   3.049   4.041   8.397  0.7767 -0.0153  0.6972
   93CHL1   C26 9355   3.251   4.012   8.365 -0.1337 -0.7387  0.2182
   93CHL1  H26A 9356   3.260   3.935   8.444  0.0005 -0.5171  0.4195
   93CHL1  H26B 9357   3.236   3.967   8.264  0.5631 -2.8100  0.9904
   93CHL1  H26C 9358   3.344   4.071   8.353  0.3005 -1.5227 -0.3103
   93CHL1   C27 9359   3.148   4.176   8.535 -0.0501  0.2983  0.4844
   93CHL1  H27A 9360   3.175   4.103   8.614  0.6283  0.9127  0.8391
   93CHL1  H27B 9361   3.230   4.252   8.539  1.9868 -1.6050 -1.7915
   93CHL1  H27C 9362   3.052   4.213   8.575  1.3028  2.3341  2.0997
   94CHL1    C3 9363   6.169   0.318   6.805  0.5745  0.5154  0.3246
   94CHL1    H3 9364   6.270   0.365   6.813  1.9052 -1.4993 -2.6090
   94CHL1    O3 9365   6.122   0.361   6.677  0.1278 -0.2649 -0.0876
   94CHL1   H3' 9366   6.197   0.343   6.619 -1.1710  0.0207 -1.9509
   94CHL1    C4 9367   6.191   0.161   6.815 -0.2706 -0.3025  0.8025
   94CHL1   H4A 9368   6.092   0.122   6.784 -1.1099  0.9830  1.7469
   94CHL1   H4B 9369   6.268   0.125   6.743 -0.7758 -0.1578  0.1869
   94CHL1    C5 9370   6.224   0.115   6.952  0.6967  0.5178 -0.1325
   94CHL1    C6 9371   6.333   0.039   6.964 -0.4320 -0.5418  0.7131
   94CHL1    H6 9372   6.393   0.024   6.874  0.8764  1.6047  1.1501
   94CHL1    C7 9373   6.375  -0.021   7.097  0.2599  0.3225  0.3064
   94CHL1   H7A 9374   6.388  -0.129   7.076  0.1397  0.0686  1.4535
   94CHL1   H7B 9375   6.467   0.023   7.142 -0.8186  1.1373  1.8200
   94CHL1    C8 9376   6.270   0.008   7.210  0.3649 -0.1316 -0.3411
   94CHL1    H8 9377   6.182  -0.059   7.197  0.1358  0.4364 -1.9411
   94CHL1   C14 9378   6.334  -0.013   7.347  0.6099 -0.1464 -0.3690
   94CHL1   H14 9379   6.413   0.064   7.360  2.2717 -1.7480 -0.6777
   94CHL1   C15 9380   6.406  -0.145   7.374 -0.3213 -0.0979  0.4638
   94CHL1  H15A 9381   6.351  -0.231   7.332 -0.0192  0.8085 -1.9038
   94CHL1  H15B 9382   6.511  -0.149   7.337  0.1907  0.8148  1.7166
   94CHL1   C16 9383   6.418  -0.163   7.528  0.4465  0.2811 -0.2659
   94CHL1  H16A 9384   6.378  -0.262   7.559  1.6626 -0.3869 -0.7220
   94CHL1  H16B 9385   6.523  -0.159   7.565 -0.0781 -1.0809  1.4975
   94CHL1   C17 9386   6.333  -0.049   7.586 -0.0311  0.0207 -0.5440
   94CHL1   H17 9387   6.398   0.039   7.606 -2.6521  2.0217 -0.3229
   94CHL1   C13 9388   6.240  -0.001   7.474  0.8360 -0.4728 -0.0407
   94CHL1   C18 9389   6.112  -0.093   7.453  0.3288 -0.3438 -0.2118
   94CHL1  H18A 9390   6.066  -0.078   7.353  2.0206 -2.3029 -1.3628
   94CHL1  H18B 9391   6.125  -0.201   7.477  1.0469 -0.5205 -1.3675
   94CHL1  H18C 9392   6.027  -0.064   7.519 -0.6267  0.2442 -1.6650
   94CHL1   C12 9393   6.199   0.151   7.465  0.3578 -0.0977  0.0825
   94CHL1  H12A 9394   6.120   0.180   7.537 -1.0284 -3.0145 -0.1045
   94CHL1  H12B 9395   6.292   0.209   7.479  0.1413  1.2901 -3.3956
   94CHL1   C11 9396   6.132   0.184   7.328  0.1111 -0.1723  0.2701
   94CHL1  H11A 9397   6.026   0.149   7.330 -0.0146  0.2622  1.5042
   94CHL1  H11B 9398   6.129   0.295   7.318  1.1373 -0.2838 -1.8469
   94CHL1    C9 9399   6.218   0.147   7.203 -0.0463 -0.5067  0.3943
   94CHL1    H9 9400   6.306   0.214   7.204  0.4814 -1.1700 -0.4446
   94CHL1   C10 9401   6.136   0.167   7.066 -0.6855  0.1471 -0.2464
   94CHL1   C19 9402   6.001   0.093   7.060  0.3384  0.6861 -0.8977
   94CHL1  H19A 9403   6.014  -0.017   7.067  1.8281  0.8987  0.3760
   94CHL1  H19B 9404   5.937   0.121   7.146  1.0852 -3.4153  1.2622
   94CHL1  H19C 9405   5.947   0.114   6.965  2.8458  1.2163 -2.2879
   94CHL1    C1 9406   6.097   0.314   7.051  0.3283 -0.2007 -0.0090
   94CHL1   H1A 9407   6.011   0.328   7.121 -1.2260  1.2103 -2.0861
   94CHL1   H1B 9408   6.172   0.384   7.094 -0.9424  1.0646  0.2365
   94CHL1    C2 9409   6.062   0.361   6.907 -0.3172  0.1737 -0.0319
   94CHL1   H2A 9410   6.052   0.472   6.907 -1.7853  0.0910  1.8977
   94CHL1   H2B 9411   5.968   0.317   6.868  0.9205 -1.9791 -0.7612
   94CHL1   C20 9412   6.274  -0.088   7.727 -0.4764  0.7119  0.1290
   94CHL1   H20 9413   6.218  -0.182   7.707 -1.3794  1.5041 -1.2244
   94CHL1   C21 9414   6.166   0.012   7.775 -0.1819  0.1962 -0.4107
   94CHL1  H21A 9415   6.195   0.117   7.798  0.0067  0.6177 -2.4301
   94CHL1  H21B 9416   6.126  -0.030   7.870 -0.0104 -0.9746 -0.8419
   94CHL1  H21C 9417   6.086   0.008   7.699  0.8721  1.0498 -1.6075
   94CHL1   C22 9418   6.383  -0.121   7.838  0.2030 -0.2566 -0.0019
   94CHL1  H22A 9419   6.437  -0.209   7.796 -0.6629  0.0941 -1.9342
   94CHL1  H22B 9420   6.454  -0.039   7.864  2.0164 -1.9800  0.7795
   94CHL1   C23 9421   6.322  -0.163   7.974  0.1251  0.4978 -0.1269
   94CHL1  H23A 9422   6.307  -0.070   8.032 -0.0232  1.4846 -1.6704
   94CHL1  H23B 9423   6.221  -0.208   7.960 -0.0718  0.8438  0.1654
   94CHL1   C24 9424   6.418  -0.252   8.049  0.2536  0.0397 -0.5776
   94CHL1  H24A 9425   6.451  -0.346   7.999  0.1611 -0.1982 -0.1898
   94CHL1  H24B 9426   6.505  -0.184   8.061 -0.1742  0.2605  1.6504
   94CHL1   C25 9427   6.377  -0.294   8.195 -0.3859  0.3463 -0.0790
   94CHL1   H25 9428   6.282  -0.352   8.189  1.2473 -2.7061  1.2997
   94CHL1   C26 9429   6.477  -0.397   8.257 -0.4391 -0.1572 -0.1611
   94CHL1  H26A 9430   6.574  -0.342   8.255 -0.8336  0.5475 -0.4580
   94CHL1  H26B 9431   6.452  -0.408   8.364 -2.5192 -0.1214 -0.5918
   94CHL1  H26C 9432   6.485  -0.496   8.207 -0.4797  0.4711 -1.4771
   94CHL1   C27 9433   6.348  -0.176   8.292  0.0725  0.4908  0.7918
   94CHL1  H27A 9434   6.311  -0.208   8.391 -1.3065  1.1885  0.5210
   94CHL1  H27B 9435   6.446  -0.126   8.306  1.4740 -1.9755  0.4757
   94CHL1  H27C 9436   6.274  -0.113   8.239 -0.2415 -1.2124 -0.9343
   95CHL1    C3 9437   6.201   5.035   6.850 -0.1512 -0.2951 -0.0614
   95CHL1    H3 9438   6.299   5.088   6.849 -0.4224  0.2244 -1.6384
   95CHL1    O3 9439   6.159   5.014   6.715  0.1991 -0.0453 -0.3395
   95CHL1   H3' 9440   6.071   4.978   6.724  1.0242 -2.2682 -0.3871
   95CHL1    C4 9441   6.214   4.902   6.922 -0.8326 -0.0032  0.4546
   95CHL1   H4A 9442   6.139   4.824   6.897  0.6824 -1.7673  1.1462
   95CHL1   H4B 9443   6.308   4.864   6.876 -0.6885  1.2513 -0.3285
   95CHL1    C5 9444   6.213   4.895   7.071 -0.4845  0.2354  0.2833
   95CHL1    C6 9445   6.309   4.829   7.145 -0.3095  0.0396 -0.4199
   95CHL1    H6 9446   6.389   4.777   7.090 -2.2501 -3.3688 -0.2614
   95CHL1    C7 9447   6.303   4.816   7.296  0.0757  0.3726  0.0252
   95CHL1   H7A 9448   6.332   4.714   7.327  0.0221  0.0966 -0.7917
   95CHL1   H7B 9449   6.377   4.883   7.343 -0.0488 -0.1392  0.9555
   95CHL1    C8 9450   6.167   4.858   7.352 -0.5445  0.3164 -0.3633
   95CHL1    H8 9451   6.100   4.773   7.332  1.7278 -1.3437 -1.3415
   95CHL1   C14 9452   6.192   4.885   7.497  0.2048  0.6471  0.0359
   95CHL1   H14 9453   6.262   4.972   7.502  0.7781  0.1891  0.0854
   95CHL1   C15 9454   6.272   4.787   7.583 -0.8395  0.1143 -0.3631
   95CHL1  H15A 9455   6.245   4.682   7.559 -0.4109  0.0224 -0.4470
   95CHL1  H15B 9456   6.382   4.796   7.572 -0.7679  1.9261  1.2440
   95CHL1   C16 9457   6.225   4.826   7.733  0.0303 -0.4645  0.0348
   95CHL1  H16A 9458   6.179   4.733   7.775  0.4499 -0.2447  1.0172
   95CHL1  H16B 9459   6.314   4.857   7.791 -0.8200 -1.4805  2.0188
   95CHL1   C17 9460   6.116   4.939   7.719 -0.7753 -0.0692 -0.4365
   95CHL1   H17 9461   6.168   5.037   7.713  0.8104 -0.8766 -0.4783
   95CHL1   C13 9462   6.063   4.922   7.573  0.5728  0.3534  0.0155
   95CHL1   C18 9463   5.964   4.796   7.569  0.1221 -0.2570 -0.1949
   95CHL1  H18A 9464   6.004   4.709   7.626  1.5541  0.7240  0.3599
   95CHL1  H18B 9465   5.866   4.818   7.617  1.0778  1.6972  1.0001
   95CHL1  H18C 9466   5.943   4.769   7.464 -0.4236  0.6699 -0.3401
   95CHL1   C12 9467   5.995   5.046   7.512  0.0378 -0.1514 -0.1695
   95CHL1  H12A 9468   5.897   5.077   7.554  0.1692  0.3367 -0.2253
   95CHL1  H12B 9469   6.060   5.132   7.537 -0.0494 -0.2997  0.5826
   95CHL1   C11 9470   5.976   5.025   7.362  0.3163  0.1353 -0.5964
   95CHL1  H11A 9471   5.885   4.966   7.337  0.4067  0.1895 -1.0793
   95CHL1  H11B 9472   5.955   5.126   7.321 -0.9589 -0.4035 -1.3288
   95CHL1    C9 9473   6.110   4.982   7.292  0.6942 -0.8699  0.4205
   95CHL1    H9 9474   6.186   5.058   7.321 -1.2711  0.6797  1.8295
   95CHL1   C10 9475   6.101   4.973   7.134  0.7271 -0.1807  0.0549
   95CHL1   C19 9476   5.967   4.894   7.111 -0.2355 -0.5476  0.1212
   95CHL1  H19A 9477   5.875   4.954   7.129  0.4688  0.5908  0.0531
   95CHL1  H19B 9478   5.947   4.873   7.003  0.0820 -1.3115  0.2074
   95CHL1  H19C 9479   5.966   4.796   7.164 -1.3114  0.3576  1.8673
   95CHL1    C1 9480   6.093   5.119   7.071  0.0342 -0.4033  0.3188
   95CHL1   H1A 9481   5.998   5.166   7.104  0.9974  2.9754 -1.2824
   95CHL1   H1B 9482   6.175   5.186   7.105 -0.5057 -0.5897  2.0652
   95CHL1    C2 9483   6.091   5.118   6.918 -0.1268  0.0159 -0.4811
   95CHL1   H2A 9484   6.095   5.220   6.874 -2.6219  0.2861 -0.2150
   95CHL1   H2B 9485   5.999   5.073   6.875 -1.2643 -0.9287  2.6614
   95CHL1   C20 9486   6.028   4.946   7.847  0.2271 -0.5175 -0.4871
   95CHL1   H20 9487   5.968   4.853   7.847  0.1003 -0.4446  0.8489
   95CHL1   C21 9488   5.938   5.073   7.840  0.4713  0.1419 -0.3198
   95CHL1  H21A 9489   6.002   5.164   7.839  0.0314  0.6252  3.1072
   95CHL1  H21B 9490   5.871   5.077   7.929 -1.3950 -0.7658 -1.6235
   95CHL1  H21C 9491   5.876   5.059   7.750  0.3306  0.0031 -0.2025
   95CHL1   C22 9492   6.112   4.948   7.974 -0.3151  0.5475 -0.2049
   95CHL1  H22A 9493   6.168   4.853   7.986  1.4118  1.3871 -1.2692
   95CHL1  H22B 9494   6.198   5.017   7.964  1.4364 -1.6506 -1.1856
   95CHL1   C23 9495   6.034   4.993   8.098 -0.2599  0.0570 -0.3048
   95CHL1  H23A 9496   6.016   5.101   8.083 -2.6436 -0.0792  1.1523
   95CHL1  H23B 9497   5.932   4.952   8.109 -1.1600  2.4079  0.5144
   95CHL1   C24 9498   6.100   4.966   8.228 -0.4633 -1.0282  0.0989
   95CHL1  H24A 9499   6.075   4.861   8.254 -1.7204 -0.0696  3.1563
   95CHL1  H24B 9500   6.211   4.979   8.231 -0.3131 -2.0947 -0.3931
   95CHL1   C25 9501   6.024   5.031   8.350  0.0413 -0.2858  0.2060
   95CHL1   H25 9502   5.921   4.990   8.348  0.0040 -0.1849 -0.1419
   95CHL1   C26 9503   6.090   4.990   8.482 -0.4960  0.1062 -0.2194
   95CHL1  H26A 9504   6.041   5.043   8.566 -0.2000  0.1046 -0.0466
   95CHL1  H26B 9505   6.076   4.881   8.504 -2.4566  0.7606  2.3107
   95CHL1  H26C 9506   6.197   5.017   8.472 -0.1326 -1.8022 -2.2745
   95CHL1   C27 9507   6.002   5.187   8.343  0.2509  0.0448 -0.0107
   95CHL1  H27A 9508   5.959   5.203   8.444  0.6981 -3.4276  0.8772
   95CHL1  H27B 9509   6.089   5.243   8.303 -1.4455  1.4512 -1.9890
   95CHL1  H27C 9510   5.919   5.208   8.272  0.5056  1.4323  0.0701
   96CHL1    C3 9511   4.809   0.028   6.745 -0.2754  0.0889 -0.3457
   96CHL1    H3 9512   4.747  -0.040   6.807  0.5474 -1.0501 -0.7446
   96CHL1    O3 9513   4.760   0.033   6.616  0.4696 -0.1227  0.1486
   96CHL1   H3' 9514   4.729  -0.056   6.600  1.3806 -0.5237  0.5413
   96CHL1    C4 9515   4.798   0.169   6.807 -0.5885  0.1535  0.3428
   96CHL1   H4A 9516   4.851   0.246   6.748 -1.9498  1.3224  0.5803
   96CHL1   H4B 9517   4.693   0.203   6.795 -0.5836  0.9493  2.2098
   96CHL1    C5 9518   4.845   0.180   6.953  1.0155 -0.0656 -0.0296
   96CHL1    C6 9519   4.762   0.221   7.052  0.1110  0.5137  0.5245
   96CHL1    H6 9520   4.660   0.252   7.023  0.1332 -0.1367 -0.3273
   96CHL1    C7 9521   4.804   0.228   7.195 -0.2398  0.5539  0.6410
   96CHL1   H7A 9522   4.773   0.324   7.242 -0.2857  0.8891 -0.0650
   96CHL1   H7B 9523   4.765   0.143   7.256  1.2051 -1.4118 -1.0469
   96CHL1    C8 9524   4.962   0.214   7.214  0.1223 -0.0063  0.0567
   96CHL1    H8 9525   5.009   0.315   7.208 -0.0363  0.1243  0.8406
   96CHL1   C14 9526   4.992   0.173   7.358 -0.5484  0.3913 -0.3999
   96CHL1   H14 9527   4.938   0.075   7.360  0.2339 -0.0534 -0.5563
   96CHL1   C15 9528   4.945   0.266   7.467 -0.1317  0.1348  0.0742
   96CHL1  H15A 9529   4.952   0.376   7.458 -1.2791  0.2753  0.7029
   96CHL1  H15B 9530   4.836   0.253   7.484 -0.1056 -0.2777 -0.0645
   96CHL1   C16 9531   5.013   0.211   7.589 -0.1489  0.2404 -0.3205
   96CHL1  H16A 9532   5.050   0.293   7.654 -2.2852  0.7058  0.3896
   96CHL1  H16B 9533   4.946   0.148   7.651  2.4669 -0.1641  2.2732
   96CHL1   C17 9534   5.126   0.116   7.545 -0.4209 -0.0755 -0.7721
   96CHL1   H17 9535   5.071   0.020   7.558  3.2360 -2.2081  0.7511
   96CHL1   C13 9536   5.138   0.145   7.392 -0.5976  0.7577  0.0472
   96CHL1   C18 9537   5.235   0.266   7.369 -0.3812 -0.1436  0.2955
   96CHL1  H18A 9538   5.340   0.237   7.393 -0.5249 -0.9901 -0.0444
   96CHL1  H18B 9539   5.235   0.300   7.263  0.3600 -0.7789  0.0815
   96CHL1  H18C 9540   5.208   0.355   7.429 -0.1299 -0.0209  0.2264
   96CHL1   C12 9541   5.183   0.017   7.310 -0.2181 -0.6658  0.1246
   96CHL1  H12A 9542   5.286  -0.013   7.336 -0.0333 -0.0344  0.1377
   96CHL1  H12B 9543   5.117  -0.067   7.341 -0.5484 -1.1436 -1.7135
   96CHL1   C11 9544   5.162   0.050   7.157  0.7959 -0.7287  0.0209
   96CHL1  H11A 9545   5.240   0.122   7.125  0.4140 -1.2799 -2.2706
   96CHL1  H11B 9546   5.190  -0.042   7.102  1.1398  0.3673 -1.6922
   96CHL1    C9 9547   5.019   0.102   7.126 -0.0199  0.4195 -0.2502
   96CHL1    H9 9548   4.959   0.012   7.149 -0.8945  0.9682 -0.3233
   96CHL1   C10 9549   4.992   0.123   6.972  0.3523  0.4468  0.0466
   96CHL1   C19 9550   5.094   0.225   6.920  0.0052 -0.5938  0.2633
   96CHL1  H19A 9551   5.089   0.230   6.809  2.1387 -0.2360  0.1326
   96CHL1  H19B 9552   5.060   0.326   6.952 -1.9055 -0.5962 -1.5355
   96CHL1  H19C 9553   5.203   0.212   6.940  0.1580  0.2183 -0.0033
   96CHL1    C1 9554   5.010  -0.014   6.901  0.4237  0.3564 -0.3281
   96CHL1   H1A 9555   5.114  -0.052   6.907  0.4846 -0.1377 -3.1308
   96CHL1   H1B 9556   4.940  -0.082   6.955  0.8880  0.3410  0.2636
   96CHL1    C2 9557   4.958  -0.014   6.753  0.3292 -0.3525  0.2882
   96CHL1   H2A 9558   4.963  -0.108   6.695 -1.0124  0.7610 -1.7794
   96CHL1   H2B 9559   5.019   0.059   6.695 -0.1935 -0.4619 -0.4177
   96CHL1   C20 9560   5.247   0.120   7.633  0.1630 -0.2101 -0.5951
   96CHL1   H20 9561   5.296   0.220   7.635 -0.9854  0.3481  0.3886
   96CHL1   C21 9562   5.351   0.015   7.585  0.2057 -0.0983 -0.6002
   96CHL1  H21A 9563   5.291  -0.073   7.553  1.2507 -0.3104 -2.0979
   96CHL1  H21B 9564   5.415  -0.019   7.670  0.9434  1.8541 -0.3028
   96CHL1  H21C 9565   5.419   0.047   7.503 -1.0667 -1.4226 -2.2224
   96CHL1   C22 9566   5.209   0.081   7.779 -0.1146  0.5513  0.1268
   96CHL1  H22A 9567   5.135   0.153   7.817 -1.6861 -1.5719  1.3234
   96CHL1  H22B 9568   5.169  -0.022   7.772  0.5582  0.3385 -0.8527
   96CHL1   C23 9569   5.325   0.086   7.878 -0.2289 -0.5602  0.2675
   96CHL1  H23A 9570   5.383  -0.008   7.869  0.9443  0.2170 -0.7666
   96CHL1  H23B 9571   5.390   0.170   7.845 -1.0452 -0.6261 -1.6342
   96CHL1   C24 9572   5.269   0.110   8.016  0.3704 -0.7492 -0.4924
   96CHL1  H24A 9573   5.222   0.210   8.020  0.0143 -0.8827 -1.1502
   96CHL1  H24B 9574   5.189   0.037   8.039  0.0364 -0.6302 -1.2410
   96CHL1   C25 9575   5.365   0.098   8.138  0.4501  0.0758  0.4345
   96CHL1   H25 9576   5.421   0.003   8.124 -0.2447 -0.1281 -1.0937
   96CHL1   C26 9577   5.468   0.205   8.126 -0.0277 -0.4189 -0.4305
   96CHL1  H26A 9578   5.538   0.203   8.212 -2.3814 -1.2858  1.5744
   96CHL1  H26B 9579   5.529   0.190   8.035  1.6018  1.6426  0.2417
   96CHL1  H26C 9580   5.434   0.311   8.127  0.7291 -0.0646 -3.5748
   96CHL1   C27 9581   5.296   0.109   8.277  0.1348 -0.0741 -0.3272
   96CHL1  H27A 9582   5.379   0.118   8.349 -1.7582 -0.3708  2.0311
   96CHL1  H27B 9583   5.237   0.202   8.286 -1.7008 -1.2644  0.7162
   96CHL1  H27C 9584   5.229   0.024   8.305 -0.6654  1.0147  1.1915
   97OSM      N 9585   2.545   5.973  11.215 -0.5765 -0.1406  0.1175
   97OSM    C15 9586   2.632   5.866  11.259  0.3112  0.1456 -0.0775
   97OSM   H15A 9587   2.622   5.839  11.364  1.5570 -1.0360 -0.2432
   97OSM   H15B 9588   2.733   5.895  11.235 -0.0446  2.4675  0.9793
   97OSM   H15C 9589   2.599   5.778  11.205  0.7252 -0.4589  0.6222
   97OSM    C14 9590   2.404   5.950  11.255 -1.1438  0.8885 -0.6089
   97OSM   H14A 9591   2.339   6.031  11.223 -0.9595  0.9996 -0.7018
   97OSM   H14B 9592   2.399   5.930  11.361  0.1223  0.4523 -0.6150
   97OSM   H14C 9593   2.351   5.872  11.202  0.3672  0.5854 -1.7414
   97OSM    C13 9594   2.593   6.103  11.273  0.0632  0.3502  0.1720
   97OSM   H13A 9595   2.524   6.177  11.237 -3.1165 -1.8547  1.2309
   97OSM   H13B 9596   2.695   6.127  11.247 -0.4291  2.2614 -0.1056
   97OSM   H13C 9597   2.580   6.100  11.380  1.8773  1.4297  0.4601
   97OSM    C12 9598   2.557   5.980  11.062 -0.3555  0.3671  0.1099
   97OSM   H12A 9599   2.490   6.056  11.025 -0.4020 -0.3161 -1.3030
   97OSM   H12B 9600   2.531   5.882  11.023  0.8073  0.3519 -0.6645
   97OSM    C11 9601   2.695   6.013  10.994  0.3475  0.4436 -0.0780
   97OSM   H11A 9602   2.685   5.998  10.884  0.7741 -0.3107 -0.0207
   97OSM   H11B 9603   2.765   5.933  11.028 -2.4547 -1.5222  1.5801
   97OSM      P 9604   2.681   6.275  10.973 -0.2762 -0.3374  0.2508
   97OSM    O13 9605   2.553   6.291  11.038 -0.3399  0.7415 -0.5010
   97OSM    O14 9606   2.783   6.378  11.003  0.0562 -0.0904  0.0396
   97OSM    O11 9607   2.675   6.246  10.817 -0.0538 -0.0096  0.4035
   97OSM    O12 9608   2.747   6.142  11.025  0.4811  0.2232 -0.1086
   97OSM    C1S 9609   2.553   6.280  10.747 -0.4067 -0.7550  0.3663
   97OSM    H1S 9610   2.503   6.367  10.794 -0.1142 -2.3612  3.9259
   97OSM    H1T 9611   2.480   6.198  10.760  0.6610 -1.5994  1.2048
   97OSM     NF 9612   2.474   6.373  10.528  0.1815 -0.1560 -0.0355
   97OSM    HNF 9613   2.422   6.309  10.472 -2.8261  1.4062  0.7485
   97OSM    C2S 9614   2.580   6.304  10.599 -0.7304 -0.3234  0.1655
   97OSM    H2S 9615   2.676   6.360  10.593 -1.2235  0.3899 -1.9357
   97OSM    C3S 9616   2.615   6.167  10.527  0.9733 -0.0033 -0.2108
   97OSM    H3S 9617   2.522   6.106  10.537 -0.7409  2.6584  0.9629
   97OSM     O3 9618   2.725   6.095  10.590 -0.1091 -0.2149 -0.1682
   97OSM    HO3 9619   2.729   6.141  10.673 -2.9019  0.7937 -0.4864
   97OSM    C4S 9620   2.664   6.201  10.384 -0.0756 -0.5093  0.1457
   97OSM    H4S 9621   2.771   6.219  10.369  0.1024 -0.1705  1.7288
   97OSM    C5S 9622   2.582   6.191  10.274 -1.2061  0.3149  0.4608
   97OSM    H5S 9623   2.480   6.152  10.287 -0.6765 -0.7865  1.5251
   97OSM    C6S 9624   2.637   6.221  10.134  0.2669  0.4529  0.6483
   97OSM    H6S 9625   2.679   6.132  10.083  0.7913  2.1555 -2.1064
   97OSM    H6T 9626   2.726   6.287  10.142 -0.8088  2.0355 -0.0219
   97OSM    C7S 9627   2.537   6.281  10.034  0.3155 -0.1036 -0.2039
   97OSM    H7S 9628   2.495   6.372  10.084 -0.2117  0.3237 -1.3943
   97OSM    H7T 9629   2.454   6.211  10.013 -1.9106  2.8126 -1.9650
   97OSM    C8S 9630   2.624   6.325   9.915  0.1042  0.0337  0.6071
   97OSM    H8S 9631   2.682   6.233   9.890 -0.6086 -0.3052  0.1902
   97OSM    H8T 9632   2.684   6.418   9.928  1.4798 -1.0991  2.9687
   97OSM    C9S 9633   2.541   6.357   9.789  0.7965  0.1177  0.4295
   97OSM    H9S 9634   2.461   6.432   9.809  1.1262  1.2175 -2.0060
   97OSM    H9T 9635   2.472   6.271   9.770  0.1361  0.4898  1.1050
   97OSM   C10S 9636   2.616   6.405   9.662 -0.0952  0.3411  0.1308
   97OSM   H10S 9637   2.681   6.490   9.691  0.2691  0.1411 -0.0967
   97OSM   H10T 9638   2.546   6.451   9.589  0.4597  0.6329 -0.2217
   97OSM   C11S 9639   2.704   6.300   9.591  0.1540 -0.6258 -0.2406
   97OSM   H11S 9640   2.748   6.235   9.670  3.4841 -1.8640 -2.8689
   97OSM   H11T 9641   2.794   6.340   9.541  1.6832 -1.9508  1.3031
   97OSM   C12S 9642   2.620   6.201   9.507  0.5005  0.7745  0.1937
   97OSM   H12S 9643   2.537   6.265   9.469  0.4580  0.0388 -0.9961
   97OSM   H12T 9644   2.579   6.128   9.580 -1.1170  0.9712 -0.4580
   97OSM   C13S 9645   2.704   6.129   9.405 -0.1423 -0.3298  0.1185
   97OSM   H13S 9646   2.773   6.057   9.454 -0.0482 -0.8434 -0.7601
   97OSM   H13T 9647   2.770   6.199   9.350  0.4197 -1.0938 -0.2065
   97OSM   C14S 9648   2.621   6.069   9.294 -0.5621 -0.5027  0.7313
   97OSM   H14S 9649   2.536   6.139   9.276 -1.0725 -0.6223  2.4262
   97OSM   H14T 9650   2.565   5.980   9.331 -2.4226  0.1643 -0.3403
   97OSM   C15S 9651   2.706   6.026   9.175  0.3778  0.3935  0.3230
   97OSM   H15S 9652   2.771   5.938   9.199  0.0630  0.7213  2.6053
   97OSM   H15T 9653   2.782   6.101   9.144  1.1226 -0.7015 -0.5947
   97OSM   C16S 9654   2.621   6.002   9.052  0.2459  0.1694  0.5608
   97OSM   H16S 9655   2.540   6.078   9.050  1.3827  1.4163 -0.0031
   97OSM   H16T 9656   2.574   5.902   9.056  0.8274 -0.0761  1.9017
   97OSM   C17S 9657   2.698   6.000   8.921 -0.2002  0.4564 -0.6141
   97OSM   H17S 9658   2.765   6.088   8.932 -0.3076  0.5116 -0.3912
   97OSM   H17T 9659   2.626   6.018   8.838 -2.1074 -1.4326  0.5199
   97OSM   C18S 9660   2.783   5.875   8.891 -0.7006  0.8521 -0.0629
   97OSM   H18S 9661   2.847   5.881   8.800 -0.0723  0.0451  0.3180
   97OSM   H18T 9662   2.718   5.785   8.898 -1.3630  1.1789 -1.4839
   97OSM   H18U 9663   2.858   5.858   8.971  0.6470  1.1976 -1.2155
   97OSM    C1F 9664   2.448   6.499  10.546 -0.3193  0.0370  0.7455
   97OSM     OF 9665   2.479   6.555  10.648 -0.5212 -0.2448 -0.0527
   97OSM    C2F 9666   2.368   6.562  10.427  0.0359 -0.2811 -0.0111
   97OSM    H2F 9667   2.281   6.619  10.465 -1.2100 -1.0420 -1.6109
   97OSM    H2G 9668   2.326   6.473  10.375  0.7769  0.5169 -2.0956
   97OSM    C3F 9669   2.454   6.656  10.341 -0.8693  0.1979  0.3032
   97OSM    H3F 9670   2.532   6.593  10.292 -1.3189 -0.1482  0.0216
   97OSM    H3G 9671   2.512   6.716  10.414  0.5591  1.0456 -1.4299
   97OSM    C4F 9672   2.395   6.748  10.230  0.2616  1.0221  0.5628
   97OSM    H4F 9673   2.476   6.797  10.171  0.9182 -1.5626 -0.8370
   97OSM    H4G 9674   2.352   6.834  10.285  1.2265  0.5746  2.0795
   97OSM    C5F 9675   2.288   6.680  10.142  0.4147  0.7692  0.3678
   97OSM    H5F 9676   2.199   6.644  10.197  0.0398 -0.6340 -1.0589
   97OSM    H5G 9677   2.337   6.587  10.105 -1.0187 -0.7754  2.1613
   97OSM    C6F 9678   2.238   6.755  10.023  0.1908 -0.0646 -0.7239
   97OSM    H6F 9679   2.307   6.840  10.007 -0.0995  0.0608 -1.3224
   97OSM    H6G 9680   2.139   6.793  10.055  0.0693 -0.1397 -1.0063
   97OSM    C7F 9681   2.246   6.683   9.893 -0.5791  0.2518  0.2859
   97OSM    H7F 9682   2.176   6.597   9.900 -0.1009 -0.2873 -1.1375
   97OSM    H7G 9683   2.347   6.643   9.872 -1.1985 -2.9341  2.6490
   97OSM    C8F 9684   2.190   6.768   9.773 -0.4049  0.2245 -0.3018
   97OSM    H8F 9685   2.098   6.815   9.815 -1.3933 -0.6453 -1.4205
   97OSM    H8G 9686   2.156   6.695   9.696  0.3278  0.7792 -1.1657
   97OSM    C9F 9687   2.291   6.865   9.730 -0.1156 -0.6989 -0.2540
   97OSM    H9F 9688   2.353   6.908   9.810  1.6014 -0.8572 -1.4425
   97OSM   C10F 9689   2.315   6.907   9.604 -1.0271 -0.6313  0.1425
   97OSM   H10F 9690   2.387   6.988   9.585 -1.6569 -0.1722 -0.3101
   97OSM   C11F 9691   2.245   6.863   9.479 -0.5234 -0.3646 -0.0808
   97OSM   H11F 9692   2.252   6.934   9.394  1.0368 -0.2604  0.0923
   97OSM   H11G 9693   2.138   6.839   9.499 -0.4071 -1.8986 -1.1407
   97OSM   C12F 9694   2.314   6.736   9.427 -0.1177  0.3150  0.4004
   97OSM   H12F 9695   2.256   6.690   9.345 -0.5459  0.7740  0.4415
   97OSM   H12G 9696   2.318   6.657   9.505 -0.1304 -0.6763 -0.5778
   97OSM   C13F 9697   2.465   6.762   9.383 -1.1511  0.1776  0.3010
   97OSM   H13F 9698   2.513   6.663   9.372 -0.8154  0.4162 -0.4964
   97OSM   H13G 9699   2.526   6.829   9.447  1.9067 -2.2857  0.1705
   97OSM   C14F 9700   2.460   6.825   9.239 -0.0893  0.3608  0.6780
   97OSM   H14F 9701   2.406   6.922   9.244 -1.2695 -0.2673  0.3257
   97OSM   H14G 9702   2.401   6.758   9.173  1.2646 -1.8121  1.5541
   97OSM   C15F 9703   2.592   6.857   9.180  0.0305 -0.6356 -0.7636
   97OSM   H15F 9704   2.631   6.761   9.140  2.3833 -0.1976  0.3099
   97OSM   H15G 9705   2.664   6.891   9.257 -1.3495  2.1565 -0.5885
   97OSM   C16F 9706   2.580   6.949   9.067  0.4014 -0.8311  0.3502
   97OSM   H16F 9707   2.537   7.048   9.094  0.7818 -0.2977 -0.9517
   97OSM   H16G 9708   2.519   6.902   8.988  1.4858 -1.3695 -0.1896
   97OSM   C17F 9709   2.712   6.981   9.006  0.1712  0.2811 -0.6488
   97OSM   H17F 9710   2.760   6.881   9.010  0.8165  0.6057  2.5699
   97OSM   H17G 9711   2.771   7.038   9.081 -1.6838  1.6603 -0.1490
   97OSM   C18F 9712   2.708   7.061   8.875 -0.1018 -0.2689 -0.1503
   97OSM   H18F 9713   2.692   6.992   8.790  0.3583 -2.9673  1.8316
   97OSM   H18G 9714   2.796   7.129   8.868  1.5826 -2.3146  0.4828
   97OSM   H18H 9715   2.616   7.123   8.887  1.2296  1.7043  0.3265
   98OSM      N 9716   2.008   6.738  10.946 -0.6011 -0.6837 -0.7589
   98OSM    C15 9717   1.984   6.858  10.853 -0.0965  0.4463  0.2427
   98OSM   H15A 9718   2.054   6.939  10.867  1.7226 -0.5493 -2.2874
   98OSM   H15B 9719   1.891   6.911  10.865 -0.4283 -0.0645  0.0033
   98OSM   H15C 9720   1.997   6.826  10.750 -1.0031 -0.1969  0.3190
   98OSM    C14 9721   2.021   6.802  11.083 -0.2051  0.5917  0.8367
   98OSM   H14A 9722   2.113   6.856  11.098 -0.3698  0.4123  2.7150
   98OSM   H14B 9723   2.017   6.721  11.153  1.2179  1.6587  2.2098
   98OSM   H14C 9724   1.931   6.860  11.098 -2.0990 -2.1418  0.8961
   98OSM    C13 9725   1.891   6.645  10.939 -0.4902 -0.7068  0.4387
   98OSM   H13A 9726   1.874   6.617  10.836 -3.0089  2.1742 -0.0984
   98OSM   H13B 9727   1.805   6.694  10.983 -2.0955 -2.0276 -1.0294
   98OSM   H13C 9728   1.910   6.552  10.990 -1.1228 -2.5008 -2.3214
   98OSM    C12 9729   2.140   6.670  10.905  0.7488  0.1809 -0.2636
   98OSM   H12A 9730   2.161   6.598  10.983 -0.4435  0.2524  0.1434
   98OSM   H12B 9731   2.223   6.739  10.907  0.0748  1.0181 -0.5828
   98OSM    C11 9732   2.145   6.589  10.779  0.6720 -0.4792  0.4288
   98OSM   H11A 9733   2.250   6.555  10.760  0.7881 -0.4980  1.0624
   98OSM   H11B 9734   2.104   6.649  10.696 -0.8638 -0.8381  0.9070
   98OSM      P 9735   2.078   6.345  10.874 -0.0577 -0.1691 -0.0714
   98OSM    O13 9736   2.143   6.381  11.000 -0.4302 -0.6455 -0.1119
   98OSM    O14 9737   1.943   6.285  10.891  0.1516 -0.3652 -0.4628
   98OSM    O11 9738   2.172   6.245  10.785 -0.2633  0.2635  0.3071
   98OSM    O12 9739   2.055   6.476  10.786  0.1183  0.1363 -0.6485
   98OSM    C1S 9740   2.143   6.234  10.649  0.4351 -0.1760  0.4741
   98OSM    H1S 9741   2.186   6.322  10.598  0.3496 -0.9065 -0.9124
   98OSM    H1T 9742   2.033   6.223  10.636  0.6962 -0.9642 -1.2600
   98OSM     NF 9743   2.138   6.086  10.447  0.3797 -0.3602 -0.1057
   98OSM    HNF 9744   2.063   6.021  10.440 -0.9017  1.2847 -3.3121
   98OSM    C2S 9745   2.206   6.108  10.576 -0.2691 -1.1078 -0.3027
   98OSM    H2S 9746   2.315   6.122  10.564 -0.4463  1.3777  0.4430
   98OSM    C3S 9747   2.193   5.982  10.662  0.0357  0.3509  0.3612
   98OSM    H3S 9748   2.083   5.967  10.672  0.0127 -0.8868 -1.3202
   98OSM     O3 9749   2.258   5.984  10.786  0.6980 -0.0685 -0.5546
   98OSM    HO3 9750   2.235   6.073  10.815  3.3362  0.1794  1.1058
   98OSM    C4S 9751   2.233   5.856  10.586 -0.1323 -0.5530 -0.2840
   98OSM    H4S 9752   2.150   5.789  10.560  0.1257 -0.8748 -0.2815
   98OSM    C5S 9753   2.354   5.805  10.569  0.0154  0.1275  0.2162
   98OSM    H5S 9754   2.436   5.865  10.611 -2.6828  2.0689  3.1879
   98OSM    C6S 9755   2.375   5.671  10.506  0.1943  0.0089  0.9086
   98OSM    H6S 9756   2.345   5.585  10.570  1.9304 -1.3545 -0.0289
   98OSM    H6T 9757   2.484   5.658  10.491  0.0898  1.1694 -1.2665
   98OSM    C7S 9758   2.295   5.660  10.381 -0.2642 -0.6618  0.0160
   98OSM    H7S 9759   2.186   5.668  10.398 -0.2448  0.6485 -0.3600
   98OSM    H7T 9760   2.308   5.558  10.339  1.6674 -1.1346  1.5924
   98OSM    C8S 9761   2.336   5.750  10.267 -0.1574  0.0759 -0.7452
   98OSM    H8S 9762   2.439   5.728  10.233 -0.0018  1.7429 -1.4784
   98OSM    H8T 9763   2.337   5.857  10.299  0.9883 -0.6083  1.8338
   98OSM    C9S 9764   2.233   5.729  10.150  0.5760  0.0995 -0.2938
   98OSM    H9S 9765   2.146   5.791  10.179  0.3285  0.8497 -2.4754
   98OSM    H9T 9766   2.191   5.626  10.153 -2.2020  1.1158 -0.8211
   98OSM   C10S 9767   2.287   5.761  10.011  0.1111  0.4926 -0.4763
   98OSM   H10S 9768   2.209   5.725   9.940  0.6975 -0.0661 -0.8431
   98OSM   H10T 9769   2.370   5.689   9.993 -1.7164 -1.7961 -0.3151
   98OSM   C11S 9770   2.318   5.912   9.984  0.6786 -0.9263 -0.8613
   98OSM   H11S 9771   2.398   5.948  10.053 -0.4351 -2.8716  1.6260
   98OSM   H11T 9772   2.227   5.971  10.007 -0.2445 -2.2931 -0.9344
   98OSM   C12S 9773   2.372   5.932   9.836  0.3007 -0.0121  0.4810
   98OSM   H12S 9774   2.460   5.864   9.829 -1.0730 -1.6865 -2.1704
   98OSM   H12T 9775   2.404   6.038   9.839 -1.2986  0.4962  2.3413
   98OSM   C13S 9776   2.271   5.892   9.731  0.1771 -0.0843 -0.5327
   98OSM   H13S 9777   2.178   5.952   9.742  0.0346 -0.2954 -0.5828
   98OSM   H13T 9778   2.234   5.789   9.751  0.3443  0.0521  0.5226
   98OSM   C14S 9779   2.327   5.907   9.586  0.3312  0.6428 -0.3957
   98OSM   H14S 9780   2.418   5.846   9.566 -0.8772 -1.2901 -0.2349
   98OSM   H14T 9781   2.358   6.013   9.569  0.5471  0.2329 -2.9559
   98OSM   C15S 9782   2.227   5.883   9.462  0.6017 -0.0402  0.5216
   98OSM   H15S 9783   2.123   5.918   9.480 -1.6142 -3.7564 -3.2483
   98OSM   H15T 9784   2.219   5.774   9.440 -0.1243  0.4436 -1.8574
   98OSM   C16S 9785   2.275   5.950   9.331  0.8496  0.1006  0.9252
   98OSM   H16S 9786   2.372   5.904   9.301 -0.1241 -1.2912 -0.1976
   98OSM   H16T 9787   2.293   6.059   9.350 -1.7731  0.9376 -0.9128
   98OSM   C17S 9788   2.172   5.928   9.212 -0.4589 -0.5765 -0.5313
   98OSM   H17S 9789   2.090   6.001   9.198 -0.0850 -0.0215  0.0778
   98OSM   H17T 9790   2.115   5.833   9.224 -1.1793 -0.0011  0.8177
   98OSM   C18S 9791   2.240   5.914   9.082 -0.3998 -0.0255  0.6030
   98OSM   H18S 9792   2.315   5.994   9.064  0.6425 -0.8847  1.0241
   98OSM   H18T 9793   2.160   5.928   9.006 -0.3763  2.2832  0.9330
   98OSM   H18U 9794   2.279   5.812   9.066 -2.6643 -1.1014  1.4198
   98OSM    C1F 9795   2.160   6.177  10.346  0.1282  0.1691 -0.3593
   98OSM     OF 9796   2.237   6.269  10.368 -0.1985 -0.0441 -0.3286
   98OSM    C2F 9797   2.093   6.156  10.213 -0.2853 -0.0182 -0.1956
   98OSM    H2F 9798   1.986   6.183  10.232 -0.3465 -1.0917  1.1051
   98OSM    H2G 9799   2.099   6.050  10.180  1.9073  0.1363 -0.4499
   98OSM    C3F 9800   2.151   6.244  10.101 -0.5303  0.1801  0.5360
   98OSM    H3F 9801   2.249   6.195  10.084 -0.0280  1.4369 -0.3423
   98OSM    H3G 9802   2.151   6.353  10.126  1.3709 -0.2273  2.5752
   98OSM    C4F 9803   2.082   6.225   9.960  0.3794  0.2498 -0.9446
   98OSM    H4F 9804   1.977   6.259   9.970  0.0335 -1.1092  0.3782
   98OSM    H4G 9805   2.075   6.117   9.936  0.4590  0.1098 -0.3699
   98OSM    C5F 9806   2.154   6.299   9.848  0.0653  0.3898  0.8090
   98OSM    H5F 9807   2.253   6.250   9.844  0.2504  0.8572 -0.6065
   98OSM    H5G 9808   2.171   6.405   9.876  0.6252  0.7016 -0.6628
   98OSM    C6F 9809   2.075   6.281   9.717  0.0285  0.3468  0.6351
   98OSM    H6F 9810   1.969   6.315   9.721  0.2777  1.0878  1.0986
   98OSM    H6G 9811   2.089   6.175   9.690  1.0335  1.1385 -2.3409
   98OSM    C7F 9812   2.151   6.354   9.609 -0.0427 -0.4290  0.1748
   98OSM    H7F 9813   2.260   6.345   9.627  0.1839  0.1850 -0.8087
   98OSM    H7G 9814   2.129   6.462   9.599  1.3864  0.2159  3.1604
   98OSM    C8F 9815   2.131   6.289   9.479  0.3981  0.6421  0.0539
   98OSM    H8F 9816   2.157   6.182   9.495 -1.5432  0.3342  1.5803
   98OSM    H8G 9817   2.207   6.324   9.406 -0.9820  2.4430 -0.5874
   98OSM    C9F 9818   1.994   6.294   9.418 -0.4804  0.3377 -0.0815
   98OSM    H9F 9819   1.934   6.203   9.434 -0.7861  0.2072 -1.7731
   98OSM   C10F 9820   1.936   6.395   9.352  0.1559  0.2908  0.0494
   98OSM   H10F 9821   1.838   6.372   9.308  0.3456  2.0281 -1.4263
   98OSM   C11F 9822   1.986   6.531   9.325 -0.6036  0.7065 -0.0260
   98OSM   H11F 9823   2.082   6.562   9.370 -0.2620  1.7431 -1.4094
   98OSM   H11G 9824   1.920   6.617   9.352  1.3873  2.3621 -0.1911
   98OSM   C12F 9825   1.997   6.557   9.172  0.3557  0.8228  0.0237
   98OSM   H12F 9826   2.045   6.653   9.145 -0.3425  1.6462  1.5625
   98OSM   H12G 9827   1.898   6.552   9.122 -0.4660 -1.3299  1.6718
   98OSM   C13F 9828   2.076   6.449   9.089 -0.0738  0.7632 -0.4487
   98OSM   H13F 9829   2.058   6.460   8.980 -1.1937  0.6631 -0.2849
   98OSM   H13G 9830   2.035   6.346   9.100 -0.3318  1.0552  1.6190
   98OSM   C14F 9831   2.222   6.443   9.137 -0.4252 -0.5255 -0.1282
   98OSM   H14F 9832   2.227   6.431   9.247  0.7353  2.8661  0.2984
   98OSM   H14G 9833   2.279   6.536   9.118  0.4448 -0.6826  1.4810
   98OSM   C15F 9834   2.311   6.340   9.076  0.1577  1.2304  0.0963
   98OSM   H15F 9835   2.291   6.328   8.968 -0.1144  0.3902  0.2310
   98OSM   H15G 9836   2.295   6.245   9.132  2.0729  0.8804  0.1181
   98OSM   C16F 9837   2.461   6.377   9.091 -0.0854  0.8343  1.7031
   98OSM   H16F 9838   2.527   6.296   9.055 -2.6259  0.2368 -2.3475
   98OSM   H16G 9839   2.486   6.398   9.197  2.3502  0.1389  1.3274
   98OSM   C17F 9840   2.519   6.496   9.004  0.9367  0.1230 -0.2531
   98OSM   H17F 9841   2.478   6.587   9.054  0.6450 -0.9979  1.6775
   98OSM   H17G 9842   2.483   6.492   8.899 -0.8907  3.6452  0.0742
   98OSM   C18F 9843   2.668   6.495   8.995 -0.0342 -0.5665 -0.5091
   98OSM   H18F 9844   2.714   6.580   8.939 -1.5777  0.4234 -0.3248
   98OSM   H18G 9845   2.712   6.406   8.946 -0.9871 -1.5103  0.3210
   98OSM   H18H 9846   2.713   6.489   9.096 -1.2459 -2.1272 -0.0279
   99OSM      N 9847   2.006   1.494  10.985 -0.0360  0.1005 -0.9664
   99OSM    C15 9848   2.032   1.575  10.868  0.2006 -0.5984  0.2836
   99OSM   H15A 9849   1.938   1.595  10.819  1.3466 -0.9765 -2.2391
   99OSM   H15B 9850   2.094   1.525  10.796  0.9506  1.3879 -0.5412
   99OSM   H15C 9851   2.074   1.674  10.883 -2.9232  1.0453 -0.8341
   99OSM    C14 9852   1.890   1.557  11.060  0.3662 -0.7611 -0.3563
   99OSM   H14A 9853   1.925   1.654  11.094  2.3722 -1.6997  0.4198
   99OSM   H14B 9854   1.858   1.507  11.150  0.8233  1.5165  1.1678
   99OSM   H14C 9855   1.816   1.585  10.987 -0.5484  1.6116  1.3517
   99OSM    C13 9856   1.949   1.365  10.929 -0.1754  0.7380  0.1029
   99OSM   H13A 9857   2.013   1.318  10.856 -0.9119 -3.2376  1.7700
   99OSM   H13B 9858   1.865   1.384  10.864  0.1982  1.9890 -0.0483
   99OSM   H13C 9859   1.937   1.296  11.011 -0.9667 -1.0930 -1.4756
   99OSM    C12 9860   2.133   1.464  11.071 -0.4577 -0.1958  0.2777
   99OSM   H12A 9861   2.113   1.383  11.140  0.6423 -1.8940 -1.3036
   99OSM   H12B 9862   2.161   1.552  11.127 -0.2391  0.2688 -0.5499
   99OSM    C11 9863   2.262   1.418  10.992 -0.6758 -0.2415 -0.1824
   99OSM   H11A 9864   2.231   1.334  10.927  1.4690  0.1955 -1.8781
   99OSM   H11B 9865   2.343   1.372  11.053  3.7774  1.5551 -4.1527
   99OSM      P 9866   2.389   1.506  10.780  0.2639 -0.1496 -0.0756
   99OSM    O13 9867   2.396   1.635  10.706  0.0303 -0.4312 -1.4345
   99OSM    O14 9868   2.517   1.441  10.811  0.1515 -0.1219 -0.1465
   99OSM    O11 9869   2.306   1.406  10.698 -0.4480 -0.1429  0.6045
   99OSM    O12 9870   2.314   1.531  10.918 -0.2694 -0.2183  0.1043
   99OSM    C1S 9871   2.281   1.424  10.551  1.1270 -0.6325  0.6783
   99OSM    H1S 9872   2.242   1.527  10.534  1.4530 -0.6796 -0.3710
   99OSM    H1T 9873   2.204   1.355  10.512 -0.3113  0.5003  1.4183
   99OSM     NF 9874   2.383   1.419  10.328  0.6206  0.2405  0.3240
   99OSM    HNF 9875   2.381   1.340  10.267 -1.5758  1.1125 -0.8405
   99OSM    C2S 9876   2.406   1.383  10.470  0.0491  0.0921  0.2956
   99OSM    H2S 9877   2.499   1.434  10.505  0.4095  0.1444 -0.7134
   99OSM    C3S 9878   2.440   1.230  10.478 -0.9708  0.1508  0.0583
   99OSM    H3S 9879   2.361   1.168  10.432 -0.3683 -1.1065  0.6597
   99OSM     O3 9880   2.453   1.179  10.613 -0.2373 -0.3697 -0.6713
   99OSM    HO3 9881   2.429   1.260  10.659 -0.6102 -0.4667 -0.6973
   99OSM    C4S 9882   2.567   1.195  10.398 -0.3311  0.5290 -0.6885
   99OSM    H4S 9883   2.562   1.197  10.288 -0.7488  1.6337 -0.6620
   99OSM    C5S 9884   2.692   1.194  10.455 -0.1201 -0.5053 -0.4665
   99OSM    H5S 9885   2.701   1.239  10.555 -3.1188  2.2174 -1.2633
   99OSM    C6S 9886   2.818   1.163  10.380  0.1230  0.3205  0.3589
   99OSM    H6S 9887   2.869   1.074  10.423  2.7994  1.8133  0.5312
   99OSM    H6T 9888   2.892   1.244  10.401  1.9725 -1.6186  1.7056
   99OSM    C7S 9889   2.806   1.156  10.216 -0.2115 -0.1507  0.2383
   99OSM    H7S 9890   2.763   1.253  10.184  1.3446  0.0946 -1.2341
   99OSM    H7T 9891   2.733   1.078  10.184 -0.5680 -0.9286  2.6809
   99OSM    C8S 9892   2.940   1.123  10.152  0.6136  0.3371 -0.4335
   99OSM    H8S 9893   2.954   1.013  10.159 -1.5765  0.0255 -0.4488
   99OSM    H8T 9894   3.022   1.165  10.214 -1.8562  1.8448  2.0118
   99OSM    C9S 9895   2.953   1.165  10.007 -0.8266  0.1872 -0.1088
   99OSM    H9S 9896   3.058   1.140   9.981 -0.3287 -1.3149  2.9059
   99OSM    H9T 9897   2.941   1.273   9.981 -0.3268 -0.3900 -3.0994
   99OSM   C10S 9898   2.863   1.089   9.910  0.1989  0.1956  0.2761
   99OSM   H10S 9899   2.760   1.129   9.915  0.2305  0.6676 -1.8367
   99OSM   H10T 9900   2.865   0.982   9.941 -1.3710  0.9245  3.1301
   99OSM   C11S 9901   2.919   1.095   9.767  0.0655  0.4930 -0.1226
   99OSM   H11S 9902   3.027   1.069   9.766 -0.0927 -0.2134 -1.8089
   99OSM   H11T 9903   2.894   1.198   9.734  0.1427  0.7788  0.6858
   99OSM   C12S 9904   2.831   1.002   9.673 -0.4415  0.0129  0.3012
   99OSM   H12S 9905   2.830   0.897   9.708 -4.1936  0.0202  0.6440
   99OSM   H12T 9906   2.733   1.053   9.661 -1.5603 -2.4349 -2.2142
   99OSM   C13S 9907   2.888   0.997   9.532 -0.1432 -0.3120  1.3037
   99OSM   H13S 9908   2.987   0.949   9.545  0.5934  0.6981 -0.3368
   99OSM   H13T 9909   2.894   1.098   9.487 -0.4356 -1.5507 -1.7323
   99OSM   C14S 9910   2.805   0.902   9.440  0.2368 -0.0176 -0.6226
   99OSM   H14S 9911   2.718   0.958   9.400  0.1878  1.0218  0.8301
   99OSM   H14T 9912   2.767   0.814   9.497  1.6123 -0.0426  0.3070
   99OSM   C15S 9913   2.889   0.836   9.327 -0.1597 -0.1393  0.4484
   99OSM   H15S 9914   2.821   0.788   9.254  1.3345  0.2780 -1.2934
   99OSM   H15T 9915   2.958   0.765   9.377  0.0144  0.8113  1.6062
   99OSM   C16S 9916   2.981   0.935   9.248 -0.3015 -0.2773  0.1641
   99OSM   H16S 9917   3.063   0.963   9.317  0.0948 -1.0558  0.0191
   99OSM   H16T 9918   2.925   1.025   9.216  0.1725 -0.6577 -1.9367
   99OSM   C17S 9919   3.049   0.871   9.138 -1.5682  0.8571  0.0339
   99OSM   H17S 9920   2.979   0.818   9.069  0.5602 -0.3001 -1.3462
   99OSM   H17T 9921   3.118   0.796   9.183 -1.9589  1.0425  0.9511
   99OSM   C18S 9922   3.115   0.973   9.048 -0.6610  0.0816 -0.5108
   99OSM   H18S 9923   3.156   1.054   9.113  2.1064 -1.5365 -0.0765
   99OSM   H18T 9924   3.051   1.027   8.975 -0.9981 -0.0097 -0.2872
   99OSM   H18U 9925   3.203   0.926   9.001  0.4618  0.7247  0.8686
   99OSM    C1F 9926   2.357   1.544  10.283 -0.2143 -0.9520 -0.1905
   99OSM     OF 9927   2.368   1.645  10.361  0.0460 -0.2185  0.5069
   99OSM    C2F 9928   2.337   1.565  10.133  0.9589  0.3520  0.4078
   99OSM    H2F 9929   2.338   1.461  10.093 -0.9339 -0.0189  1.2077
   99OSM    H2G 9930   2.428   1.616  10.094  2.0396 -1.5288  0.3247
   99OSM    C3F 9931   2.219   1.655  10.097 -0.6540 -0.1764 -0.0606
   99OSM    H3F 9932   2.127   1.605  10.134 -0.2225 -0.5813  0.4786
   99OSM    H3G 9933   2.227   1.753  10.149  0.6308  0.6587 -1.7365
   99OSM    C4F 9934   2.201   1.679   9.947  0.2611 -0.3965  0.1346
   99OSM    H4F 9935   2.292   1.735   9.919  0.9374 -0.7833  1.4496
   99OSM    H4G 9936   2.115   1.746   9.925  0.6634  1.3173  3.0987
   99OSM    C5F 9937   2.228   1.558   9.865  0.4346 -0.0750  0.3800
   99OSM    H5F 9938   2.181   1.466   9.906  0.7169 -0.8065 -0.8707
   99OSM    H5G 9939   2.338   1.542   9.856  0.7917  1.9042  0.8762
   99OSM    C6F 9940   2.166   1.562   9.725 -0.7724 -0.2888 -0.8641
   99OSM    H6F 9941   2.067   1.611   9.738  0.0638  0.7140  3.4429
   99OSM    H6G 9942   2.165   1.455   9.695 -1.8599 -1.6784  3.3463
   99OSM    C7F 9943   2.237   1.638   9.624  0.1186 -0.2383  0.2868
   99OSM    H7F 9944   2.342   1.602   9.617  0.2832 -0.4360  2.7715
   99OSM    H7G 9945   2.244   1.746   9.647  2.0279 -0.6902  2.2112
   99OSM    C8F 9946   2.177   1.620   9.481 -0.1940 -0.0751  0.5071
   99OSM    H8F 9947   2.068   1.642   9.486 -0.5943 -1.7030 -0.4606
   99OSM    H8G 9948   2.191   1.520   9.436  2.1771  1.2510 -2.0425
   99OSM    C9F 9949   2.249   1.713   9.393  0.1000 -0.5306  0.8284
   99OSM    H9F 9950   2.236   1.820   9.417  0.6992 -0.5157  1.1130
   99OSM   C10F 9951   2.294   1.674   9.270  0.4628  0.5460  0.2734
   99OSM   H10F 9952   2.328   1.756   9.205 -2.2573  3.2159  1.9533
   99OSM   C11F 9953   2.299   1.534   9.210 -0.1542  0.4196 -0.1218
   99OSM   H11F 9954   2.287   1.449   9.280 -1.5584  0.7002  0.0005
   99OSM   H11G 9955   2.397   1.516   9.161  1.1661  2.4469  1.5498
   99OSM   C12F 9956   2.183   1.518   9.117  0.3319 -0.5219 -0.2114
   99OSM   H12F 9957   2.194   1.591   9.034 -2.0102  0.8027  0.5592
   99OSM   H12G 9958   2.079   1.533   9.152 -0.8721 -1.9117 -2.9304
   99OSM   C13F 9959   2.191   1.378   9.052 -0.1113  0.2369  0.2933
   99OSM   H13F 9960   2.163   1.301   9.127 -3.0086 -1.6432 -2.4608
   99OSM   H13G 9961   2.297   1.362   9.023 -0.0784 -0.7061  0.8925
   99OSM   C14F 9962   2.111   1.356   8.927  0.1780 -0.5307  0.5574
   99OSM   H14F 9963   2.155   1.277   8.863  3.5944  1.6709 -0.0276
   99OSM   H14G 9964   2.122   1.455   8.878  0.5460  0.0970  1.8767
   99OSM   C15F 9965   1.965   1.335   8.956  0.6296 -0.7779 -0.1120
   99OSM   H15F 9966   1.919   1.424   9.004  1.7920  0.9990 -2.1411
   99OSM   H15G 9967   1.951   1.248   9.025 -0.5450 -0.3665  0.2014
   99OSM   C16F 9968   1.880   1.311   8.829 -0.3146  0.4323 -0.1944
   99OSM   H16F 9969   1.908   1.213   8.785  0.7965  0.9336 -0.6231
   99OSM   H16G 9970   1.888   1.388   8.750  0.6288 -0.4112 -0.9508
   99OSM   C17F 9971   1.732   1.287   8.851  0.5371 -1.1957 -0.0207
   99OSM   H17F 9972   1.683   1.377   8.895 -0.1914 -1.7214  0.2594
   99OSM   H17G 9973   1.715   1.210   8.929  1.3407  0.5120  1.9603
   99OSM   C18F 9974   1.651   1.250   8.727  1.0369  0.0952 -0.3842
   99OSM   H18F 9975   1.599   1.152   8.729 -0.4329  0.8346  1.7677
   99OSM   H18G 9976   1.715   1.238   8.638  0.4261  2.5404 -1.2207
   99OSM   H18H 9977   1.570   1.323   8.704 -0.2014 -0.9724  0.4194
  100OSM      N 9978   5.524   0.267  11.112  0.3265  0.5185  0.2268
  100OSM    C15 9979   5.607   0.280  11.234  0.2008  0.2323  0.5153
  100OSM   H15A 9980   5.561   0.355  11.297 -1.3745 -1.5967  1.6754
  100OSM   H15B 9981   5.705   0.315  11.206 -0.2538  1.1051 -0.0296
  100OSM   H15C 9982   5.616   0.199  11.305  0.4532 -0.1583  0.0442
  100OSM    C14 9983   5.389   0.239  11.144 -0.3611 -0.4251  0.3157
  100OSM   H14A 9984   5.322   0.318  11.176 -2.6677 -2.4154  0.7298
  100OSM   H14B 9985   5.390   0.167  11.225  0.2502  1.2478  1.8740
  100OSM   H14C 9986   5.352   0.195  11.053  1.1285  0.2739 -0.6641
  100OSM    C13 9987   5.538   0.403  11.047 -0.7364  0.2679 -0.4331
  100OSM   H13A 9988   5.479   0.398  10.956  0.4649 -0.9823 -1.1741
  100OSM   H13B 9989   5.642   0.417  11.024  0.2135 -0.5512  2.8861
  100OSM   H13C 9990   5.515   0.479  11.119  1.4034 -0.3240  0.9690
  100OSM    C12 9991   5.582   0.166  11.020 -0.0423 -0.9124  0.1342
  100OSM   H12A 9992   5.558   0.065  11.051 -3.5132  0.2783  1.8402
  100OSM   H12B 9993   5.687   0.182  11.002 -0.3895 -0.4154 -1.6136
  100OSM    C11 9994   5.525   0.168  10.870  0.1417 -0.7499  0.0421
  100OSM   H11A 9995   5.564   0.070  10.834  0.9219  0.1572 -1.6976
  100OSM   H11B 9996   5.574   0.248  10.810  1.3148 -1.7455 -0.3762
  100OSM      P 9997   5.319   0.257  10.745  0.1529 -0.1229  0.4271
  100OSM    O13 9998   5.171   0.276  10.773 -0.6330  0.0067 -0.1286
  100OSM    O14 9999   5.401   0.380  10.732 -0.3893 -0.4296  0.0758
  100OSM    O1110000   5.341   0.167  10.620 -0.1063  0.1765 -0.3631
  100OSM    O1210001   5.384   0.168  10.864 -0.2814 -0.2817 -0.4338
  100OSM    C1S10002   5.272   0.046  10.613  0.0402  1.0948  0.4169
  100OSM    H1S10003   5.165   0.059  10.637 -0.1359  0.8017 -0.2271
  100OSM    H1T10004   5.298  -0.030  10.690 -2.5643  1.4935  1.7748
  100OSM     NF10005   5.181  -0.076  10.418  0.2507  0.6087  0.0598
  100OSM    HNF10006   5.196  -0.169  10.385  1.1340  1.2728 -1.5569
  100OSM    C2S10007   5.299  -0.009  10.472  0.1625 -0.5500 -0.7337
  100OSM    H2S10008   5.317   0.081  10.410 -0.3243  1.1220  1.4530
  100OSM    C3S10009   5.431  -0.097  10.474  0.7104  0.1674  0.0900
  100OSM    H3S10010   5.413  -0.199  10.515  0.8417 -0.3823 -1.1761
  100OSM     O310011   5.530  -0.043  10.559 -0.6033 -0.1053  0.3757
  100OSM    HO310012   5.500   0.046  10.577  0.2643  0.6683 -1.6763
  100OSM    C4S10013   5.476  -0.117  10.339 -0.5915 -0.9059 -0.7453
  100OSM    H4S10014   5.424  -0.200  10.288 -2.4464  1.4541 -2.9565
  100OSM    C5S10015   5.567  -0.030  10.275  0.3726  0.5097  0.3697
  100OSM    H5S10016   5.617   0.039  10.344  0.5399  1.3234 -0.5515
  100OSM    C6S10017   5.621  -0.043  10.137  0.1772  0.6851 -0.5462
  100OSM    H6S10018   5.731  -0.057  10.138  0.1805 -0.0093  3.3554
  100OSM    H6T10019   5.602   0.054  10.086 -0.2524  0.3442 -1.0464
  100OSM    C7S10020   5.560  -0.165  10.063 -0.0750 -0.0189 -0.8386
  100OSM    H7S10021   5.450  -0.173  10.062 -0.0040 -1.1833 -0.4678
  100OSM    H7T10022   5.600  -0.259  10.108  0.9844  0.2486 -1.1794
  100OSM    C8S10023   5.625  -0.164   9.922 -0.7574 -0.4667  0.3259
  100OSM    H8S10024   5.726  -0.206   9.942 -1.3369 -1.3016  1.6513
  100OSM    H8T10025   5.630  -0.062   9.879 -1.6007 -0.1152  1.0424
  100OSM    C9S10026   5.559  -0.257   9.823 -0.6807 -0.1630  0.7784
  100OSM    H9S10027   5.451  -0.232   9.831 -0.5827  0.4244  0.2662
  100OSM    H9T10028   5.584  -0.361   9.854  1.7176 -0.0359 -0.4886
  100OSM   C10S10029   5.615  -0.238   9.677  0.4266 -0.2415  0.1450
  100OSM   H10S10030   5.725  -0.250   9.687  0.3118 -1.1049  0.5210
  100OSM   H10T10031   5.593  -0.133   9.647  2.5123  0.1773 -0.0721
  100OSM   C11S10032   5.566  -0.335   9.574  0.0581 -0.0489  0.2773
  100OSM   H11S10033   5.455  -0.340   9.570 -0.1988  2.1026  2.2660
  100OSM   H11T10034   5.617  -0.433   9.583 -1.0730 -0.7449 -0.6223
  100OSM   C12S10035   5.595  -0.288   9.428  0.8551 -0.9535 -0.1389
  100OSM   H12S10036   5.701  -0.285   9.394  0.1162  2.6648 -2.6930
  100OSM   H12T10037   5.562  -0.182   9.421  1.1653 -0.5438  2.9863
  100OSM   C13S10038   5.514  -0.360   9.321  0.0557  0.5925  0.1858
  100OSM   H13S10039   5.406  -0.345   9.340 -0.6163 -3.1882  0.1819
  100OSM   H13T10040   5.535  -0.469   9.329  2.1623  0.9294 -0.1066
  100OSM   C14S10041   5.556  -0.306   9.181 -0.0559 -0.4885  0.3273
  100OSM   H14S10042   5.665  -0.328   9.169  0.1781  0.4993  0.5177
  100OSM   H14T10043   5.560  -0.196   9.196 -3.4202 -0.3318  0.8328
  100OSM   C15S10044   5.466  -0.326   9.065  0.0387 -0.4908 -0.2474
  100OSM   H15S10045   5.388  -0.247   9.072  2.1750  1.5766  1.6449
  100OSM   H15T10046   5.411  -0.423   9.066 -2.2319  0.4217 -5.5877
  100OSM   C16S10047   5.528  -0.309   8.921 -0.1450 -0.3814  0.0552
  100OSM   H16S10048   5.595  -0.221   8.915 -1.0146  0.3856  1.2131
  100OSM   H16T10049   5.440  -0.292   8.856 -0.0534 -2.0969 -0.5596
  100OSM   C17S10050   5.599  -0.434   8.861  0.0205 -0.2822 -0.0013
  100OSM   H17S10051   5.642  -0.396   8.766 -1.4166  1.6929  0.0807
  100OSM   H17T10052   5.529  -0.517   8.836 -0.5198  0.1589  0.0209
  100OSM   C18S10053   5.713  -0.484   8.946 -0.1477  0.0770  0.3057
  100OSM   H18S10054   5.676  -0.530   9.040  1.9427 -0.6653  0.8215
  100OSM   H18T10055   5.793  -0.408   8.960  0.9134 -0.4397 -2.2863
  100OSM   H18U10056   5.755  -0.568   8.885 -2.1932  1.3531 -3.1639
  100OSM    C1F10057   5.062  -0.017  10.404 -0.2878 -0.0062  0.3923
  100OSM     OF10058   5.056   0.107  10.422  0.3513 -0.3635 -0.2031
  100OSM    C2F10059   4.944  -0.110  10.377  0.5149  0.6584 -0.9636
  100OSM    H2F10060   4.895  -0.138  10.473 -0.1996 -1.1830 -1.8013
  100OSM    H2G10061   4.967  -0.206  10.325 -2.4168 -1.0788  0.6162
  100OSM    C3F10062   4.835  -0.052  10.277  0.2229  0.4004 -0.2613
  100OSM    H3F10063   4.807   0.053  10.301 -0.7736  0.1199 -0.1764
  100OSM    H3G10064   4.738  -0.107  10.276 -0.0000  0.7948 -0.4083
  100OSM    C4F10065   4.881  -0.043  10.133  0.0996  0.4658 -0.6353
  100OSM    H4F10066   4.909  -0.141  10.089 -0.3634 -0.3334  0.7822
  100OSM    H4G10067   4.977   0.011  10.128  0.1431  0.6595  1.4165
  100OSM    C5F10068   4.764   0.008  10.039 -0.3524 -0.2024  0.6462
  100OSM    H5F10069   4.768   0.116  10.066  0.2499  0.9348 -3.3258
  100OSM    H5G10070   4.670  -0.047  10.058  0.3992 -2.2026 -1.0388
  100OSM    C6F10071   4.782   0.010   9.886  0.1725 -0.5051  0.0081
  100OSM    H6F10072   4.774  -0.096   9.854  1.5786 -0.2566 -1.2375
  100OSM    H6G10073   4.885   0.044   9.864  0.6793 -1.4342  0.8309
  100OSM    C7F10074   4.674   0.083   9.811 -0.4520 -0.3888 -0.1664
  100OSM    H7F10075   4.604   0.138   9.878 -1.9526 -0.8637 -1.2851
  100OSM    H7G10076   4.607   0.003   9.771 -2.0797  1.0864 -0.5000
  100OSM    C8F10077   4.732   0.167   9.695 -0.0420  0.2810  0.2370
  100OSM    H8F10078   4.810   0.115   9.636 -1.4548  0.5157 -1.9302
  100OSM    H8G10079   4.785   0.259   9.727  2.1508 -0.6864 -0.4300
  100OSM    C9F10080   4.603   0.209   9.624 -0.0745 -0.8016  0.4022
  100OSM    H9F10081   4.550   0.289   9.676 -0.0029 -0.2881 -0.2993
  100OSM   C10F10082   4.555   0.173   9.504  0.3461  0.0658  0.4980
  100OSM   H10F10083   4.461   0.215   9.464  0.5209  2.3281  2.2661
  100OSM   C11F10084   4.609   0.051   9.422 -0.6968 -0.3784  0.1980
  100OSM   H11F10085   4.590  -0.052   9.459  1.3320 -0.0229  2.5293
  100OSM   H11G10086   4.719   0.068   9.411 -1.1789  2.0726 -1.5763
  100OSM   C12F10087   4.559   0.053   9.279  0.0241 -0.8280  0.7460
  100OSM   H12F10088   4.579   0.158   9.248  0.2441 -0.4809  1.9999
  100OSM   H12G10089   4.449   0.034   9.281  0.0220 -1.2510 -1.3797
  100OSM   C13F10090   4.635  -0.027   9.171  0.3699  0.4634 -0.4941
  100OSM   H13F10091   4.583  -0.023   9.073 -1.7031  0.5201  0.5475
  100OSM   H13G10092   4.626  -0.134   9.201 -2.1979  0.9236  0.6846
  100OSM   C14F10093   4.776   0.019   9.148 -0.3937 -0.2097  0.4141
  100OSM   H14F10094   4.826   0.030   9.246 -2.5465  0.1481  1.5186
  100OSM   H14G10095   4.777   0.123   9.109  0.1131 -1.4206 -3.1785
  100OSM   C15F10096   4.883  -0.064   9.063 -0.2063  0.6891  0.1873
  100OSM   H15F10097   4.981  -0.012   9.060  0.2137 -0.0976  0.0880
  100OSM   H15G10098   4.841  -0.077   8.961 -0.7308 -4.0990  0.7815
  100OSM   C16F10099   4.907  -0.202   9.131 -0.3252  0.2355 -0.3137
  100OSM   H16F10100   4.813  -0.257   9.156  0.5157 -1.5630 -0.8880
  100OSM   H16G10101   4.956  -0.176   9.227 -1.0411  0.9481 -0.1290
  100OSM   C17F10102   5.006  -0.292   9.064 -0.4776  0.0755  0.1510
  100OSM   H17F10103   5.028  -0.386   9.119 -1.1732 -0.2234 -0.0564
  100OSM   H17G10104   5.102  -0.241   9.043 -1.3611  0.8590 -2.3518
  100OSM   C18F10105   4.959  -0.353   8.932 -0.3953 -0.0372  0.7313
  100OSM   H18F10106   4.898  -0.288   8.865  2.0447  1.0285 -0.5708
  100OSM   H18G10107   4.912  -0.451   8.956  4.0109 -2.3648  0.9134
  100OSM   H18H10108   5.051  -0.367   8.871 -1.0309  1.0010 -0.5329
  101OSM      N10109   1.190   1.195  10.745  0.4514 -0.4480  0.4172
  101OSM    C1510110   1.135   1.330  10.782 -0.0551  0.2192 -0.6480
  101OSM   H15A10111   1.045   1.316  10.839  0.0586  0.3048 -0.4468
  101OSM   H15B10112   1.104   1.388  10.696 -0.8288  0.9438  0.1122
  101OSM   H15C10113   1.204   1.377  10.851  2.2564  0.2155 -2.8080
  101OSM    C1410114   1.314   1.201  10.658  0.0017  0.2841 -0.9611
  101OSM   H14A10115   1.281   1.249  10.567  0.1736  1.2170 -0.5415
  101OSM   H14B10116   1.348   1.099  10.648 -0.8282  0.0506 -1.5249
  101OSM   H14C10117   1.386   1.267  10.704  0.0480 -1.0313  0.9542
  101OSM    C1310118   1.233   1.131  10.874 -0.1642  0.3075 -0.5143
  101OSM   H13A10119   1.255   1.029  10.847 -1.8801  0.1114 -1.3092
  101OSM   H13B10120   1.160   1.138  10.953  0.8276 -0.9116  0.5534
  101OSM   H13C10121   1.329   1.167  10.907  1.0556 -0.7691 -2.6541
  101OSM    C1210122   1.085   1.112  10.679 -0.1271 -0.0332  0.5224
  101OSM   H12A10123   1.040   1.163  10.595 -3.2072 -1.5375  1.0963
  101OSM   H12B10124   0.996   1.107  10.740 -0.0398  0.5999  0.7016
  101OSM    C1110125   1.125   0.974  10.622  0.2085  0.3816  0.2079
  101OSM   H11A10126   1.202   0.986  10.542  0.1460  0.4244  0.1533
  101OSM   H11B10127   1.034   0.933  10.573  0.2028  0.0443  0.5028
  101OSM      P10128   1.178   0.738  10.718  0.0881  0.8068 -0.0716
  101OSM    O1310129   1.287   0.690  10.808 -0.1673 -0.1158  0.2166
  101OSM    O1410130   1.045   0.681  10.753  0.4978 -0.3435 -0.3790
  101OSM    O1110131   1.209   0.695  10.573  0.5608  0.0434 -0.7068
  101OSM    O1210132   1.174   0.889  10.724  0.4156  0.2289  0.2986
  101OSM    C1S10133   1.322   0.720  10.494  0.4119  0.0990 -0.0109
  101OSM    H1S10134   1.406   0.657  10.530  0.2794  0.3149  0.7027
  101OSM    H1T10135   1.355   0.826  10.504  1.5188  0.0506 -2.5044
  101OSM     NF10136   1.402   0.720  10.262 -0.3887 -0.2883  0.6217
  101OSM    HNF10137   1.396   0.775  10.178 -1.2941  1.0490  1.5124
  101OSM    C2S10138   1.286   0.689  10.349 -0.1099 -0.0184 -0.3263
  101OSM    H2S10139   1.255   0.584  10.334  0.3377  0.2436 -4.1289
  101OSM    C3S10140   1.155   0.761  10.291  0.0890  0.0809  0.0239
  101OSM    H3S10141   1.167   0.870  10.313 -0.6187  0.0481  0.6134
  101OSM     O310142   1.036   0.724  10.365  0.5965 -0.4515 -0.2739
  101OSM    HO310143   1.065   0.694  10.451 -0.0640 -1.2294 -0.3095
  101OSM    C4S10144   1.138   0.737  10.147  0.4576  0.0415 -0.0740
  101OSM    H4S10145   1.174   0.822  10.087  1.8508 -1.7011 -1.8671
  101OSM    C5S10146   1.090   0.618  10.093 -0.5731 -0.6384  0.3069
  101OSM    H5S10147   1.075   0.535  10.164  2.5642  1.0436  3.2215
  101OSM    C6S10148   1.077   0.600   9.943  0.3271  0.0323 -0.0910
  101OSM    H6S10149   0.982   0.545   9.927  0.2632 -0.0276  0.4875
  101OSM    H6T10150   1.150   0.522   9.915 -0.0333 -1.3625  2.5655
  101OSM    C7S10151   1.088   0.722   9.850  0.1669 -0.1697 -1.0066
  101OSM    H7S10152   1.185   0.775   9.858  0.2625 -0.4431 -0.2830
  101OSM    H7T10153   1.013   0.793   9.892  0.4927  1.5276 -3.1333
  101OSM    C8S10154   1.076   0.688   9.698 -0.0736  0.4932 -0.2107
  101OSM    H8S10155   0.973   0.653   9.672 -0.0111  0.6893 -0.7537
  101OSM    H8T10156   1.156   0.613   9.681  0.1015  0.6321 -0.0009
  101OSM    C9S10157   1.101   0.802   9.605  1.0905 -0.8456 -0.7166
  101OSM    H9S10158   1.209   0.826   9.614  0.8443 -0.1856  0.7568
  101OSM    H9T10159   1.045   0.890   9.642  1.8584 -0.1945 -1.0661
  101OSM   C10S10160   1.063   0.779   9.466  0.0484  0.4068  0.4933
  101OSM   H10S10161   0.962   0.734   9.461  0.6269 -0.8282 -0.5912
  101OSM   H10T10162   1.135   0.707   9.423 -0.3553  0.5262 -0.4285
  101OSM   C11S10163   1.058   0.901   9.359 -0.2294  0.0507 -0.3801
  101OSM   H11S10164   0.984   0.972   9.400 -0.1387 -0.5088  0.7817
  101OSM   H11T10165   1.019   0.862   9.262  0.0276 -0.9775 -0.0803
  101OSM   C12S10166   1.192   0.981   9.346  0.3261 -0.5804  0.5547
  101OSM   H12S10167   1.233   1.001   9.447  1.2615  1.3888 -0.1547
  101OSM   H12T10168   1.160   1.079   9.304 -0.7391 -1.8082 -1.7069
  101OSM   C13S10169   1.290   0.915   9.242 -0.1611 -0.0053 -0.8352
  101OSM   H13S10170   1.236   0.869   9.157  1.3039  0.0888 -1.8555
  101OSM   H13T10171   1.336   0.827   9.292 -0.0273  0.6107  0.1594
  101OSM   C14S10172   1.401   1.006   9.192 -0.3520 -0.3120  0.1869
  101OSM   H14S10173   1.486   0.942   9.162  0.2768 -0.2570  1.7663
  101OSM   H14T10174   1.436   1.085   9.262 -0.1545  0.2193 -0.5022
  101OSM   C15S10175   1.361   1.083   9.067 -0.0509  0.1413  0.1225
  101OSM   H15S10176   1.454   1.127   9.025 -0.7882  1.2200 -0.3928
  101OSM   H15T10177   1.294   1.165   9.100  2.1402  1.7217  0.8894
  101OSM   C16S10178   1.300   1.002   8.950  0.2878  0.5752  0.1737
  101OSM   H16S10179   1.204   0.957   8.983  0.2339  1.7471  1.7917
  101OSM   H16T10180   1.371   0.918   8.940  0.5758  0.9591 -1.1726
  101OSM   C17S10181   1.290   1.087   8.820  0.0995 -0.1671  0.5634
  101OSM   H17S10182   1.257   1.021   8.736 -1.5980  2.4332 -0.9580
  101OSM   H17T10183   1.394   1.109   8.788 -0.2265 -0.5845 -0.8660
  101OSM   C18S10184   1.202   1.207   8.821 -0.2261  0.3717  0.4494
  101OSM   H18S10185   1.097   1.178   8.841  0.0242 -0.0848  1.1302
  101OSM   H18T10186   1.189   1.249   8.719  0.6196  0.2389  0.2797
  101OSM   H18U10187   1.243   1.273   8.900  1.0821 -1.2657  1.2298
  101OSM    C1F10188   1.525   0.667  10.267 -0.2995  0.3460  0.0793
  101OSM     OF10189   1.550   0.587  10.360 -0.1031  0.2737 -0.0097
  101OSM    C2F10190   1.621   0.693  10.156  0.2249  0.3435 -0.3078
  101OSM    H2F10191   1.569   0.694  10.057 -1.5795 -2.2262  0.5084
  101OSM    H2G10192   1.689   0.605  10.164  0.0193  0.0805 -1.2423
  101OSM    C3F10193   1.694   0.828  10.174  0.1421  0.3886 -0.8886
  101OSM    H3F10194   1.734   0.856  10.274 -0.8468  2.1315 -0.9314
  101OSM    H3G10195   1.627   0.916  10.162  1.6662  1.6948 -0.1493
  101OSM    C4F10196   1.808   0.848  10.067  0.4042  0.3309  0.5421
  101OSM    H4F10197   1.864   0.941  10.091  2.4531 -0.2368 -1.6774
  101OSM    H4G10198   1.765   0.869   9.966 -2.4513 -0.7178  1.4480
  101OSM    C5F10199   1.921   0.747  10.058  0.4273 -0.2347 -0.5990
  101OSM    H5F10200   1.870   0.650  10.039 -1.3830  0.5217  0.1340
  101OSM    H5G10201   1.982   0.753  10.150  0.0722  2.6589 -0.4395
  101OSM    C6F10202   2.017   0.779   9.946 -0.1502 -0.1684  0.0879
  101OSM    H6F10203   2.060   0.881   9.944  0.9684 -0.6312 -1.1589
  101OSM    H6G10204   2.094   0.699   9.955  1.9248  1.7591  0.1530
  101OSM    C7F10205   1.955   0.765   9.806  0.5664 -0.2293 -0.4803
  101OSM    H7F10206   1.880   0.846   9.791  1.5796  0.7075 -0.5449
  101OSM    H7G10207   1.895   0.671   9.801 -0.1198  0.0831  1.0264
  101OSM    C8F10208   2.062   0.771   9.701 -0.1621  0.2630 -0.4558
  101OSM    H8F10209   2.108   0.670   9.699 -2.5683 -0.9142 -0.3835
  101OSM    H8G10210   2.141   0.844   9.729  1.5764 -0.0129 -4.0591
  101OSM    C9F10211   2.011   0.797   9.565 -0.3632  0.4180 -0.1600
  101OSM    H9F10212   1.947   0.886   9.557 -2.1370 -0.9492 -2.3376
  101OSM   C10F10213   2.052   0.728   9.454  0.8633 -0.2226  0.0745
  101OSM   H10F10214   2.016   0.767   9.357  2.8843 -2.3016 -1.6492
  101OSM   C11F10215   2.147   0.616   9.434  0.3578 -0.1363 -0.4291
  101OSM   H11F10216   2.190   0.582   9.530 -0.3275 -1.2135 -0.4952
  101OSM   H11G10217   2.227   0.669   9.378 -1.4025  2.5835 -0.5451
  101OSM   C12F10218   2.086   0.501   9.355  0.5698 -0.5419 -0.5108
  101OSM   H12F10219   1.984   0.466   9.380  0.4325 -1.4663 -2.2281
  101OSM   H12G10220   2.143   0.407   9.376  0.6585  0.0667  2.4983
  101OSM   C13F10221   2.093   0.502   9.202  0.3527 -0.3707  0.0343
  101OSM   H13F10222   2.163   0.579   9.163  1.0462 -1.5749 -1.1900
  101OSM   H13G10223   1.991   0.520   9.163 -0.5532 -2.6352  1.1739
  101OSM   C14F10224   2.144   0.375   9.131  0.1742  0.0249  0.2533
  101OSM   H14F10225   2.083   0.285   9.152 -1.3911  0.5787 -1.5794
  101OSM   H14G10226   2.248   0.370   9.171  0.3272 -0.8192 -0.2277
  101OSM   C15F10227   2.145   0.379   8.973 -0.2269 -0.2707 -0.6338
  101OSM   H15F10228   2.154   0.487   8.947 -0.4094 -0.0762  0.0794
  101OSM   H15G10229   2.046   0.338   8.946 -0.6537  0.7894 -0.7256
  101OSM   C16F10230   2.268   0.307   8.904  0.4013 -0.0655 -0.4169
  101OSM   H16F10231   2.253   0.198   8.918  2.2646 -0.2863  0.1086
  101OSM   H16G10232   2.361   0.342   8.955  1.0164  1.7382 -2.5846
  101OSM   C17F10233   2.264   0.349   8.755 -0.8415 -1.0080  0.1840
  101OSM   H17F10234   2.290   0.457   8.756 -1.2237 -0.8959 -0.6630
  101OSM   H17G10235   2.164   0.340   8.708  0.3230 -2.0597 -2.3268
  101OSM   C18F10236   2.366   0.263   8.670  0.1160 -0.1308  0.7180
  101OSM   H18F10237   2.470   0.283   8.705 -0.0103  0.0678  0.9817
  101OSM   H18G10238   2.348   0.279   8.561  0.5926 -2.6197  0.2148
  101OSM   H18H10239   2.346   0.156   8.690 -0.5154 -0.1449  0.0432
  102OSM      N10240   5.412   2.355  10.947 -0.2263  0.8210 -0.0235
  102OSM    C1510241   5.505   2.372  11.062 -0.0162 -0.2408 -0.8859
  102OSM   H15A10242   5.608   2.381  11.035  0.1593 -1.7655 -0.8172
  102OSM   H15B10243   5.508   2.294  11.137 -1.7150  1.8307  1.5453
  102OSM   H15C10244   5.487   2.465  11.114  0.4573  0.8951 -2.6982
  102OSM    C1410245   5.455   2.231  10.871 -0.6254 -0.2125 -0.2331
  102OSM   H14A10246   5.556   2.236  10.832 -1.0889 -1.8669 -1.8176
  102OSM   H14B10247   5.406   2.209  10.777 -0.3966  0.0622 -0.4180
  102OSM   H14C10248   5.452   2.151  10.944  0.7812 -0.7474 -0.7293
  102OSM    C1310249   5.273   2.322  11.006  0.2770 -0.0220 -0.6234
  102OSM   H13A10250   5.236   2.407  11.062  2.0385 -0.2940  1.0991
  102OSM   H13B10251   5.290   2.240  11.074  1.6127  1.5447  1.0448
  102OSM   H13C10252   5.206   2.295  10.926 -0.3949 -0.5277  0.1012
  102OSM    C1210253   5.416   2.473  10.853 -0.4041 -0.1782 -0.8333
  102OSM   H12A10254   5.520   2.499  10.846 -0.4906  0.4402 -0.0072
  102OSM   H12B10255   5.376   2.556  10.909 -0.3220 -1.0859  0.6181
  102OSM    C1110256   5.338   2.462  10.728  0.2857  0.0821 -0.2832
  102OSM   H11A10257   5.380   2.380  10.665 -0.4945  0.0175 -0.7430
  102OSM   H11B10258   5.341   2.565  10.687 -0.5750  0.7386  1.2518
  102OSM      P10259   5.105   2.342  10.676  0.3169  0.2906 -0.1939
  102OSM    O1310260   5.162   2.205  10.680  0.5819  0.0751 -0.1345
  102OSM    O1410261   4.967   2.364  10.721  0.0115  0.0988 -0.5932
  102OSM    O1110262   5.102   2.396  10.524  0.2205  0.4005 -0.3618
  102OSM    O1210263   5.199   2.442  10.753  0.1855  0.0887  0.2145
  102OSM    C1S10264   5.092   2.536  10.509  0.3890  0.2519  0.4031
  102OSM    H1S10265   5.172   2.590  10.564 -0.4238  1.6321  0.2920
  102OSM    H1T10266   4.994   2.579  10.539  0.0315  0.4272 -0.9173
  102OSM     NF10267   5.136   2.716  10.335 -0.3155  0.8722 -0.1087
  102OSM    HNF10268   5.070   2.774  10.287  0.2825  1.3841 -0.3326
  102OSM    C2S10269   5.105   2.576  10.361 -0.3215  0.8895 -0.5883
  102OSM    H2S10270   5.188   2.514  10.320  0.0555  1.6438 -0.9753
  102OSM    C3S10271   4.983   2.529  10.272  0.3741  1.1601 -0.0526
  102OSM    H3S10272   4.893   2.592  10.289 -0.1932  1.8450 -4.5385
  102OSM     O310273   4.942   2.398  10.315 -0.0112  0.1389  0.7025
  102OSM    HO310274   4.996   2.380  10.393 -0.6323 -1.4616  0.8180
  102OSM    C4S10275   5.008   2.541  10.127  0.1893  0.3503  0.6097
  102OSM    H4S10276   4.984   2.643  10.094 -1.3150 -0.1426  0.0918
  102OSM    C5S10277   5.041   2.445  10.036  0.7526  0.5712  0.4484
  102OSM    H5S10278   5.045   2.341  10.070 -1.3783  0.8762  1.8819
  102OSM    C6S10279   5.060   2.467   9.887  0.3307  0.9160 -0.3299
  102OSM    H6S10280   5.170   2.468   9.868  0.7091 -0.2517  1.6101
  102OSM    H6T10281   5.010   2.563   9.861 -0.8050  0.9026  1.6475
  102OSM    C7S10282   4.993   2.367   9.790  0.2645  0.1496 -0.1496
  102OSM    H7S10283   4.885   2.392   9.780  0.1142 -0.2569  0.4183
  102OSM    H7T10284   5.004   2.263   9.829 -1.4918  0.2317  0.6611
  102OSM    C8S10285   5.048   2.383   9.647 -0.4917  0.1674 -0.7771
  102OSM    H8S10286   5.158   2.376   9.659 -0.7220 -1.9775  0.6790
  102OSM    H8T10287   5.019   2.487   9.620 -2.5088 -0.3184 -0.6076
  102OSM    C9S10288   4.982   2.284   9.552 -0.0318  0.0090  0.1693
  102OSM    H9S10289   4.872   2.299   9.550  0.2293  2.5331  1.3566
  102OSM    H9T10290   4.997   2.183   9.596 -0.8980 -0.1330  0.1552
  102OSM   C10S10291   5.038   2.304   9.415  0.2666 -0.6757  0.6470
  102OSM   H10S10292   5.147   2.290   9.399 -0.3324 -1.4974 -4.0491
  102OSM   H10T10293   5.027   2.413   9.398  0.5730 -0.7686 -0.1970
  102OSM   C11S10294   4.980   2.220   9.301 -0.3816  0.5103 -0.0550
  102OSM   H11S10295   4.872   2.245   9.293 -0.5499  0.1020  0.8322
  102OSM   H11T10296   4.974   2.113   9.330 -1.9932  0.8422  0.9626
  102OSM   C12S10297   5.052   2.237   9.171  0.3034 -0.1756  0.0145
  102OSM   H12S10298   5.159   2.206   9.175 -0.2937 -2.4483 -0.0682
  102OSM   H12T10299   5.058   2.346   9.151  5.2827 -0.0681  0.7584
  102OSM   C13S10300   4.989   2.159   9.064  0.4519 -0.7057  0.4459
  102OSM   H13S10301   4.880   2.178   9.080 -0.0392 -2.2913 -0.6952
  102OSM   H13T10302   5.006   2.050   9.081 -0.5833 -0.6938  1.7646
  102OSM   C14S10303   5.036   2.202   8.925  0.2380 -0.0663 -0.2447
  102OSM   H14S10304   5.142   2.176   8.907  0.4854  1.3695 -1.0319
  102OSM   H14T10305   5.020   2.312   8.926 -0.7545 -0.1936  1.2700
  102OSM   C15S10306   4.947   2.135   8.818  0.6122 -0.8820 -0.4258
  102OSM   H15S10307   4.984   2.167   8.718 -1.3374  2.0093 -0.3502
  102OSM   H15T10308   4.839   2.160   8.830  0.6246 -0.4000 -1.2540
  102OSM   C16S10309   4.954   1.983   8.820  0.2510 -0.4199  0.4658
  102OSM   H16S10310   4.921   1.953   8.922  2.4588 -0.0378  1.3431
  102OSM   H16T10311   5.056   1.939   8.807  0.6793 -0.0515  2.2409
  102OSM   C17S10312   4.863   1.914   8.716  0.6119 -0.3212  0.5379
  102OSM   H17S10313   4.761   1.957   8.728  0.5932 -0.9115  2.8141
  102OSM   H17T10314   4.846   1.807   8.743 -0.9864 -0.0314  0.7722
  102OSM   C18S10315   4.910   1.928   8.568 -0.0082 -0.1430  0.3552
  102OSM   H18S10316   4.856   1.860   8.499 -1.3885 -0.0544  1.3222
  102OSM   H18T10317   5.020   1.914   8.560  0.2656  2.1540 -1.1275
  102OSM   H18U10318   4.884   2.031   8.535 -0.4786 -0.3473  0.0810
  102OSM    C1F10319   5.257   2.762  10.364  0.2137  0.2051  0.3522
  102OSM     OF10320   5.347   2.683  10.384 -0.1765 -0.2402  0.5507
  102OSM    C2F10321   5.287   2.903  10.367 -0.0138  0.1048  0.5615
  102OSM    H2F10322   5.396   2.926  10.375 -0.0712  0.8949 -0.6192
  102OSM    H2G10323   5.232   2.953  10.449 -0.9389 -0.1046  0.0774
  102OSM    C3F10324   5.227   2.961  10.233  0.4111  0.0316 -0.5156
  102OSM    H3F10325   5.263   3.065  10.226  1.3572 -0.3267 -1.1860
  102OSM    H3G10326   5.116   2.958  10.244  0.5809  1.0385  2.2996
  102OSM    C4F10327   5.273   2.897  10.100 -0.0768  0.0407  0.7622
  102OSM    H4F10328   5.260   2.787  10.098  0.0466  0.0303  0.4350
  102OSM    H4G10329   5.381   2.921  10.084 -0.6575  0.7748 -2.9435
  102OSM    C5F10330   5.205   2.955   9.976  0.2006 -0.0130 -0.2207
  102OSM    H5F10331   5.257   3.049   9.946 -1.0881  0.7146 -0.2606
  102OSM    H5G10332   5.100   2.987   9.991 -0.3032 -0.5480 -2.3025
  102OSM    C6F10333   5.190   2.870   9.844 -0.0937 -0.0252  0.0273
  102OSM    H6F10334   5.128   2.920   9.767  0.8117 -2.0812 -2.1474
  102OSM    H6G10335   5.149   2.772   9.876 -1.2306  0.8287  1.3250
  102OSM    C7F10336   5.316   2.851   9.768 -0.4680  0.2466 -0.5664
  102OSM    H7F10337   5.392   2.804   9.834  3.6558  1.4750 -3.9667
  102OSM    H7G10338   5.363   2.945   9.732  0.7146  0.2055  0.7679
  102OSM    C8F10339   5.297   2.752   9.651  0.2453  0.5414  0.1904
  102OSM    H8F10340   5.229   2.667   9.672  0.5587  0.1425 -0.4031
  102OSM    H8G10341   5.385   2.699   9.610  0.0434 -1.0633  1.7410
  102OSM    C9F10342   5.239   2.842   9.539  0.0577  0.4615 -0.2098
  102OSM    H9F10343   5.198   2.944   9.542 -2.3561 -0.3939 -1.2687
  102OSM   C10F10344   5.200   2.787   9.423  0.1779  0.7389  0.2865
  102OSM   H10F10345   5.160   2.853   9.344 -1.0155 -1.8588 -1.4119
  102OSM   C11F10346   5.194   2.642   9.392 -0.5581 -0.4224 -0.0100
  102OSM   H11F10347   5.092   2.611   9.422 -0.3066  0.4428  1.9096
  102OSM   H11G10348   5.272   2.583   9.446  0.5311  0.0187 -1.0565
  102OSM   C12F10349   5.233   2.603   9.251  0.8720 -0.7146 -0.0051
  102OSM   H12F10350   5.171   2.663   9.182 -2.1079 -0.0926  2.9447
  102OSM   H12G10351   5.204   2.496   9.238  2.5842 -1.2618  0.4536
  102OSM   C13F10352   5.381   2.601   9.219 -0.0618  0.0590  0.3012
  102OSM   H13F10353   5.441   2.543   9.291 -0.9299 -0.9178  0.2577
  102OSM   H13G10354   5.416   2.706   9.213  0.1201  0.0276  0.7556
  102OSM   C14F10355   5.403   2.539   9.081 -0.0698 -0.2945 -0.5609
  102OSM   H14F10356   5.359   2.594   8.995  0.8991 -0.2393 -1.0494
  102OSM   H14G10357   5.365   2.435   9.092  0.0967 -0.2161  0.8514
  102OSM   C15F10358   5.553   2.533   9.039  0.0973  0.2812 -0.1423
  102OSM   H15F10359   5.608   2.463   9.104 -0.7418 -1.9591 -1.7145
  102OSM   H15G10360   5.596   2.634   9.059 -0.7240  0.6747 -0.2879
  102OSM   C16F10361   5.594   2.488   8.896 -0.0031  0.2390  0.7323
  102OSM   H16F10362   5.684   2.548   8.869 -1.0496  1.4045 -0.2417
  102OSM   H16G10363   5.520   2.523   8.822 -1.8314 -3.0773  0.8529
  102OSM   C17F10364   5.622   2.342   8.888  0.1487  0.5088  0.1746
  102OSM   H17F10365   5.532   2.285   8.917 -0.0918  0.3083 -0.9489
  102OSM   H17G10366   5.703   2.323   8.962 -2.0864  1.1441  2.9464
  102OSM   C18F10367   5.671   2.299   8.746 -0.0512  0.4957  1.0986
  102OSM   H18F10368   5.766   2.352   8.720  0.2975 -1.1539 -1.2689
  102OSM   H18G10369   5.585   2.316   8.678  0.1348  2.9490  1.3860
  102OSM   H18H10370   5.696   2.192   8.732 -0.9113  0.6645 -3.2684
  103OSM      N10371   3.350   1.191  10.908 -0.1358  0.1862  0.5621
  103OSM    C1510372   3.411   1.140  11.032 -0.0006 -0.3903  0.7220
  103OSM   H15A10373   3.355   1.055  11.070 -1.2501  1.2311  2.7125
  103OSM   H15B10374   3.405   1.200  11.121 -2.2008 -1.9760  1.7269
  103OSM   H15C10375   3.512   1.106  11.015 -0.9922 -2.1503 -2.6326
  103OSM    C1410376   3.200   1.210  10.930  0.1716  0.3901  0.1989
  103OSM   H14A10377   3.182   1.275  11.015  0.1862 -1.2144  1.4899
  103OSM   H14B10378   3.150   1.118  10.959  0.9504  0.8599  3.4591
  103OSM   H14C10379   3.154   1.258  10.845  1.7479 -0.0134 -0.9277
  103OSM    C1310380   3.403   1.328  10.886 -0.6049  0.2674  0.5626
  103OSM   H13A10381   3.402   1.396  10.970 -0.7535  0.7814  0.1555
  103OSM   H13B10382   3.362   1.382  10.802 -0.1760  0.8869  0.7452
  103OSM   H13C10383   3.508   1.319  10.862 -1.0141 -1.1589 -0.8455
  103OSM    C1210384   3.379   1.098  10.792 -0.3873  0.1462 -0.1577
  103OSM   H12A10385   3.343   1.150  10.704 -0.1408  0.1808 -0.2387
  103OSM   H12B10386   3.321   1.009  10.813 -1.1411  1.0989  2.1435
  103OSM    C1110387   3.525   1.058  10.757 -0.0771 -0.4398  0.4008
  103OSM   H11A10388   3.588   1.150  10.755 -0.3344 -0.2750 -1.0808
  103OSM   H11B10389   3.518   1.013  10.655  0.8764  0.1832  0.0433
  103OSM      P10390   3.724   0.901  10.826  0.7524 -0.1445  0.3114
  103OSM    O1310391   3.828   1.000  10.801  0.2222 -0.8390 -0.1627
  103OSM    O1410392   3.749   0.808  10.941  0.5203 -0.4086  0.5244
  103OSM    O1110393   3.696   0.818  10.699 -0.0794  0.2805  0.2382
  103OSM    O1210394   3.582   0.972  10.848  0.6960  0.0870  0.0198
  103OSM    C1S10395   3.628   0.697  10.723  0.5502 -0.1445 -0.6970
  103OSM    H1S10396   3.521   0.716  10.743  0.1576 -0.6954 -2.1545
  103OSM    H1T10397   3.664   0.643  10.813 -0.5339 -0.0930 -0.2190
  103OSM     NF10398   3.589   0.475  10.630 -0.0224  0.3966 -0.7549
  103OSM    HNF10399   3.659   0.405  10.638 -0.7262 -0.3052 -0.5988
  103OSM    C2S10400   3.635   0.608  10.597  0.4566  0.3402  0.4683
  103OSM    H2S10401   3.565   0.663  10.531 -1.3199  0.3476  2.2809
  103OSM    C3S10402   3.771   0.603  10.527 -0.9924  0.1281  0.3555
  103OSM    H3S10403   3.840   0.550  10.596 -2.1714  1.4279  2.6518
  103OSM     O310404   3.823   0.732  10.496  0.0826  0.5794 -0.1963
  103OSM    HO310405   3.772   0.787  10.556  0.2376  1.3105 -0.7198
  103OSM    C4S10406   3.758   0.515  10.403 -0.6161 -0.0756  0.1864
  103OSM    H4S10407   3.775   0.410  10.429 -0.7714  0.1467  1.2636
  103OSM    C5S10408   3.734   0.552  10.278  0.3745  0.5090  0.2045
  103OSM    H5S10409   3.734   0.659  10.255 -0.7144  0.3694 -0.5293
  103OSM    C6S10410   3.709   0.457  10.167 -0.1814  0.7486 -0.5269
  103OSM    H6S10411   3.605   0.460  10.129  0.1675 -1.7204 -1.8959
  103OSM    H6T10412   3.738   0.352  10.187 -0.3199  0.2836 -2.5226
  103OSM    C7S10413   3.800   0.494  10.048 -0.2348  0.7764  0.6031
  103OSM    H7S10414   3.906   0.499  10.079 -0.0074 -0.5918  0.1254
  103OSM    H7T10415   3.778   0.592  10.000  1.2686  0.3186 -1.1486
  103OSM    C8S10416   3.781   0.384   9.935 -1.1049  0.8663  0.3350
  103OSM    H8S10417   3.674   0.357   9.922 -0.9200  0.6918 -0.9535
  103OSM    H8T10418   3.828   0.294   9.980  0.1915  1.9793  1.2869
  103OSM    C9S10419   3.848   0.406   9.799 -0.7932  0.7763 -0.1635
  103OSM    H9S10420   3.791   0.480   9.738 -1.9798  0.1649  0.1611
  103OSM    H9T10421   3.848   0.306   9.751 -2.3564  0.4093  0.5102
  103OSM   C10S10422   3.990   0.451   9.800 -0.3848 -0.4885  0.1319
  103OSM   H10S10423   4.038   0.390   9.880  0.8974 -0.2492 -0.4330
  103OSM   H10T10424   3.982   0.555   9.837  0.8512  0.1305 -1.2525
  103OSM   C11S10425   4.063   0.431   9.670 -0.4239  0.3961 -0.2088
  103OSM   H11S10426   4.026   0.492   9.584 -0.2060 -0.4017 -0.8808
  103OSM   H11T10427   4.053   0.325   9.640 -4.0018  0.2896  0.8648
  103OSM   C12S10428   4.211   0.469   9.671  0.6516 -0.3033  0.0455
  103OSM   H12S10429   4.240   0.425   9.769  1.5888  1.0285  0.3978
  103OSM   H12T10430   4.223   0.579   9.677  2.7140 -0.4371 -0.8016
  103OSM   C13S10431   4.296   0.410   9.551  0.2927 -0.3707  0.2737
  103OSM   H13S10432   4.288   0.299   9.545 -1.7303 -0.3002  0.9694
  103OSM   H13T10433   4.399   0.437   9.582  0.7270 -1.1157 -0.4758
  103OSM   C14S10434   4.268   0.485   9.413 -0.5168 -0.2542  0.3615
  103OSM   H14S10435   4.307   0.588   9.419 -0.2995 -0.4370  4.3805
  103OSM   H14T10436   4.158   0.493   9.401 -0.6375 -1.9853 -0.0121
  103OSM   C15S10437   4.332   0.397   9.305 -0.5551 -0.3346 -0.2369
  103OSM   H15S10438   4.302   0.291   9.318  1.3964 -0.8666  0.3488
  103OSM   H15T10439   4.441   0.385   9.325 -1.0119 -1.3931  1.8852
  103OSM   C16S10440   4.312   0.451   9.159 -0.2834 -0.1474  0.8998
  103OSM   H16S10441   4.382   0.396   9.093 -1.0077  0.4627 -0.4055
  103OSM   H16T10442   4.341   0.558   9.147  1.3960 -0.6063  0.6221
  103OSM   C17S10443   4.178   0.425   9.095 -0.1189 -0.1666  0.4358
  103OSM   H17S10444   4.094   0.474   9.149 -0.4072  0.6934 -0.7715
  103OSM   H17T10445   4.141   0.322   9.116  3.4678 -1.1422  3.0046
  103OSM   C18S10446   4.177   0.450   8.945 -0.1669 -0.0142  1.4388
  103OSM   H18S10447   4.230   0.363   8.900  2.1482  2.3303 -0.6983
  103OSM   H18T10448   4.223   0.545   8.911 -0.8621  0.6908  2.4243
  103OSM   H18U10449   4.075   0.449   8.903  0.8104  0.1312 -1.1295
  103OSM    C1F10450   3.464   0.442  10.667  0.1034 -0.0809 -0.3044
  103OSM     OF10451   3.374   0.523  10.651 -0.2362 -0.1035  0.1684
  103OSM    C2F10452   3.434   0.309  10.724  0.3060 -0.5629  0.1785
  103OSM    H2F10453   3.449   0.329  10.832 -0.2232  1.9549 -0.1516
  103OSM    H2G10454   3.507   0.229  10.698  1.7802  0.0490  2.2061
  103OSM    C3F10455   3.295   0.253  10.693 -0.1209  0.2215  0.6041
  103OSM    H3F10456   3.212   0.321  10.722 -0.1584  0.6324 -0.4377
  103OSM    H3G10457   3.277   0.160  10.752 -0.4059  0.3197  0.6745
  103OSM    C4F10458   3.286   0.218  10.545 -0.8209 -0.6411  0.3084
  103OSM    H4F10459   3.380   0.163  10.522 -0.6599 -0.4103  0.4223
  103OSM    H4G10460   3.291   0.314  10.489  0.5401 -0.5654  0.5251
  103OSM    C5F10461   3.162   0.140  10.511 -0.3164 -0.0488 -0.1689
  103OSM    H5F10462   3.082   0.216  10.522 -0.1525  0.1470 -0.3051
  103OSM    H5G10463   3.142   0.065  10.591  1.0369 -0.9226 -0.6019
  103OSM    C6F10464   3.147   0.058  10.390 -0.2321 -0.0502  0.5947
  103OSM    H6F10465   3.206  -0.036  10.383 -0.9862 -0.6634  2.1510
  103OSM    H6G10466   3.185   0.125  10.310  0.8470  1.0503  1.9665
  103OSM    C7F10467   2.998   0.034  10.346 -0.4196  0.5608  0.1834
  103OSM    H7F10468   2.948   0.133  10.350  0.4909  1.0696 -0.4442
  103OSM    H7G10469   2.953  -0.028  10.426 -1.2084 -0.4667 -1.0172
  103OSM    C8F10470   2.993  -0.027  10.205 -0.4237 -0.0269  0.5997
  103OSM    H8F10471   3.059  -0.116  10.200  1.3379  1.2507  0.0171
  103OSM    H8G10472   3.042   0.049  10.139  2.6891 -1.6389  0.8656
  103OSM    C9F10473   2.856  -0.070  10.154 -0.3395 -0.6636 -1.0790
  103OSM    H9F10474   2.778  -0.079  10.231  0.3620  3.4736  0.3659
  103OSM   C10F10475   2.828  -0.104  10.025 -0.2078 -0.2167  0.8692
  103OSM   H10F10476   2.722  -0.124  10.001 -0.6358  1.7033  0.9844
  103OSM   C11F10477   2.924  -0.102   9.907  0.1060 -0.5356  0.8247
  103OSM   H11F10478   3.025  -0.143   9.928  0.4690 -0.6853 -1.0474
  103OSM   H11G10479   2.955   0.003   9.886  0.8918 -0.4948  2.0794
  103OSM   C12F10480   2.861  -0.158   9.783  0.2239  0.0079 -0.0158
  103OSM   H12F10481   2.770  -0.096   9.768  0.3972  0.6273  1.2884
  103OSM   H12G10482   2.840  -0.267   9.789 -0.0277  0.0113 -0.7236
  103OSM   C13F10483   2.953  -0.135   9.663  0.6285 -0.1096 -0.4931
  103OSM   H13F10484   3.038  -0.206   9.666 -1.1686 -2.4090 -1.0902
  103OSM   H13G10485   2.999  -0.034   9.667 -0.3916  0.3702 -0.5052
  103OSM   C14F10486   2.888  -0.156   9.531 -0.5883 -0.0320 -0.6378
  103OSM   H14F10487   2.785  -0.115   9.528 -0.0814  1.4377  0.6540
  103OSM   H14G10488   2.882  -0.265   9.512  1.3660 -0.1871 -0.6262
  103OSM   C15F10489   2.969  -0.096   9.420  0.2075 -0.2737 -0.4161
  103OSM   H15F10490   3.027  -0.008   9.455  0.0481 -1.3875  2.9785
  103OSM   H15G10491   2.901  -0.059   9.340  0.0272 -3.5763 -1.9822
  103OSM   C16F10492   3.073  -0.189   9.355 -0.4078 -0.1088  0.7481
  103OSM   H16F10493   3.020  -0.284   9.330  0.7508 -0.7521  0.6586
  103OSM   H16G10494   3.164  -0.210   9.416 -0.6845 -1.0799  0.8426
  103OSM   C17F10495   3.132  -0.123   9.231 -0.3470 -0.2449 -0.3386
  103OSM   H17F10496   3.215  -0.182   9.185 -0.8247  0.7166 -2.5975
  103OSM   H17G10497   3.166  -0.020   9.254 -1.3752 -0.1264  0.7575
  103OSM   C18F10498   3.030  -0.117   9.114 -0.1591 -0.5474  0.5917
  103OSM   H18F10499   3.074  -0.068   9.024  0.8493 -1.9289  0.3060
  103OSM   H18G10500   2.933  -0.071   9.144 -0.2571 -0.0819 -0.4061
  103OSM   H18H10501   2.991  -0.214   9.077  0.7809  0.3965 -3.3133
  104OSM      N10502   4.553   5.139  11.054 -0.1314 -0.1976  0.7857
  104OSM    C1510503   4.495   5.250  10.976 -0.1857 -0.2341  0.1760
  104OSM   H15A10504   4.486   5.205  10.878 -0.4752 -1.0417  0.5685
  104OSM   H15B10505   4.565   5.332  10.969 -1.0010  0.5760  1.2080
  104OSM   H15C10506   4.397   5.271  11.016 -0.8480 -0.7169 -1.1190
  104OSM    C1410507   4.532   5.164  11.204  1.2809 -0.1647 -0.9187
  104OSM   H14A10508   4.426   5.170  11.225  1.6547  1.8579  0.7062
  104OSM   H14B10509   4.575   5.258  11.235  2.0330 -0.8675  0.2466
  104OSM   H14C10510   4.567   5.077  11.257 -1.0706 -1.6501 -1.6353
  104OSM    C1310511   4.479   5.018  11.013  0.0995  0.3411  0.0061
  104OSM   H13A10512   4.377   5.038  11.043  0.2726 -0.1053  0.9226
  104OSM   H13B10513   4.499   4.920  11.053 -1.2957 -0.2570 -0.6954
  104OSM   H13C10514   4.477   5.011  10.905 -0.7621  2.8312 -0.1970
  104OSM    C1210515   4.700   5.130  11.005 -0.4068  0.0371 -0.7732
  104OSM   H12A10516   4.760   5.105  11.092 -2.2727  0.0616  0.5820
  104OSM   H12B10517   4.734   5.226  10.971  0.7509 -0.1336 -0.1830
  104OSM    C1110518   4.748   5.037  10.893 -0.0759  0.1648 -0.0578
  104OSM   H11A10519   4.713   4.933  10.909 -2.0638  0.6884 -0.6337
  104OSM   H11B10520   4.859   5.044  10.898 -0.1066 -0.3422  2.6788
  104OSM      P10521   4.756   5.203  10.688 -0.4668  0.2849 -0.2910
  104OSM    O1310522   4.692   5.227  10.557 -0.4132 -0.2853  0.3266
  104OSM    O1410523   4.772   5.318  10.774 -0.0422  0.6666  0.4764
  104OSM    O1110524   4.894   5.130  10.660  0.7399 -0.1448 -0.3624
  104OSM    O1210525   4.683   5.085  10.775  0.0090  0.4938  0.1628
  104OSM    C1S10526   4.895   5.003  10.592  0.0775  0.2012  0.3319
  104OSM    H1S10527   4.806   4.940  10.619  1.6170 -0.4416  4.8807
  104OSM    H1T10528   4.977   4.946  10.640  1.2734  1.9314  0.4255
  104OSM     NF10529   4.931   4.876  10.396 -0.2909 -0.3296 -0.2069
  104OSM    HNF10530   5.023   4.840  10.399  0.5395  1.5041 -1.3388
  104OSM    C2S10531   4.915   5.014  10.443  0.4883  0.0245  1.1630
  104OSM    H2S10532   4.827   5.062  10.395  0.0624 -0.8776  1.0015
  104OSM    C3S10533   5.044   5.092  10.405 -0.1726  0.2213 -0.9654
  104OSM    H3S10534   5.131   5.038  10.447 -2.4307 -2.9024  0.0662
  104OSM     O310535   5.060   5.221  10.465  0.7141 -0.1459 -0.2709
  104OSM    HO310536   4.985   5.229  10.524  0.6356 -1.0913 -0.2187
  104OSM    C4S10537   5.073   5.098  10.255 -0.0291  0.2932  0.2146
  104OSM    H4S10538   5.006   5.159  10.193 -1.0238 -0.5823  0.4057
  104OSM    C5S10539   5.160   5.018  10.180 -0.0827 -0.2371 -0.4531
  104OSM    H5S10540   5.240   4.959  10.226  1.6386  2.6873  0.5326
  104OSM    C6S10541   5.176   5.029  10.031  0.1786  0.2835  0.1072
  104OSM    H6S10542   5.144   4.932   9.987 -1.9019 -0.7424  3.5485
  104OSM    H6T10543   5.283   5.055  10.014  0.6956 -1.3993  0.5754
  104OSM    C7S10544   5.086   5.131   9.956 -0.8488 -0.3065 -0.4047
  104OSM    H7S10545   5.103   5.239   9.973  0.0776 -0.2847 -1.3397
  104OSM    H7T10546   4.977   5.118   9.968 -0.9853 -2.9799 -3.1531
  104OSM    C8S10547   5.110   5.115   9.804  0.3200 -0.0108 -0.0577
  104OSM    H8S10548   5.218   5.112   9.777  0.6412 -1.4843  1.2320
  104OSM    H8T10549   5.078   5.213   9.761  1.5134  0.2742 -0.3233
  104OSM    C9S10550   5.045   5.002   9.724  0.2943  0.0268  0.4709
  104OSM    H9S10551   4.935   5.016   9.732  0.3427  0.6237  0.1510
  104OSM    H9T10552   5.078   4.911   9.778  0.1561 -0.6022 -0.4867
  104OSM   C10S10553   5.079   5.020   9.577 -1.4655 -0.8140 -0.1903
  104OSM   H10S10554   5.190   5.025   9.564 -1.0673 -2.8143  1.7552
  104OSM   H10T10555   5.038   5.114   9.535  0.4705 -0.4862 -1.4659
  104OSM   C11S10556   5.034   4.904   9.490 -0.7113  0.0666  1.0289
  104OSM   H11S10557   4.932   4.865   9.513 -0.6606 -0.5516  0.2480
  104OSM   H11T10558   5.104   4.819   9.508 -2.4083 -1.6835 -0.2132
  104OSM   C12S10559   5.039   4.945   9.340  0.3790  0.7254  0.0402
  104OSM   H12S10560   5.140   4.979   9.306  0.5050 -0.6303 -1.0516
  104OSM   H12T10561   4.962   5.021   9.314 -0.2238  0.2131  0.3176
  104OSM   C13S10562   5.020   4.823   9.253  0.3990 -0.2240 -0.3625
  104OSM   H13S10563   4.946   4.748   9.289  1.9640 -1.8289 -0.3745
  104OSM   H13T10564   5.113   4.765   9.268  1.9429  2.2722  0.2387
  104OSM   C14S10565   4.999   4.857   9.104 -0.0225 -0.4831  0.1510
  104OSM   H14S10566   4.904   4.908   9.078  0.6705  0.4444 -0.6487
  104OSM   H14T10567   5.004   4.761   9.048  0.0448 -0.6699  0.4701
  104OSM   C15S10568   5.118   4.941   9.044  0.7622 -0.3701  0.9201
  104OSM   H15S10569   5.213   4.899   9.083 -0.1464 -2.7668  0.7422
  104OSM   H15T10570   5.106   5.038   9.098 -0.2066 -0.5291  1.0094
  104OSM   C16S10571   5.122   4.959   8.887 -0.3237 -0.0191 -0.1731
  104OSM   H16S10572   5.168   5.057   8.862 -0.0685  0.0119  0.4011
  104OSM   H16T10573   5.015   4.973   8.860 -0.5008  1.7468  1.2270
  104OSM   C17S10574   5.186   4.844   8.807 -0.0272 -0.5947 -0.4478
  104OSM   H17S10575   5.150   4.744   8.839 -0.6465 -0.6294 -1.2387
  104OSM   H17T10576   5.297   4.855   8.806 -0.2754  3.4493  0.0191
  104OSM   C18S10577   5.139   4.843   8.657  0.1601  0.5259  0.9994
  104OSM   H18S10578   5.197   4.919   8.600 -0.7979 -0.0879 -0.8743
  104OSM   H18T10579   5.031   4.866   8.654  0.0150 -0.1279  1.0207
  104OSM   H18U10580   5.171   4.745   8.615  0.8831  0.6924  1.1474
  104OSM    C1F10581   4.820   4.800  10.367  0.0583 -0.7884 -0.6375
  104OSM     OF10582   4.709   4.846  10.400 -0.5043  0.8133  0.5275
  104OSM    C2F10583   4.846   4.662  10.311  0.1942  0.1720 -0.0462
  104OSM    H2F10584   4.786   4.598  10.379 -0.6986 -0.3080 -1.2536
  104OSM    H2G10585   4.954   4.636  10.317  0.5569  0.4531 -3.5772
  104OSM    C3F10586   4.794   4.655  10.165  0.0557  0.1799  0.1422
  104OSM    H3F10587   4.689   4.691  10.165 -0.1324 -0.2767 -1.9002
  104OSM    H3G10588   4.799   4.549  10.130  1.3518  0.3894 -0.3538
  104OSM    C4F10589   4.870   4.748  10.076  0.1913 -0.0458 -0.6268
  104OSM    H4F10590   4.977   4.740  10.102  0.2448 -0.9267 -1.0669
  104OSM    H4G10591   4.831   4.849  10.102 -4.0455 -1.6212  0.0062
  104OSM    C5F10592   4.835   4.739   9.926 -0.0967 -0.1537 -0.1250
  104OSM    H5F10593   4.851   4.839   9.881  1.2832 -0.4648 -0.3478
  104OSM    H5G10594   4.726   4.715   9.933  0.3012 -1.6191  2.0684
  104OSM    C6F10595   4.922   4.639   9.848 -0.0448 -0.6323  0.2009
  104OSM    H6F10596   4.905   4.532   9.872  0.6264 -0.8560 -0.2717
  104OSM    H6G10597   5.030   4.662   9.862  0.0917 -0.6427 -0.7331
  104OSM    C7F10598   4.900   4.657   9.694  0.3665  0.0093 -0.4265
  104OSM    H7F10599   4.937   4.758   9.667 -1.1014  0.1157 -2.2930
  104OSM    H7G10600   4.789   4.659   9.681  0.4450  2.3788 -1.2062
  104OSM    C8F10601   4.942   4.535   9.616 -0.5914  0.3585  0.0908
  104OSM    H8F10602   4.897   4.531   9.515 -2.3740  1.7402  0.7748
  104OSM    H8G10603   4.906   4.446   9.672 -0.7281  0.4161  0.0959
  104OSM    C9F10604   5.088   4.520   9.615  0.3985 -0.3282  0.2089
  104OSM    H9F10605   5.140   4.562   9.702  1.2404 -1.1387  0.1226
  104OSM   C10F10606   5.160   4.454   9.523  0.4186 -0.4377 -0.7028
  104OSM   H10F10607   5.269   4.468   9.529  0.3671 -0.4815  0.6506
  104OSM   C11F10608   5.122   4.377   9.397 -0.2862 -0.1140  0.1006
  104OSM   H11F10609   5.049   4.296   9.422 -0.7556  0.2928  0.0572
  104OSM   H11G10610   5.210   4.312   9.375 -1.5336 -1.4434 -1.2279
  104OSM   C12F10611   5.090   4.460   9.264 -0.1368  0.3494 -0.3968
  104OSM   H12F10612   5.180   4.522   9.242 -0.3928  0.6824 -0.5049
  104OSM   H12G10613   5.004   4.526   9.290 -1.9071 -2.2314  0.6318
  104OSM   C13F10614   5.057   4.370   9.144  0.4468 -0.4427  0.0402
  104OSM   H13F10615   4.955   4.325   9.155  1.3465 -2.8348 -0.7170
  104OSM   H13G10616   5.132   4.291   9.122 -0.8035 -1.1219 -2.0806
  104OSM   C14F10617   5.048   4.463   9.020  0.6074 -0.5687  0.2145
  104OSM   H14F10618   5.149   4.506   9.004  0.0061  0.5068 -0.8743
  104OSM   H14G10619   4.973   4.543   9.042  0.7262 -0.5625  0.5990
  104OSM   C15F10620   5.017   4.381   8.893 -0.0293 -0.6428  0.8075
  104OSM   H15F10621   4.921   4.327   8.907 -1.3687  1.3324 -0.2340
  104OSM   H15G10622   5.098   4.308   8.873 -0.0099  0.2177 -3.0469
  104OSM   C16F10623   5.019   4.478   8.770  0.1315  0.5389 -0.1179
  104OSM   H16F10624   5.126   4.509   8.766  0.0667  0.8163  0.2465
  104OSM   H16G10625   4.956   4.563   8.804 -0.0757 -0.7750  3.1304
  104OSM   C17F10626   4.985   4.414   8.638  0.4142  0.0848  0.0229
  104OSM   H17F10627   5.045   4.321   8.630 -0.6759 -0.6369 -0.1054
  104OSM   H17G10628   5.030   4.469   8.553 -2.5972 -0.0235 -1.7978
  104OSM   C18F10629   4.842   4.373   8.622  0.0855 -0.2585 -0.3895
  104OSM   H18F10630   4.831   4.330   8.520 -1.1572  1.6208 -1.1132
  104OSM   H18G10631   4.768   4.456   8.626 -2.9097 -2.7667  0.1246
  104OSM   H18H10632   4.800   4.299   8.694 -0.2997  1.1932  0.9470
  105OSM      N10633   2.203   3.752  10.945  0.0250 -0.1550 -0.2309
  105OSM    C1510634   2.279   3.821  11.058  0.3093  0.0813 -0.2813
  105OSM   H15A10635   2.263   3.774  11.154 -1.8073  1.7153  0.2319
  105OSM   H15B10636   2.251   3.925  11.063  0.7212  0.1659  0.4616
  105OSM   H15C10637   2.383   3.825  11.028  0.9554 -2.7216  1.1965
  105OSM    C1410638   2.224   3.827  10.818 -0.9262  0.5950  0.0534
  105OSM   H14A10639   2.142   3.896  10.804 -1.3149  0.0989 -0.1524
  105OSM   H14B10640   2.224   3.758  10.735  0.7464 -2.1999  2.1885
  105OSM   H14C10641   2.322   3.873  10.817 -0.3627 -0.4892 -1.9688
  105OSM    C1310642   2.271   3.620  10.924  0.0179 -0.6061 -0.8419
  105OSM   H13A10643   2.226   3.566  10.841  0.5644  1.6789 -2.7219
  105OSM   H13B10644   2.263   3.565  11.016 -1.3658 -0.5768 -0.9166
  105OSM   H13C10645   2.375   3.632  10.899 -0.0201  1.1221 -0.2923
  105OSM    C1210646   2.058   3.721  10.970 -0.0055 -0.0458 -0.4238
  105OSM   H12A10647   2.056   3.656  11.056  0.3501 -2.3110 -2.0314
  105OSM   H12B10648   2.009   3.665  10.891 -1.7619  1.1471 -0.2449
  105OSM    C1110649   1.974   3.841  11.003  0.4722 -1.2441  0.5651
  105OSM   H11A10650   2.031   3.909  11.070  0.7831 -0.3654 -0.5553
  105OSM   H11B10651   1.886   3.805  11.061 -0.1539 -0.9850 -0.2054
  105OSM      P10652   1.839   3.832  10.784  0.0178  0.3179 -0.2283
  105OSM    O1310653   1.939   3.779  10.690  0.1107  0.0479 -0.7556
  105OSM    O1410654   1.731   3.742  10.836 -0.0655 -0.0804 -0.3068
  105OSM    O1110655   1.773   3.956  10.717  0.0315 -0.6863  0.5332
  105OSM    O1210656   1.923   3.917  10.886 -0.3886 -0.1727  0.2349
  105OSM    C1S10657   1.851   4.071  10.680 -0.0857 -0.3664  0.3537
  105OSM    H1S10658   1.957   4.067  10.712 -0.4928  0.2464  1.9030
  105OSM    H1T10659   1.808   4.161  10.730 -1.1889  1.0172 -2.8175
  105OSM     NF10660   1.914   4.213  10.504  0.3121 -0.3516 -1.1598
  105OSM    HNF10661   1.873   4.300  10.476 -0.4092  0.5644  2.2725
  105OSM    C2S10662   1.825   4.108  10.532  0.3415 -0.2300 -0.1278
  105OSM    H2S10663   1.862   4.016  10.481 -1.0988 -1.0461  0.2355
  105OSM    C3S10664   1.678   4.143  10.507 -0.0189  0.2502 -1.4153
  105OSM    H3S10665   1.661   4.234  10.568 -2.8467  0.0162 -1.7428
  105OSM     O310666   1.583   4.066  10.574 -0.0007 -0.3788 -0.4023
  105OSM    HO310667   1.637   4.008  10.628  0.2173 -0.6986 -0.9487
  105OSM    C4S10668   1.654   4.158  10.359 -0.0418  0.2371 -0.4018
  105OSM    H4S10669   1.659   4.065  10.301  1.1039 -0.7230  1.1506
  105OSM    C5S10670   1.631   4.272  10.293  0.8592 -0.1639  0.1080
  105OSM    H5S10671   1.614   4.368  10.344  0.0406  0.3364 -1.0622
  105OSM    C6S10672   1.605   4.280  10.143  0.0190  0.5753 -0.2757
  105OSM    H6S10673   1.679   4.358  10.115  0.4320  1.1442  2.2160
  105OSM    H6T10674   1.514   4.343  10.133  0.5475  1.2981 -0.6221
  105OSM    C7S10675   1.610   4.153  10.057  0.0093  0.4556  0.3200
  105OSM    H7S10676   1.544   4.075  10.099 -1.5722  2.1689  1.1701
  105OSM    H7T10677   1.715   4.116  10.053  0.2956  1.1288  1.3479
  105OSM    C8S10678   1.546   4.171   9.913 -0.5046  0.2350  0.4388
  105OSM    H8S10679   1.620   4.236   9.861 -0.7457  0.1941  0.0367
  105OSM    H8T10680   1.442   4.211   9.916 -0.5674  0.2591 -1.1532
  105OSM    C9S10681   1.534   4.036   9.835 -0.8891 -0.2490  0.5046
  105OSM    H9S10682   1.463   3.968   9.886 -1.6399  0.5229  0.5200
  105OSM    H9T10683   1.635   3.993   9.817  0.1462  2.1603  0.1721
  105OSM   C10S10684   1.478   4.064   9.695 -0.0267  0.3367  0.0584
  105OSM   H10S10685   1.550   4.134   9.648 -0.9342  2.0082  1.0908
  105OSM   H10T10686   1.376   4.106   9.691 -0.3254 -0.4609 -1.4144
  105OSM   C11S10687   1.473   3.937   9.596 -0.0735 -0.4402  0.4388
  105OSM   H11S10688   1.368   3.902   9.590  0.4542 -1.9722 -0.5306
  105OSM   H11T10689   1.537   3.849   9.617 -1.3001 -1.4973 -0.1268
  105OSM   C12S10690   1.516   3.976   9.455  0.7056 -0.3292  0.5515
  105OSM   H12S10691   1.611   4.031   9.469 -0.6891  1.4671  4.6339
  105OSM   H12T10692   1.440   4.048   9.417  0.8584 -0.2036  0.4849
  105OSM   C13S10693   1.523   3.855   9.362 -0.2771  0.5035  0.5129
  105OSM   H13S10694   1.419   3.818   9.373  0.2428 -2.5604 -2.7913
  105OSM   H13T10695   1.581   3.764   9.392  0.8537  0.9470 -0.2620
  105OSM   C14S10696   1.536   3.881   9.213 -0.0035  0.8612 -0.0563
  105OSM   H14S10697   1.637   3.928   9.200  0.6450 -0.6002 -0.4641
  105OSM   H14T10698   1.459   3.955   9.182  1.2805  2.5747  0.6377
  105OSM   C15S10699   1.511   3.761   9.127 -0.5817  0.4527  0.7570
  105OSM   H15S10700   1.407   3.724   9.141  0.0326 -1.8501 -0.2560
  105OSM   H15T10701   1.581   3.680   9.157 -0.7681  0.4705  1.2519
  105OSM   C16S10702   1.534   3.797   8.977 -0.2477  0.4260 -0.5201
  105OSM   H16S10703   1.639   3.825   8.952  0.1856 -1.2856 -0.7781
  105OSM   H16T10704   1.471   3.882   8.944 -0.1334  0.7562  0.0906
  105OSM   C17S10705   1.500   3.675   8.888 -0.4663 -0.6796  0.1421
  105OSM   H17S10706   1.404   3.637   8.931  0.9118 -0.2838  3.9358
  105OSM   H17T10707   1.573   3.593   8.903 -1.1291 -1.6929 -1.8140
  105OSM   C18S10708   1.496   3.713   8.738  0.2092 -0.3408  0.6752
  105OSM   H18S10709   1.496   3.613   8.689  1.0343 -0.0100 -0.0116
  105OSM   H18T10710   1.598   3.756   8.726  0.1175  0.4867  2.5298
  105OSM   H18U10711   1.413   3.777   8.701 -0.4248 -1.1986  0.5600
  105OSM    C1F10712   2.044   4.202  10.491 -0.1682  0.2038  0.7813
  105OSM     OF10713   2.100   4.097  10.501 -0.7603 -0.0661  0.5639
  105OSM    C2F10714   2.121   4.314  10.445 -0.1238  0.5341 -0.1440
  105OSM    H2F10715   2.203   4.338  10.515  0.6872  1.3754 -1.3637
  105OSM    H2G10716   2.058   4.403  10.425 -1.9353 -0.6995 -0.1905
  105OSM    C3F10717   2.192   4.286  10.304  0.3372 -0.4420 -0.8814
  105OSM    H3F10718   2.219   4.178  10.301  0.4074 -0.5254  1.2277
  105OSM    H3G10719   2.274   4.357  10.281 -0.0794 -0.1189 -1.3914
  105OSM    C4F10720   2.102   4.293  10.173  0.1368 -0.3768  0.1357
  105OSM    H4F10721   2.011   4.240  10.208 -0.7888  1.2919  0.3986
  105OSM    H4G10722   2.141   4.230  10.090  0.5832 -0.2433  0.2468
  105OSM    C5F10723   2.071   4.435  10.133  0.4459  0.4470  0.0595
  105OSM    H5F10724   2.167   4.487  10.113  0.6567  0.0859  0.1217
  105OSM    H5G10725   2.018   4.485  10.217  0.9273 -2.4785  2.2732
  105OSM    C6F10726   1.984   4.438  10.006 -0.0628  0.5773 -0.5169
  105OSM    H6F10727   1.947   4.542   9.991 -0.6946  0.6055  0.9624
  105OSM    H6G10728   1.892   4.378  10.026 -0.6090  2.1811  2.3924
  105OSM    C7F10729   2.061   4.390   9.885 -0.3066  0.2187 -0.4551
  105OSM    H7F10730   2.097   4.287   9.902 -0.1875 -0.4110 -3.9071
  105OSM    H7G10731   2.146   4.456   9.856 -0.4952  0.8974  0.4785
  105OSM    C8F10732   1.972   4.359   9.761  0.6342 -0.3083 -0.5516
  105OSM    H8F10733   1.893   4.295   9.805  1.8317 -1.2093  0.3530
  105OSM    H8G10734   2.026   4.299   9.686 -0.5420 -1.2579 -0.6699
  105OSM    C9F10735   1.943   4.486   9.680  0.7569 -0.3520  0.0068
  105OSM    H9F10736   2.019   4.566   9.674  1.1206 -0.7581 -0.9873
  105OSM   C10F10737   1.825   4.517   9.624 -0.8425 -0.3394  0.2923
  105OSM   H10F10738   1.812   4.615   9.576  1.6642 -0.4641 -0.8281
  105OSM   C11F10739   1.697   4.436   9.635  0.2669  0.1152 -0.3474
  105OSM   H11F10740   1.624   4.458   9.715 -1.0307 -0.9560 -1.1992
  105OSM   H11G10741   1.717   4.329   9.658  0.9819  0.6442  1.7940
  105OSM   C12F10742   1.609   4.422   9.508 -0.6265  0.5978  0.0111
  105OSM   H12F10743   1.572   4.520   9.469  2.3586  1.1511 -1.7155
  105OSM   H12G10744   1.520   4.363   9.538 -0.1203  0.3615  1.0961
  105OSM   C13F10745   1.682   4.346   9.400 -0.2515  0.0975 -0.3488
  105OSM   H13F10746   1.701   4.244   9.438 -0.4353  0.2606  0.1869
  105OSM   H13G10747   1.775   4.401   9.373  1.0260 -2.5007 -1.6306
  105OSM   C14F10748   1.590   4.335   9.281 -0.1867  0.6533  0.0700
  105OSM   H14F10749   1.560   4.438   9.251 -0.1980  0.3497 -1.0124
  105OSM   H14G10750   1.502   4.274   9.312  1.3956 -1.4809  0.5794
  105OSM   C15F10751   1.647   4.271   9.148  0.1068 -0.3027  0.2627
  105OSM   H15F10752   1.565   4.258   9.075 -0.4356 -0.0026  0.8038
  105OSM   H15G10753   1.682   4.167   9.169 -0.2939 -0.6592 -0.7981
  105OSM   C16F10754   1.767   4.346   9.072  0.2618  0.3547  0.2222
  105OSM   H16F10755   1.847   4.370   9.145  1.2259  0.5322 -0.8596
  105OSM   H16G10756   1.725   4.438   9.027  0.2959  1.1789  1.7862
  105OSM   C17F10757   1.834   4.249   8.964  0.3003  0.0057 -0.3902
  105OSM   H17F10758   1.845   4.146   9.003  0.5248 -0.4653 -1.6532
  105OSM   H17G10759   1.936   4.294   8.956 -0.5203  1.7086 -2.3816
  105OSM   C18F10760   1.771   4.250   8.826  0.3956 -0.9437  0.3519
  105OSM   H18F10761   1.723   4.343   8.789 -1.2809 -1.8581  0.1300
  105OSM   H18G10762   1.690   4.176   8.812  1.1393 -1.5366 -0.9458
  105OSM   H18H10763   1.847   4.221   8.750  0.7989 -0.9525  0.7538
  106OSM      N10764   6.258   6.704  10.584 -0.9969 -0.3731  0.0119
  106OSM    C1510765   6.294   6.732  10.437 -0.4788 -0.4280 -1.1818
  106OSM   H15A10766   6.291   6.636  10.387 -3.8631 -0.9324 -0.2650
  106OSM   H15B10767   6.394   6.773  10.435 -1.1562  1.4399  0.1040
  106OSM   H15C10768   6.229   6.805  10.393  0.6692  0.8713 -0.8182
  106OSM    C1410769   6.109   6.659  10.582  0.0024 -0.0619 -0.9653
  106OSM   H14A10770   6.085   6.635  10.685  1.9325  0.5200 -0.3304
  106OSM   H14B10771   6.091   6.575  10.517 -0.7669 -0.1512 -0.6399
  106OSM   H14C10772   6.045   6.743  10.557 -2.1956 -1.2926  0.2473
  106OSM    C1310773   6.341   6.588  10.632  0.3681 -0.2647  0.5935
  106OSM   H13A10774   6.326   6.570  10.737 -1.5417  0.1006  0.4260
  106OSM   H13B10775   6.448   6.601  10.626  0.2776  1.4822  1.9341
  106OSM   H13C10776   6.317   6.505  10.567 -0.5766 -0.2370  0.8837
  106OSM    C1210777   6.284   6.828  10.674 -0.6332 -0.0936  0.6230
  106OSM   H12A10778   6.390   6.846  10.677 -0.5141 -0.7260  0.4525
  106OSM   H12B10779   6.264   6.788  10.773  1.2054 -1.7460  0.3843
  106OSM    C1110780   6.209   6.949  10.632  0.8446 -0.5928  0.3856
  106OSM   H11A10781   6.100   6.933  10.620  1.0822 -0.8098 -2.2015
  106OSM   H11B10782   6.233   6.988  10.531 -0.7406  3.1148  1.2982
  106OSM      P10783   6.339   7.142  10.760 -0.0318  0.2520 -0.2086
  106OSM    O1310784   6.293   7.274  10.803 -0.7222 -0.0540  0.0139
  106OSM    O1410785   6.432   7.074  10.849 -1.0570  0.1078 -0.1541
  106OSM    O1110786   6.414   7.160  10.622 -0.1715 -0.0588 -0.1806
  106OSM    O1210787   6.220   7.043  10.734  0.0484 -0.6663  0.0059
  106OSM    C1S10788   6.361   7.229  10.508 -0.0633 -0.3676 -0.4854
  106OSM    H1S10789   6.362   7.337  10.533 -1.2146 -0.5668  0.5269
  106OSM    H1T10790   6.255   7.197  10.491 -0.6232  2.1306 -2.0968
  106OSM     NF10791   6.351   7.239  10.248 -0.5195 -0.0782 -0.0636
  106OSM    HNF10792   6.316   7.161  10.197  1.5972 -1.2417  0.1705
  106OSM    C2S10793   6.435   7.201  10.366 -0.1298 -0.4536  0.5026
  106OSM    H2S10794   6.524   7.268  10.360  0.4310 -1.2015  0.3127
  106OSM    C3S10795   6.483   7.057  10.352 -0.2656  0.5869  0.0134
  106OSM    H3S10796   6.390   7.002  10.324 -0.4054  0.1070  1.3290
  106OSM     O310797   6.526   6.986  10.471  0.0440 -0.6151  0.0456
  106OSM    HO310798   6.494   7.041  10.543 -1.2408  1.0750 -1.7101
  106OSM    C4S10799   6.591   7.048  10.245  0.1492 -0.2678 -0.0868
  106OSM    H4S10800   6.551   7.030  10.144 -2.4732 -0.8971  0.9889
  106OSM    C5S10801   6.729   7.060  10.260  0.2508  0.3697 -0.4720
  106OSM    H5S10802   6.777   7.083  10.356  1.5335  1.0448 -1.2559
  106OSM    C6S10803   6.835   7.050  10.151 -0.7538 -0.1959  0.0254
  106OSM    H6S10804   6.896   6.964  10.184  0.5375  0.9825  0.8074
  106OSM    H6T10805   6.898   7.141  10.161 -1.0921  0.0533 -0.0628
  106OSM    C7S10806   6.798   7.049  10.004  0.2225 -0.1689 -0.7176
  106OSM    H7S10807   6.744   7.142   9.974  0.6026  0.0216 -0.8125
  106OSM    H7T10808   6.722   6.969   9.988 -0.1468 -0.4217  1.8282
  106OSM    C8S10809   6.922   7.025   9.925 -0.0731 -0.6900  0.1070
  106OSM    H8S10810   6.984   6.939   9.957 -0.1097 -0.3872  1.0230
  106OSM    H8T10811   6.994   7.106   9.950  0.0742 -0.5644 -0.6970
  106OSM    C9S10812   6.899   7.016   9.774  0.2824  0.0731 -0.3447
  106OSM    H9S10813   6.858   7.117   9.753 -4.2559 -0.9090  2.3236
  106OSM    H9T10814   6.821   6.940   9.748  0.5825 -0.1826 -0.5055
  106OSM   C10S10815   7.029   6.982   9.701  0.4676  0.0744 -0.5588
  106OSM   H10S10816   7.077   6.894   9.749  0.0296  0.2904  0.3095
  106OSM   H10T10817   7.098   7.069   9.708  1.0662 -0.4307 -0.0135
  106OSM   C11S10818   6.995   6.956   9.551  0.9094 -0.2208  0.2658
  106OSM   H11S10819   6.923   6.872   9.544  0.4928  0.1705 -0.2153
  106OSM   H11T10820   7.094   6.919   9.516  1.8508 -1.2109  3.5790
  106OSM   C12S10821   6.953   7.079   9.471  0.3114  0.2392  0.1386
  106OSM   H12S10822   7.021   7.164   9.492 -1.9893  1.8282  1.7082
  106OSM   H12T10823   6.855   7.119   9.507  0.4887  0.1782  0.6906
  106OSM   C13S10824   6.927   7.055   9.320 -0.6710  0.3932 -0.2944
  106OSM   H13S10825   6.876   7.143   9.277 -1.8755  0.2193  0.7391
  106OSM   H13T10826   6.858   6.969   9.308 -0.9792 -0.0814  3.6717
  106OSM   C14S10827   7.063   7.032   9.247  0.0177 -0.2974  0.0132
  106OSM   H14S10828   7.114   6.939   9.278  1.3721  0.8662  1.4641
  106OSM   H14T10829   7.126   7.120   9.273  0.8457 -0.1994 -2.1307
  106OSM   C15S10830   7.044   7.040   9.090  0.4383 -0.5400  0.1859
  106OSM   H15S10831   6.968   7.111   9.051  2.0348  1.0085 -0.2434
  106OSM   H15T10832   6.993   6.942   9.076  0.6153 -0.5718 -0.2560
  106OSM   C16S10833   7.180   7.066   9.011  0.2949  1.1938 -0.3870
  106OSM   H16S10834   7.242   6.978   9.039 -2.7382 -1.4196 -1.2527
  106OSM   H16T10835   7.212   7.167   9.042 -0.6569  1.4576 -0.2206
  106OSM   C17S10836   7.167   7.056   8.856  0.0232  0.0650  0.4085
  106OSM   H17S10837   7.106   7.141   8.820 -0.5911 -0.1482  0.9293
  106OSM   H17T10838   7.110   6.966   8.826  0.8262 -0.3075 -0.0427
  106OSM   C18S10839   7.304   7.046   8.781 -0.3964  0.2002 -1.0297
  106OSM   H18S10840   7.349   7.148   8.774 -0.5936  0.4207  0.5927
  106OSM   H18T10841   7.292   7.003   8.679  1.2587  0.0061 -1.1795
  106OSM   H18U10842   7.372   6.977   8.835  0.8421  0.7375 -1.8444
  106OSM    C1F10843   6.316   7.366  10.227  0.5853  0.0223 -0.2767
  106OSM     OF10844   6.343   7.461  10.301  0.1142 -0.0112 -0.1388
  106OSM    C2F10845   6.250   7.383  10.095  0.1405 -0.6447  0.2169
  106OSM    H2F10846   6.147   7.343  10.102 -1.0008  2.1781  0.6556
  106OSM    H2G10847   6.307   7.324  10.019  1.4405  0.6436  0.1498
  106OSM    C3F10848   6.222   7.527  10.039  0.0931  0.3375  0.0215
  106OSM    H3F10849   6.314   7.589  10.047 -0.9115  2.1805 -1.7441
  106OSM    H3G10850   6.148   7.577  10.107 -0.6361 -0.0443 -0.4762
  106OSM    C4F10851   6.159   7.519   9.901 -0.2177 -0.0447 -0.4157
  106OSM    H4F10852   6.060   7.570   9.901  0.3630  1.1678  1.1745
  106OSM    H4G10853   6.124   7.417   9.875 -1.1088  0.3305 -0.7194
  106OSM    C5F10854   6.255   7.573   9.796 -0.4376  0.0952  0.2460
  106OSM    H5F10855   6.353   7.591   9.844 -0.2507 -0.4890  0.0987
  106OSM    H5G10856   6.213   7.664   9.749  0.0063  0.1537 -0.0389
  106OSM    C6F10857   6.298   7.476   9.679  0.0065 -0.2634 -0.2361
  106OSM    H6F10858   6.366   7.404   9.729 -0.1736  0.4964  1.1536
  106OSM    H6G10859   6.357   7.517   9.595 -0.7717 -0.7206 -1.0334
  106OSM    C7F10860   6.172   7.411   9.610 -0.2201  0.3362  0.6212
  106OSM    H7F10861   6.075   7.434   9.660 -2.4133  0.5317 -3.2872
  106OSM    H7G10862   6.181   7.301   9.621  0.5589  0.4179  0.8330
  106OSM    C8F10863   6.151   7.435   9.455  0.0222  0.2738 -0.9926
  106OSM    H8F10864   6.140   7.545   9.457  0.1614  0.3788  3.1274
  106OSM    H8G10865   6.059   7.382   9.422 -0.0277  0.6623 -1.4883
  106OSM    C9F10866   6.271   7.385   9.370  0.5067 -0.5176 -0.2814
  106OSM    H9F10867   6.375   7.390   9.404 -0.5325  0.3837  3.2014
  106OSM   C10F10868   6.262   7.319   9.259  0.9902 -0.1772  0.3763
  106OSM   H10F10869   6.352   7.286   9.207 -1.2119 -1.6114 -2.8388
  106OSM   C11F10870   6.125   7.286   9.202  0.2426 -0.1957  0.1470
  106OSM   H11F10871   6.047   7.261   9.277 -0.1179 -1.9235 -0.7596
  106OSM   H11G10872   6.145   7.192   9.147 -0.4465  0.1120 -0.6523
  106OSM   C12F10873   6.070   7.394   9.107 -0.0178  0.8290 -0.3640
  106OSM   H12F10874   6.092   7.493   9.152 -0.1904  1.2821 -1.2332
  106OSM   H12G10875   5.962   7.374   9.092  0.1393  0.1517 -0.6363
  106OSM   C13F10876   6.127   7.397   8.966  0.1146  0.0458 -0.6528
  106OSM   H13F10877   6.237   7.409   8.966  0.3204 -1.6391 -0.5089
  106OSM   H13G10878   6.091   7.488   8.914  1.0532  0.8831  0.1333
  106OSM   C14F10879   6.091   7.270   8.888 -0.2283  0.4448  0.2264
  106OSM   H14F10880   5.983   7.247   8.904 -0.1215 -0.8557 -0.7686
  106OSM   H14G10881   6.135   7.182   8.939  0.5086  0.9156  0.4260
  106OSM   C15F10882   6.122   7.269   8.741 -0.4879 -0.0637 -0.2272
  106OSM   H15F10883   6.232   7.280   8.732 -0.2366 -1.1819  1.1695
  106OSM   H15G10884   6.080   7.364   8.700  0.9032  0.0280 -1.5621
  106OSM   C16F10885   6.070   7.146   8.657  0.2868  0.0097  0.3221
  106OSM   H16F10886   6.085   7.057   8.722 -0.0272 -1.0754 -1.0346
  106OSM   H16G10887   6.134   7.140   8.566  2.1958  0.8551  1.5432
  106OSM   C17F10888   5.925   7.173   8.618 -0.5311 -0.6274 -0.2923
  106OSM   H17F10889   5.928   7.258   8.547  2.0633 -1.6136 -1.4966
  106OSM   H17G10890   5.862   7.189   8.709 -1.0637  3.1424 -1.1618
  106OSM   C18F10891   5.867   7.055   8.542  0.4421 -0.0769 -0.4626
  106OSM   H18F10892   5.878   6.957   8.594  1.6933  1.6705  2.8815
  106OSM   H18G10893   5.907   7.052   8.438  0.6790  0.9582 -0.4096
  106OSM   H18H10894   5.758   7.074   8.531  0.1149 -1.4297  0.2817
  107OSM      N10895   4.140   0.799  10.870  1.0620 -0.4523 -0.2664
  107OSM    C1510896   4.278   0.752  10.869 -0.0211 -0.2823  0.6553
  107OSM   H15A10897   4.337   0.804  10.796  0.1488  1.2529  1.8493
  107OSM   H15B10898   4.293   0.647  10.848  2.1306 -0.3205  2.1095
  107OSM   H15C10899   4.327   0.768  10.964 -1.0108  0.4709  1.0484
  107OSM    C1410900   4.069   0.767  10.736 -0.3140 -0.7983 -0.2365
  107OSM   H14A10901   4.075   0.662  10.713 -1.2913 -0.5341 -1.9099
  107OSM   H14B10902   4.108   0.821  10.651  1.5847 -1.4795  0.1571
  107OSM   H14C10903   3.964   0.790  10.740  0.1344  1.2766  2.7928
  107OSM    C1310904   4.067   0.714  10.970 -0.6331  0.2918 -0.1928
  107OSM   H13A10905   4.085   0.610  10.949 -0.5733  0.3721 -0.5456
  107OSM   H13B10906   3.961   0.733  10.962 -0.6432 -0.1587 -1.2655
  107OSM   H13C10907   4.109   0.729  11.068  1.1534  1.3820 -1.0686
  107OSM    C1210908   4.120   0.947  10.908 -0.4640 -0.1475  0.0556
  107OSM   H12A10909   4.014   0.961  10.898 -0.5893 -0.7197  0.5281
  107OSM   H12B10910   4.172   1.002  10.831 -0.9228  1.3950  0.8142
  107OSM    C1110911   4.160   0.995  11.042 -0.3990  0.6743 -0.4426
  107OSM   H11A10912   4.268   0.981  11.062 -0.6276 -1.3755 -0.4558
  107OSM   H11B10913   4.113   0.936  11.124 -0.0071 -1.4498 -1.6779
  107OSM      P10914   4.218   1.253  11.038 -0.2715  0.1059 -0.0471
  107OSM    O1310915   4.143   1.378  11.075  0.0384 -0.1152  0.3855
  107OSM    O1410916   4.347   1.229  11.111 -0.2730  0.3891  1.0617
  107OSM    O1110917   4.254   1.255  10.885 -0.1999  0.3694 -0.3603
  107OSM    O1210918   4.121   1.128  11.055 -0.3280  0.5052  0.3046
  107OSM    C1S10919   4.187   1.309  10.774 -0.2548 -0.1394  0.5128
  107OSM    H1S10920   4.174   1.418  10.793  2.2144  0.3615 -0.2551
  107OSM    H1T10921   4.091   1.258  10.750  0.4915 -2.2672  1.8135
  107OSM     NF10922   4.212   1.368  10.534 -0.2269 -0.2129  0.4125
  107OSM    HNF10923   4.150   1.317  10.475 -0.2467  0.1323  0.1272
  107OSM    C2S10924   4.271   1.297  10.644  0.5577  0.1357  0.1688
  107OSM    H2S10925   4.370   1.342  10.665  0.4140  0.4109  0.2686
  107OSM    C3S10926   4.283   1.142  10.620  0.2672  0.0770  0.4570
  107OSM    H3S10927   4.181   1.100  10.606 -0.0149  1.2328 -1.2136
  107OSM     O310928   4.353   1.063  10.719  0.4400  0.8720 -0.3342
  107OSM    HO310929   4.377   1.129  10.784  0.6287  1.6355 -1.1559
  107OSM    C4S10930   4.364   1.125  10.491 -0.0496  0.4476 -0.1171
  107OSM    H4S10931   4.296   1.108  10.406 -1.0017 -3.3195  1.1730
  107OSM    C5S10932   4.494   1.122  10.472 -0.1836 -0.1062 -1.2297
  107OSM    H5S10933   4.561   1.131  10.560 -1.8143 -2.1787  0.3201
  107OSM    C6S10934   4.565   1.103  10.343 -0.1091  0.2015  0.2015
  107OSM    H6S10935   4.673   1.088  10.361 -0.7138 -0.7045  4.0149
  107OSM    H6T10936   4.553   1.191  10.276  0.3497  0.6839  0.7442
  107OSM    C7S10937   4.506   0.969  10.279 -0.5790 -0.1644 -0.6451
  107OSM    H7S10938   4.395   0.976  10.272 -0.7972 -2.0239  0.4028
  107OSM    H7T10939   4.531   0.882  10.344 -2.0886 -0.3928 -0.3227
  107OSM    C8S10940   4.567   0.940  10.142 -0.0490 -0.3807 -0.0300
  107OSM    H8S10941   4.677   0.923  10.151 -0.1859 -0.2072  3.4270
  107OSM    H8T10942   4.541   1.028  10.079  1.8317 -0.8767 -1.6194
  107OSM    C9S10943   4.507   0.817  10.083 -0.5003  0.4048  0.2014
  107OSM    H9S10944   4.399   0.830  10.063 -0.8035 -0.9762  0.8223
  107OSM    H9T10945   4.509   0.729  10.151  0.9676 -0.5593 -1.0004
  107OSM   C10S10946   4.589   0.769   9.959 -0.0783  0.1553 -0.6015
  107OSM   H10S10947   4.694   0.758   9.993  0.0961 -0.5055 -1.3105
  107OSM   H10T10948   4.585   0.854   9.887  1.1584  1.3229  0.6535
  107OSM   C11S10949   4.537   0.643   9.881 -0.0397  0.0637 -0.7731
  107OSM   H11S10950   4.442   0.663   9.826 -0.7600  1.4451  0.8966
  107OSM   H11T10951   4.514   0.566   9.958 -1.6633 -2.0413 -3.1899
  107OSM   C12S10952   4.641   0.593   9.778 -0.6720  0.0368 -0.5042
  107OSM   H12S10953   4.602   0.499   9.735 -0.4062 -0.6049  0.6110
  107OSM   H12T10954   4.732   0.565   9.835 -1.1825 -3.5635 -1.2407
  107OSM   C13S10955   4.667   0.689   9.666  1.0898  0.9340 -0.7164
  107OSM   H13S10956   4.679   0.792   9.707 -0.0263  0.5552  0.6241
  107OSM   H13T10957   4.571   0.701   9.612 -0.2527  0.3527  1.3930
  107OSM   C14S10958   4.775   0.640   9.570 -0.1318 -0.5372  0.4217
  107OSM   H14S10959   4.761   0.536   9.536  0.9182 -0.5661  0.0381
  107OSM   H14T10960   4.874   0.659   9.616 -0.7364 -0.9081  1.9155
  107OSM   C15S10961   4.772   0.739   9.451 -0.2774 -0.2637  0.1650
  107OSM   H15S10962   4.874   0.745   9.406  0.5158  0.9676  1.9866
  107OSM   H15T10963   4.759   0.843   9.490 -1.8308 -0.2009 -0.4832
  107OSM   C16S10964   4.685   0.693   9.335  0.1390 -0.0638  0.1952
  107OSM   H16S10965   4.588   0.659   9.375  0.8858 -1.5239  0.8403
  107OSM   H16T10966   4.728   0.615   9.269 -0.3280  1.2900 -1.8070
  107OSM   C17S10967   4.657   0.805   9.242 -0.1585  0.1110  0.4622
  107OSM   H17S10968   4.752   0.819   9.186  1.1732 -1.4014  2.2246
  107OSM   H17T10969   4.634   0.899   9.295 -0.4888  0.0526  0.4255
  107OSM   C18S10970   4.535   0.767   9.145 -0.0912  0.0483 -0.7110
  107OSM   H18S10971   4.560   0.681   9.080 -0.5439 -1.4002  0.9504
  107OSM   H18T10972   4.517   0.862   9.090  0.1748  2.7386  3.3752
  107OSM   H18U10973   4.443   0.746   9.204 -1.1562  0.6521 -2.0913
  107OSM    C1F10974   4.193   1.501  10.529  1.1146  0.4272  0.4820
  107OSM     OF10975   4.235   1.571  10.620  0.5819  0.1346  0.4096
  107OSM    C2F10976   4.110   1.551  10.419 -1.2752  0.6417  0.1304
  107OSM    H2F10977   4.015   1.598  10.454 -1.4404 -0.4667  1.2532
  107OSM    H2G10978   4.069   1.474  10.349  0.3310  0.6692 -0.8917
  107OSM    C3F10979   4.195   1.654  10.335  0.5539 -0.6707  0.2574
  107OSM    H3F10980   4.220   1.740  10.401  1.3273 -0.4515 -0.3066
  107OSM    H3G10981   4.116   1.687  10.263  1.5129  1.7336  0.2211
  107OSM    C4F10982   4.323   1.600  10.263 -0.5115  0.6048  0.3931
  107OSM    H4F10983   4.387   1.563  10.347 -2.1199  0.9000  1.7937
  107OSM    H4G10984   4.372   1.693  10.228  0.6716 -0.3390 -0.5467
  107OSM    C5F10985   4.284   1.508  10.148  0.8075  0.2878 -0.2036
  107OSM    H5F10986   4.212   1.557  10.079 -0.0373 -0.0651  0.4226
  107OSM    H5G10987   4.229   1.423  10.194 -1.0292  0.6758 -1.5841
  107OSM    C6F10988   4.407   1.468  10.073 -0.3375  0.1135  0.0114
  107OSM    H6F10989   4.494   1.487  10.140 -0.4285 -2.7451  1.0830
  107OSM    H6G10990   4.422   1.535   9.987 -1.5955 -1.3544 -1.4263
  107OSM    C7F10991   4.420   1.324  10.031 -0.1776  0.8534 -0.2999
  107OSM    H7F10992   4.399   1.265  10.123 -0.5266 -0.0721 -0.9548
  107OSM    H7G10993   4.521   1.296   9.994  0.1648 -0.6317  1.6134
  107OSM    C8F10994   4.326   1.281   9.906  1.0452 -0.2194  0.4174
  107OSM    H8F10995   4.366   1.339   9.820  0.6173  1.1606  1.1138
  107OSM    H8G10996   4.226   1.314   9.941 -1.2307 -4.1212 -1.6573
  107OSM    C9F10997   4.325   1.131   9.900 -0.1291  0.3707 -0.6281
  107OSM    H9F10998   4.257   1.088   9.975 -0.7694  2.4639  0.0608
  107OSM   C10F10999   4.376   1.048   9.805  0.6044 -0.0581 -0.0376
  107OSM   H10F11000   4.363   0.941   9.828 -1.0990  0.2924  0.8042
  107OSM   C11F11001   4.451   1.083   9.681  0.1017 -0.1615 -0.7501
  107OSM   H11F11002   4.509   0.997   9.642  1.6289  0.5098 -0.0476
  107OSM   H11G11003   4.520   1.169   9.699 -1.7001  1.3989 -0.9921
  107OSM   C12F11004   4.360   1.136   9.561 -0.4987  0.5900  0.1264
  107OSM   H12F11005   4.323   1.236   9.593  0.1906  1.4186 -1.5687
  107OSM   H12G11006   4.266   1.076   9.561  0.9197 -1.8068  1.2056
  107OSM   C13F11007   4.443   1.159   9.433  0.3212 -0.1278 -0.6692
  107OSM   H13F11008   4.460   1.060   9.385 -1.0396  0.6559 -2.8927
  107OSM   H13G11009   4.543   1.198   9.463  0.2268 -0.5814  0.2860
  107OSM   C14F11010   4.386   1.270   9.353 -0.0430 -0.8006  0.5697
  107OSM   H14F11011   4.385   1.363   9.415 -2.0991 -0.2698 -0.1723
  107OSM   H14G11012   4.277   1.251   9.341 -0.5400  1.3874  1.1144
  107OSM   C15F11013   4.466   1.284   9.219  0.3987  0.5994  0.0565
  107OSM   H15F11014   4.574   1.303   9.235  0.2027 -0.1901  2.8332
  107OSM   H15G11015   4.419   1.372   9.170 -0.1216  1.6691  2.3517
  107OSM   C16F11016   4.442   1.161   9.128 -1.0702 -0.2033  0.0465
  107OSM   H16F11017   4.338   1.125   9.144 -0.8383 -1.5544 -1.2884
  107OSM   H16G11018   4.511   1.077   9.149 -0.4518 -0.5245 -2.8138
  107OSM   C17F11019   4.447   1.187   8.977 -0.4287 -0.9581  0.4495
  107OSM   H17F11020   4.345   1.217   8.946 -0.3812  0.5078  1.5953
  107OSM   H17G11021   4.450   1.082   8.939 -1.4799 -0.8282 -0.0431
  107OSM   C18F11022   4.554   1.283   8.917 -0.1049  0.6715 -0.3638
  107OSM   H18F11023   4.522   1.321   8.817 -1.0165 -0.0392 -0.3559
  107OSM   H18G11024   4.662   1.254   8.916  0.0861  1.2822  0.9860
  107OSM   H18H11025   4.551   1.376   8.977  1.7846  0.6410 -0.1425
  108OSM      N11026   0.039   6.490  10.853  0.2355  0.5280  0.2348
  108OSM    C1511027   0.094   6.603  10.780  0.3767  0.5794 -0.2091
  108OSM   H15A11028   0.202   6.601  10.774  0.4253 -2.1208  0.5740
  108OSM   H15B11029   0.055   6.694  10.825  0.4710  1.1525 -1.2548
  108OSM   H15C11030   0.053   6.600  10.680 -0.3808  2.1430  0.0238
  108OSM    C1411031   0.086   6.487  10.996  0.4165 -0.0728 -0.2163
  108OSM   H14A11032   0.042   6.408  11.054 -1.7108  1.4343  0.3511
  108OSM   H14B11033   0.056   6.580  11.041  1.5947  1.0210 -1.5949
  108OSM   H14C11034   0.193   6.472  11.003 -0.0810 -3.3401  3.1724
  108OSM    C1311035  -0.111   6.508  10.861  0.6042  0.3621  0.5447
  108OSM   H13A11036  -0.145   6.599  10.908 -2.0085 -0.4450  0.3913
  108OSM   H13B11037  -0.146   6.425  10.921  3.1197 -1.3705 -0.2091
  108OSM   H13C11038  -0.158   6.496  10.765  0.5528 -0.5837  0.6741
  108OSM    C1211039   0.067   6.357  10.785  0.4983 -0.3296 -0.5646
  108OSM   H12A11040   0.031   6.278  10.847 -1.1752  0.0689 -0.9910
  108OSM   H12B11041   0.175   6.345  10.782  0.6942  1.2110 -1.4010
  108OSM    C1111042   0.007   6.353  10.638  0.6840 -0.1230 -0.0964
  108OSM   H11A11043   0.037   6.257  10.590  2.8194 -0.4114  1.6800
  108OSM   H11B11044   0.047   6.432  10.571  1.1400 -0.7372 -0.5642
  108OSM      P11045  -0.222   6.244  10.663  0.3007 -0.4697 -0.1495
  108OSM    O1311046  -0.200   6.196  10.806  0.1203  0.1545  0.1648
  108OSM    O1411047  -0.363   6.281  10.628  0.4968 -0.0604  0.5515
  108OSM    O1111048  -0.170   6.131  10.564 -0.0827  0.0240  0.5591
  108OSM    O1211049  -0.128   6.367  10.630  0.1384  0.0241 -0.0427
  108OSM    C1S11050  -0.245   6.023  10.509  0.2575 -0.1126  0.4675
  108OSM    H1S11051  -0.348   6.039  10.549 -0.4382 -1.1855 -0.8091
  108OSM    H1T11052  -0.221   5.928  10.561  2.4758  0.2136  0.1464
  108OSM     NF11053  -0.356   5.949  10.293 -0.1449  0.3113  0.4210
  108OSM    HNF11054  -0.347   5.856  10.256  0.9610 -0.2638  2.0076
  108OSM    C2S11055  -0.236   6.010  10.354 -0.3315 -0.2896  0.5179
  108OSM    H2S11056  -0.238   6.114  10.315  1.9970 -0.7851 -1.1450
  108OSM    C3S11057  -0.092   5.953  10.329 -0.0359 -0.4602  0.4709
  108OSM    H3S11058  -0.075   5.860  10.387  0.2664 -0.9656 -0.4002
  108OSM     O311059   0.010   6.037  10.367  0.1927 -0.0608 -0.2966
  108OSM    HO311060  -0.024   6.079  10.447 -1.6023 -1.6538 -0.1582
  108OSM    C4S11061  -0.085   5.913  10.181 -0.2263 -0.1847  0.2073
  108OSM    H4S11062  -0.131   5.816  10.157 -0.6041 -0.8523  3.2778
  108OSM    C5S11063  -0.030   5.990  10.086 -0.6789  0.3737 -0.1035
  108OSM    H5S11064  -0.000   6.090  10.117 -1.9381  1.1661 -1.2947
  108OSM    C6S11065  -0.024   5.962   9.939  0.8116  0.0132 -0.0843
  108OSM    H6S11066   0.075   5.976   9.892 -0.1706  0.6439 -2.0854
  108OSM    H6T11067  -0.072   6.052   9.895  0.9155  0.7382  1.2365
  108OSM    C7S11068  -0.104   5.844   9.871  0.4120 -0.9786 -0.7214
  108OSM    H7S11069  -0.195   5.837   9.935  0.3889  0.7678 -0.4927
  108OSM    H7T11070  -0.042   5.754   9.891 -0.2947 -1.2200  0.4945
  108OSM    C8S11071  -0.146   5.873   9.728 -0.2657 -0.1190  0.6965
  108OSM    H8S11072  -0.181   5.979   9.724  0.3070  0.0610 -2.1255
  108OSM    H8T11073  -0.228   5.803   9.703  0.8127 -1.2544  0.2235
  108OSM    C9S11074  -0.045   5.871   9.617  0.1548  0.3671 -0.5041
  108OSM    H9S11075  -0.028   5.761   9.612  0.7703  0.5047 -1.7279
  108OSM    H9T11076   0.046   5.926   9.647 -0.0324  0.1221  0.5783
  108OSM   C10S11077  -0.093   5.917   9.479 -0.7889  0.3193  0.5568
  108OSM   H10S11078  -0.118   6.025   9.485 -0.9053  0.4696 -1.9180
  108OSM   H10T11079  -0.187   5.862   9.458  0.3340 -1.7616  0.6582
  108OSM   C11S11080   0.014   5.901   9.366 -0.1433  0.4733 -0.0088
  108OSM   H11S11081   0.085   5.819   9.393  0.6049 -0.0498 -3.2003
  108OSM   H11T11082   0.068   5.997   9.353 -0.8102  0.6155 -2.0664
  108OSM   C12S11083  -0.055   5.868   9.233  0.3824 -0.1823 -0.0164
  108OSM   H12S11084  -0.128   5.949   9.213  1.7480  1.0172 -0.2707
  108OSM   H12T11085  -0.112   5.773   9.243  1.0062 -0.4757  0.9409
  108OSM   C13S11086   0.049   5.852   9.122 -0.3829 -0.5886 -0.2511
  108OSM   H13S11087   0.004   5.797   9.036  1.2487  0.1254 -1.6094
  108OSM   H13T11088   0.148   5.807   9.140  0.2017  0.8127  0.1699
  108OSM   C14S11089   0.076   5.991   9.052  0.6109  0.9482 -0.0410
  108OSM   H14S11090   0.104   6.065   9.129 -1.9428  1.5858  0.3557
  108OSM   H14T11091  -0.009   6.037   8.997  0.1380 -0.5865 -0.6463
  108OSM   C15S11092   0.199   5.975   8.967  0.1928  0.0754  0.4037
  108OSM   H15S11093   0.290   5.949   9.025  1.8935 -0.7263 -2.4351
  108OSM   H15T11094   0.223   6.067   8.909  1.0514  0.2341  0.9972
  108OSM   C16S11095   0.177   5.869   8.856  0.8914  0.3663  0.3375
  108OSM   H16S11096   0.162   5.768   8.901  1.6487  0.9118  1.9063
  108OSM   H16T11097   0.274   5.858   8.804  1.0839 -1.7880  1.0546
  108OSM   C17S11098   0.068   5.910   8.758  0.0012 -0.3491 -0.2097
  108OSM   H17S11099   0.095   6.015   8.733  0.3824 -0.3507  0.1831
  108OSM   H17T11100  -0.030   5.909   8.810 -0.4863 -1.5440 -1.1064
  108OSM   C18S11101   0.054   5.815   8.640  0.2046  0.0090  0.2041
  108OSM   H18S11102  -0.033   5.749   8.660  1.0728 -0.3352  3.4069
  108OSM   H18T11103   0.139   5.743   8.640  1.2064  1.1379  1.8705
  108OSM   H18U11104   0.048   5.876   8.548 -2.4176  2.5571  1.9032
  108OSM    C1F11105  -0.480   5.998  10.286 -0.0295  0.3267  0.4948
  108OSM     OF11106  -0.506   6.116  10.322 -0.3187  0.2521  0.1648
  108OSM    C2F11107  -0.585   5.910  10.235  0.9179  0.5752 -0.4910
  108OSM    H2F11108  -0.617   5.840  10.316 -0.0554  1.2033 -0.3158
  108OSM    H2G11109  -0.545   5.845  10.154 -0.7831  0.9176 -1.6522
  108OSM    C3F11110  -0.698   5.986  10.168 -0.8709 -0.6585  0.4708
  108OSM    H3F11111  -0.747   6.052  10.243  2.4456  1.2132  1.1622
  108OSM    H3G11112  -0.779   5.914  10.143 -3.4865  1.1105  3.1406
  108OSM    C4F11113  -0.650   6.065  10.045 -0.1386 -1.1057 -0.6573
  108OSM    H4F11114  -0.578   6.148  10.063 -0.2911 -1.3330  1.1533
  108OSM    H4G11115  -0.749   6.096  10.007  0.3020  0.3001 -0.7057
  108OSM    C5F11116  -0.588   5.978   9.932  0.3066 -0.1321 -0.0207
  108OSM    H5F11117  -0.613   5.870   9.943  0.3410  0.0541  2.3754
  108OSM    H5G11118  -0.478   5.989   9.946  0.1271  0.8898  0.6857
  108OSM    C6F11119  -0.626   6.028   9.796 -0.0476  0.4212 -0.2611
  108OSM    H6F11120  -0.607   6.138   9.800 -2.1518  0.7960  0.6444
  108OSM    H6G11121  -0.736   6.033   9.781 -0.1087 -0.2715 -0.0683
  108OSM    C7F11122  -0.551   5.949   9.685  0.4905  0.3145 -0.4132
  108OSM    H7F11123  -0.589   5.845   9.693 -1.2629  0.9337 -0.3167
  108OSM    H7G11124  -0.442   5.951   9.705  0.6683  1.2045 -1.3629
  108OSM    C8F11125  -0.571   6.010   9.542 -0.5449  0.6544 -0.3091
  108OSM    H8F11126  -0.490   5.965   9.481  0.1144 -0.7234  1.4740
  108OSM    H8G11127  -0.548   6.119   9.537 -0.0386  0.5847  0.3977
  108OSM    C9F11128  -0.699   5.980   9.471 -0.4747  0.3482 -0.6950
  108OSM    H9F11129  -0.787   6.039   9.499 -1.6393 -0.6996 -2.0478
  108OSM   C10F11130  -0.715   5.867   9.397 -0.3848 -0.1545 -0.1110
  108OSM   H10F11131  -0.812   5.846   9.350 -2.8080  4.6130  2.0594
  108OSM   C11F11132  -0.608   5.764   9.370 -0.6297  0.2691 -0.4108
  108OSM   H11F11133  -0.527   5.763   9.446 -0.7742  0.1730 -0.2576
  108OSM   H11G11134  -0.555   5.779   9.273  0.7318 -1.2635  0.0587
  108OSM   C12F11135  -0.652   5.616   9.375 -0.6605  0.1646 -0.1077
  108OSM   H12F11136  -0.717   5.610   9.465 -0.4130 -1.6283 -0.0313
  108OSM   H12G11137  -0.568   5.545   9.391 -1.5374 -0.6690  0.9360
  108OSM   C13F11138  -0.735   5.576   9.251 -0.1692 -0.3054 -0.3778
  108OSM   H13F11139  -0.664   5.529   9.179  1.5504 -1.4943  1.9681
  108OSM   H13G11140  -0.797   5.660   9.212 -1.1214 -0.1177  1.4474
  108OSM   C14F11141  -0.847   5.474   9.287 -0.6164  0.5354  0.6140
  108OSM   H14F11142  -0.910   5.522   9.365  2.2912  1.9139  2.2722
  108OSM   H14G11143  -0.816   5.381   9.339 -0.5307 -0.0573 -0.4838
  108OSM   C15F11144  -0.935   5.435   9.165 -0.5067 -0.0399  0.1081
  108OSM   H15F11145  -0.879   5.350   9.119  1.4609  1.9038 -1.2739
  108OSM   H15G11146  -0.925   5.517   9.091  0.8406 -0.7700 -0.5745
  108OSM   C16F11147  -1.085   5.426   9.181 -0.6881 -0.0517  0.1433
  108OSM   H16F11148  -1.129   5.527   9.170 -0.9335 -0.2581 -0.8621
  108OSM   H16G11149  -1.107   5.389   9.283 -2.9229 -0.1833 -0.3482
  108OSM   C17F11150  -1.138   5.343   9.062  0.2452  0.9198  0.1982
  108OSM   H17F11151  -1.248   5.339   9.073 -0.0687 -0.3531 -2.4888
  108OSM   H17G11152  -1.096   5.240   9.061  1.0109  1.2225 -1.2514
  108OSM   C18F11153  -1.120   5.395   8.921 -0.3828  0.0095  0.4426
  108OSM   H18F11154  -1.097   5.503   8.929 -1.0863  0.5705 -3.2882
  108OSM   H18G11155  -1.198   5.370   8.846  1.2432 -0.9702 -0.9867
  108OSM   H18H11156  -1.037   5.342   8.869 -0.9181 -1.0646  0.6479
  109OSM      N11157   5.406   5.011  11.150 -0.4052 -0.3189 -0.4638
  109OSM    C1511158   5.324   5.094  11.042  0.0763  0.3996 -0.0971
  109OSM   H15A11159   5.230   5.044  11.024 -0.1158  0.9599 -0.6632
  109OSM   H15B11160   5.377   5.107  10.949  4.1070  1.8793  2.1585
  109OSM   H15C11161   5.296   5.191  11.081 -0.2976  0.1316  0.3179
  109OSM    C1411162   5.549   5.048  11.148 -0.1878  0.9874  0.3192
  109OSM   H14A11163   5.591   5.010  11.056  0.0591 -2.8600  1.8525
  109OSM   H14B11164   5.600   4.984  11.218 -0.7004  3.1356  2.8170
  109OSM   H14C11165   5.570   5.150  11.178  0.0480  0.8003  0.7880
  109OSM    C1311166   5.345   5.045  11.281  0.1210  0.4314 -0.1843
  109OSM   H13A11167   5.369   5.149  11.298 -2.0861  0.7637  1.2511
  109OSM   H13B11168   5.406   5.001  11.359 -1.3109  0.7526  1.1754
  109OSM   H13C11169   5.240   5.022  11.290  0.0289  1.4742  2.4166
  109OSM    C1211170   5.386   4.862  11.132 -0.0837  0.0394  0.0238
  109OSM   H12A11171   5.286   4.829  11.154  0.7531 -2.5134  0.2779
  109OSM   H12B11172   5.457   4.815  11.199 -1.1949  1.2240  2.1374
  109OSM    C1111173   5.422   4.798  10.990  0.4964 -0.0031 -0.0351
  109OSM   H11A11174   5.345   4.840  10.922  0.6386  1.1718  0.5214
  109OSM   H11B11175   5.413   4.688  11.009 -1.0883  0.1170  0.0649
  109OSM      P11176   5.668   4.738  10.951 -0.2748 -0.1912  0.1936
  109OSM    O1311177   5.792   4.804  10.903 -0.9624 -0.1731 -0.0482
  109OSM    O1411178   5.679   4.697  11.091 -0.3628 -0.0278  0.0520
  109OSM    O1111179   5.636   4.622  10.849 -0.4167 -0.1108  0.6022
  109OSM    O1211180   5.553   4.834  10.938 -0.1968 -0.4875 -0.0800
  109OSM    C1S11181   5.567   4.649  10.728  0.3645  0.1519  0.2415
  109OSM    H1S11182   5.509   4.744  10.724 -0.4927 -0.3509  0.3351
  109OSM    H1T11183   5.499   4.567  10.697  2.6494 -1.5922 -0.4013
  109OSM     NF11184   5.603   4.724  10.483 -0.2279  0.0895  0.5685
  109OSM    HNF11185   5.572   4.663  10.411  0.5767  0.8509 -0.4768
  109OSM    C2S11186   5.665   4.671  10.604 -0.7207 -0.0374  0.4700
  109OSM    H2S11187   5.746   4.739  10.637 -0.1399 -0.1126 -0.7477
  109OSM    C3S11188   5.725   4.534  10.563  0.3218 -0.8808  1.3757
  109OSM    H3S11189   5.651   4.459  10.527  1.6036 -0.3285 -3.0908
  109OSM     O311190   5.794   4.480  10.676 -0.2308  0.2623  0.1539
  109OSM    HO311191   5.778   4.535  10.753 -2.4658  1.4889 -1.0682
  109OSM    C4S11192   5.828   4.559  10.456  0.2082 -0.3495  0.2240
  109OSM    H4S11193   5.911   4.627  10.480 -0.8836  1.0441  0.1748
  109OSM    C5S11194   5.812   4.529  10.326  0.7191  0.4234 -0.1020
  109OSM    H5S11195   5.718   4.488  10.285  1.0718 -1.7888  1.1365
  109OSM    C6S11196   5.912   4.535  10.217 -0.6287  0.7756  0.0465
  109OSM    H6S11197   5.955   4.433  10.208 -0.0417  1.0186  0.0626
  109OSM    H6T11198   5.996   4.605  10.237  1.1942 -1.3794  0.2766
  109OSM    C7S11199   5.847   4.574  10.081 -0.4010  0.7078 -0.3311
  109OSM    H7S11200   5.805   4.677  10.080 -0.1196  0.8242 -0.2504
  109OSM    H7T11201   5.764   4.507  10.050  0.3714 -0.2612 -0.3698
  109OSM    C8S11202   5.955   4.568   9.971 -0.2455 -0.7895  0.3385
  109OSM    H8S11203   6.007   4.471   9.981 -0.0567 -0.6713  0.5125
  109OSM    H8T11204   6.026   4.649  10.001  1.5201 -2.8527  2.1169
  109OSM    C9S11205   5.882   4.588   9.833 -0.1438 -0.0674 -0.1705
  109OSM    H9S11206   5.823   4.682   9.835  0.5986  0.4101 -0.2533
  109OSM    H9T11207   5.817   4.499   9.819 -1.2828  0.6482  0.5168
  109OSM   C10S11208   5.986   4.607   9.715  0.2508 -0.4309  0.1585
  109OSM   H10S11209   6.072   4.537   9.720  0.6194  0.0612  0.8093
  109OSM   H10T11210   6.020   4.712   9.729 -1.6562  0.3560 -0.7927
  109OSM   C11S11211   5.926   4.604   9.573  0.9159  0.7413 -0.4893
  109OSM   H11S11212   5.869   4.695   9.543 -0.1963  0.1463 -0.2387
  109OSM   H11T11213   5.844   4.529   9.573 -1.2482  2.8561  3.0615
  109OSM   C12S11214   6.033   4.592   9.465 -0.4180  0.2576 -0.0575
  109OSM   H12S11215   6.105   4.508   9.475  0.1694  0.5935 -1.2724
  109OSM   H12T11216   6.086   4.689   9.482  2.5715 -1.7101  3.5993
  109OSM   C13S11217   5.957   4.577   9.328 -0.4876 -0.0852  0.0079
  109OSM   H13S11218   5.870   4.646   9.333 -1.1548 -0.9515  4.4085
  109OSM   H13T11219   5.919   4.473   9.322 -2.7069  0.6466  0.4983
  109OSM   C14S11220   6.042   4.610   9.200  0.7849 -0.0213  0.0146
  109OSM   H14S11221   6.114   4.686   9.237  1.3554 -0.6857  0.2790
  109OSM   H14T11222   5.986   4.650   9.112 -0.4731 -1.1751  0.2606
  109OSM   C15S11223   6.106   4.489   9.134 -0.1371  0.5566  0.9344
  109OSM   H15S11224   6.028   4.412   9.114 -0.9575  1.9074 -1.5044
  109OSM   H15T11225   6.180   4.448   9.206 -1.5526  1.1150  2.7845
  109OSM   C16S11226   6.170   4.511   8.996 -1.1469  0.2519  0.3495
  109OSM   H16S11227   6.104   4.547   8.915 -1.2210  0.5585  0.5450
  109OSM   H16T11228   6.215   4.421   8.950  1.3320  1.5848 -0.0036
  109OSM   C17S11229   6.284   4.611   9.000  0.1834 -0.6570 -0.0552
  109OSM   H17S11230   6.345   4.574   9.086 -1.7203 -0.2710  1.5300
  109OSM   H17T11231   6.242   4.712   9.015 -0.1591 -0.9022  0.7224
  109OSM   C18S11232   6.369   4.619   8.866  0.6051  0.1952 -0.3199
  109OSM   H18S11233   6.431   4.710   8.878 -1.3076  1.7323 -1.4975
  109OSM   H18T11234   6.296   4.630   8.784  1.3563  1.9662 -0.7869
  109OSM   H18U11235   6.430   4.526   8.864  1.5146  0.7361  0.9136
  109OSM    C1F11236   5.561   4.844  10.468  0.0645  0.0438 -0.4435
  109OSM     OF11237   5.575   4.925  10.557 -0.0512 -0.0658 -0.4609
  109OSM    C2F11238   5.482   4.871  10.345 -0.0836 -0.2686 -0.1180
  109OSM    H2F11239   5.427   4.964  10.371  0.8376  0.0396  0.8194
  109OSM    H2G11240   5.406   4.791  10.338 -0.5711 -0.0306  1.8711
  109OSM    C3F11241   5.573   4.875  10.219 -0.0460 -0.9820  1.6901
  109OSM    H3F11242   5.634   4.783  10.226 -0.5633 -1.8241 -2.6491
  109OSM    H3G11243   5.648   4.958  10.218 -1.1271  0.0434 -0.5210
  109OSM    C4F11244   5.498   4.879  10.086  0.9257 -0.3248 -0.4024
  109OSM    H4F11245   5.482   4.989  10.080  2.5948  0.2464  2.9752
  109OSM    H4G11246   5.403   4.822  10.101  0.6935  0.3989  1.1518
  109OSM    C5F11247   5.570   4.809   9.977 -0.4970 -0.5485  0.1857
  109OSM    H5F11248   5.593   4.702   9.997 -2.2653 -0.9725  0.1045
  109OSM    H5G11249   5.663   4.858   9.940  1.4729 -3.3510  1.0677
  109OSM    C6F11250   5.485   4.800   9.851  0.2262  0.0214 -0.1799
  109OSM    H6F11251   5.450   4.898   9.814 -1.0006  0.5266  2.1692
  109OSM    H6G11252   5.398   4.731   9.859  1.0747 -0.9748  0.7920
  109OSM    C7F11253   5.564   4.749   9.730  0.3093 -0.2527 -0.3578
  109OSM    H7F11254   5.591   4.642   9.744  0.4727  0.1457  3.2656
  109OSM    H7G11255   5.645   4.824   9.715 -1.9719  2.4915  0.1113
  109OSM    C8F11256   5.480   4.764   9.610  0.3972  0.1649 -0.2439
  109OSM    H8F11257   5.374   4.735   9.628  0.2930 -1.2095 -2.5519
  109OSM    H8G11258   5.501   4.687   9.532 -3.0890  0.3254 -1.5477
  109OSM    C9F11259   5.475   4.899   9.539 -0.1221  0.6989  0.2371
  109OSM    H9F11260   5.434   4.982   9.599  0.4640  0.4686  0.9779
  109OSM   C10F11261   5.495   4.921   9.405 -0.3116  0.7778 -0.1537
  109OSM   H10F11262   5.474   5.019   9.361 -1.6396  0.2614 -0.7209
  109OSM   C11F11263   5.529   4.814   9.308  0.2967 -0.1812 -0.1259
  109OSM   H11F11264   5.431   4.775   9.273 -1.4297  0.7814  3.2670
  109OSM   H11G11265   5.589   4.729   9.347 -1.7127 -0.9661  1.4125
  109OSM   C12F11266   5.598   4.869   9.177 -0.1996 -0.6513 -0.0387
  109OSM   H12F11267   5.702   4.901   9.200 -1.1336  1.4427  1.6922
  109OSM   H12G11268   5.545   4.961   9.146 -0.3932 -0.8814 -0.3991
  109OSM   C13F11269   5.582   4.768   9.058 -0.3045 -0.3594  0.3774
  109OSM   H13F11270   5.597   4.820   8.961  0.6103  1.0556  1.2446
  109OSM   H13G11271   5.484   4.716   9.051 -1.1066  1.2441 -0.7482
  109OSM   C14F11272   5.695   4.654   9.066 -0.3044 -0.5424  0.7333
  109OSM   H14F11273   5.708   4.614   9.169 -1.6948 -0.4372  0.9708
  109OSM   H14G11274   5.788   4.703   9.030  0.3073 -1.1025  1.5111
  109OSM   C15F11275   5.661   4.532   8.980 -0.0405 -0.6413 -0.3524
  109OSM   H15F11276   5.641   4.564   8.875 -0.8126 -1.3832 -0.4391
  109OSM   H15G11277   5.563   4.493   9.015 -0.7576  2.9546  2.2272
  109OSM   C16F11278   5.765   4.420   8.983 -0.0496 -0.5313 -0.8877
  109OSM   H16F11279   5.756   4.347   9.066  1.2402 -0.1878 -0.4181
  109OSM   H16G11280   5.861   4.476   8.992 -0.5721  0.4303 -1.2223
  109OSM   C17F11281   5.764   4.336   8.858  0.2143  0.4587 -0.7036
  109OSM   H17F11282   5.764   4.404   8.770  1.6050  0.2215 -0.9123
  109OSM   H17G11283   5.669   4.278   8.858  0.1816  0.4932 -1.6674
  109OSM   C18F11284   5.888   4.237   8.855 -0.4095 -0.0353  0.4760
  109OSM   H18F11285   5.883   4.160   8.935 -3.9228 -1.1384 -0.5853
  109OSM   H18G11286   5.971   4.305   8.880 -1.4358  0.9802  1.2396
  109OSM   H18H11287   5.889   4.185   8.757 -1.9310  0.1164  0.3500
  110OSM      N11288   6.297   3.320  10.991 -0.0355  0.1382 -1.1418
  110OSM    C1511289   6.203   3.420  10.952 -0.0703  0.2152  0.0428
  110OSM   H15A11290   6.129   3.374  10.889  1.0908  1.4448 -2.3294
  110OSM   H15B11291   6.242   3.502  10.894  0.1522 -0.5532 -0.9071
  110OSM   H15C11292   6.156   3.464  11.039  0.2008 -0.1572  0.3838
  110OSM    C1411293   6.424   3.392  11.045 -0.4648 -0.0234 -0.1360
  110OSM   H14A11294   6.484   3.452  10.978 -1.1521  0.2233 -0.5406
  110OSM   H14B11295   6.496   3.321  11.083  0.6083  0.4720 -1.1738
  110OSM   H14C11296   6.395   3.445  11.134 -1.3486 -0.1823 -0.3165
  110OSM    C1311297   6.241   3.238  11.109  0.0050 -0.0824  0.0538
  110OSM   H13A11298   6.210   3.309  11.184 -1.8787 -1.6444  0.8239
  110OSM   H13B11299   6.312   3.165  11.143  1.4519  0.9740 -0.5570
  110OSM   H13C11300   6.147   3.190  11.088 -1.8719  3.0779  0.6788
  110OSM    C1211301   6.327   3.233  10.872  0.2116 -0.4317  0.4393
  110OSM   H12A11302   6.358   3.305  10.798 -1.3757 -0.5247 -0.3582
  110OSM   H12B11303   6.236   3.186  10.836 -0.1297  2.1703 -2.5610
  110OSM    C1111304   6.435   3.128  10.882 -1.1673  0.1168 -0.1173
  110OSM   H11A11305   6.532   3.173  10.911 -0.7085 -0.1014 -1.2648
  110OSM   H11B11306   6.457   3.077  10.785  0.7448 -0.4517  0.5798
  110OSM      P11307   6.491   2.946  11.062  0.0415 -0.7232  0.1913
  110OSM    O1311308   6.576   3.046  11.132 -0.3637  0.0207 -0.1010
  110OSM    O1411309   6.419   2.852  11.146  1.1800  0.5060 -0.1472
  110OSM    O1111310   6.573   2.860  10.959  0.3416  0.1817  0.2517
  110OSM    O1211311   6.396   3.027  10.973 -1.1136  0.0196  0.2967
  110OSM    C1S11312   6.512   2.768  10.866  0.3816  0.3059  0.3547
  110OSM    H1S11313   6.403   2.761  10.885  0.3780 -0.3781  0.1178
  110OSM    H1T11314   6.543   2.663  10.887  0.2897  0.3800  0.8638
  110OSM     NF11315   6.465   2.695  10.638  0.1912 -0.6775  0.0412
  110OSM    HNF11316   6.482   2.603  10.671 -1.3718 -0.9357  0.2072
  110OSM    C2S11317   6.549   2.788  10.713  0.4297 -0.3312 -0.3345
  110OSM    H2S11318   6.520   2.891  10.683 -0.6136 -0.5120  0.0184
  110OSM    C3S11319   6.699   2.763  10.693 -0.0301  0.4555  0.6279
  110OSM    H3S11320   6.726   2.656  10.700  1.6659  0.8243  0.4063
  110OSM     O311321   6.780   2.812  10.800  0.2074 -0.3693 -0.4815
  110OSM    HO311322   6.710   2.834  10.863  1.5591  0.8858  0.6571
  110OSM    C4S11323   6.747   2.816  10.564 -0.1859  0.5071  0.0891
  110OSM    H4S11324   6.739   2.742  10.482  0.8936  0.8096 -0.3038
  110OSM    C5S11325   6.789   2.938  10.540 -0.3016  0.1631 -0.7282
  110OSM    H5S11326   6.805   3.007  10.624 -2.2007 -0.4325  0.1579
  110OSM    C6S11327   6.843   2.981  10.408 -0.3711  0.1337 -0.2986
  110OSM    H6S11328   6.954   2.991  10.411 -0.1466 -1.7551 -1.1907
  110OSM    H6T11329   6.800   3.082  10.390 -0.6046 -0.1836 -1.5730
  110OSM    C7S11330   6.807   2.906  10.277 -0.5796 -0.2006  0.0403
  110OSM    H7S11331   6.698   2.915  10.260 -0.4789 -2.0434 -1.9089
  110OSM    H7T11332   6.840   2.800  10.283  0.8679  0.2330  0.1653
  110OSM    C8S11333   6.866   2.961  10.148  0.4555 -0.2605  0.2535
  110OSM    H8S11334   6.971   2.995  10.155 -0.1243  1.3394  2.2683
  110OSM    H8T11335   6.796   3.046  10.131 -2.1370 -1.6851  2.8729
  110OSM    C9S11336   6.849   2.861  10.035 -0.3059  0.3470  0.6425
  110OSM    H9S11337   6.742   2.832  10.028 -0.0429 -0.4598 -0.1416
  110OSM    H9T11338   6.898   2.764  10.055 -0.5147 -0.0999 -0.8961
  110OSM   C10S11339   6.893   2.913   9.898  0.3224 -0.6446  0.7977
  110OSM   H10S11340   6.848   3.014   9.897 -1.7424 -1.5149  0.5616
  110OSM   H10T11341   6.835   2.855   9.824 -0.6068  2.7191 -1.3195
  110OSM   C11S11342   7.041   2.899   9.869 -0.2696  0.3191  0.9153
  110OSM   H11S11343   7.050   2.792   9.840 -1.0020 -0.4825  3.3817
  110OSM   H11T11344   7.094   2.928   9.962  0.0054  2.0515  0.2627
  110OSM   C12S11345   7.086   2.986   9.756  0.1099  0.4200 -0.2233
  110OSM   H12S11346   7.062   3.091   9.783  1.3035  0.3156  1.4307
  110OSM   H12T11347   7.012   2.969   9.675 -0.1311  1.0571 -0.1429
  110OSM   C13S11348   7.234   2.968   9.721  0.4427 -0.0981 -0.3482
  110OSM   H13S11349   7.239   2.868   9.672  0.7052 -0.9839  1.4156
  110OSM   H13T11350   7.286   2.971   9.819 -0.1967  3.0012 -0.0048
  110OSM   C14S11351   7.295   3.076   9.633  0.3105  0.6173  0.3821
  110OSM   H14S11352   7.402   3.052   9.611  0.4373  0.6697  0.9288
  110OSM   H14T11353   7.291   3.172   9.689  0.6309 -0.2295  1.9248
  110OSM   C15S11354   7.221   3.083   9.495 -0.0889  0.1854 -0.2703
  110OSM   H15S11355   7.117   3.117   9.515 -1.0621 -2.6869 -0.0300
  110OSM   H15T11356   7.208   2.981   9.453  0.2349 -0.3521  0.8895
  110OSM   C16S11357   7.282   3.176   9.389 -0.4111 -0.4487  0.3550
  110OSM   H16S11358   7.392   3.166   9.381 -0.4412 -0.7463  0.3109
  110OSM   H16T11359   7.274   3.283   9.420  1.3045  0.3723 -1.8008
  110OSM   C17S11360   7.208   3.171   9.254 -0.1934  0.8527  0.0234
  110OSM   H17S11361   7.236   3.076   9.204 -1.6162  0.2871  0.2741
  110OSM   H17T11362   7.245   3.258   9.194  0.6534  2.2977  2.5055
  110OSM   C18S11363   7.064   3.183   9.252  0.0759 -0.4938 -0.1400
  110OSM   H18S11364   7.022   3.096   9.308 -0.5013  0.3843  0.8106
  110OSM   H18T11365   7.028   3.193   9.148 -1.5639 -3.1619  0.0705
  110OSM   H18U11366   7.028   3.275   9.303 -0.4641 -1.6947  1.7684
  110OSM    C1F11367   6.338   2.724  10.597  0.7307  0.3746 -0.1594
  110OSM     OF11368   6.296   2.840  10.606 -0.7984  0.0656  0.3253
  110OSM    C2F11369   6.240   2.607  10.571  0.2194 -0.3082 -0.3599
  110OSM    H2F11370   6.195   2.585  10.670 -1.0580 -1.2248 -1.1044
  110OSM    H2G11371   6.293   2.518  10.532  3.0038  0.5801  1.1678
  110OSM    C3F11372   6.117   2.647  10.486 -0.2302 -0.1081  0.7211
  110OSM    H3F11373   6.056   2.731  10.526 -0.7899 -1.4029  2.7318
  110OSM    H3G11374   6.041   2.568  10.498 -0.6147  0.4592  2.2284
  110OSM    C4F11375   6.141   2.658  10.330  0.0179 -0.1720  0.5995
  110OSM    H4F11376   6.209   2.579  10.292  0.4048  0.5840 -0.3312
  110OSM    H4G11377   6.195   2.754  10.314  0.6674 -0.3901  1.4111
  110OSM    C5F11378   6.016   2.652  10.252 -0.1200  0.1014  0.0461
  110OSM    H5F11379   5.945   2.725  10.295  0.1063  1.8589 -2.3586
  110OSM    H5G11380   5.964   2.554  10.263 -2.7056  1.1631 -1.8042
  110OSM    C6F11381   6.036   2.670  10.103 -0.4956 -0.1886 -0.0504
  110OSM    H6F11382   6.112   2.749  10.085 -0.0474 -0.6861 -0.3597
  110OSM    H6G11383   5.940   2.701  10.057 -0.8881  2.5305  2.3158
  110OSM    C7F11384   6.091   2.545  10.028 -0.5859  0.5574 -0.0196
  110OSM    H7F11385   6.018   2.462  10.020 -0.2168  0.3192 -1.0680
  110OSM    H7G11386   6.179   2.496  10.074  0.1485  1.9417  0.1051
  110OSM    C8F11387   6.134   2.575   9.881 -0.3412  0.9184  0.4857
  110OSM    H8F11388   6.220   2.508   9.858  0.3705  2.5661 -2.1174
  110OSM    H8G11389   6.181   2.675   9.878 -0.4304  0.9498 -0.3078
  110OSM    C9F11390   6.015   2.586   9.793  0.6242 -0.1569  0.0061
  110OSM    H9F11391   5.933   2.648   9.833  0.4608  0.2167 -0.8865
  110OSM   C10F11392   6.004   2.524   9.679 -0.4788  0.1827  0.6121
  110OSM   H10F11393   5.909   2.526   9.623  1.3974 -1.3826 -2.9248
  110OSM   C11F11394   6.112   2.428   9.610  0.2942  0.0040  0.1860
  110OSM   H11F11395   6.104   2.321   9.636  1.3251 -0.6076 -1.7726
  110OSM   H11G11396   6.217   2.459   9.630  0.4678  0.3124 -1.0949
  110OSM   C12F11397   6.106   2.458   9.458 -0.1184  0.3995  0.6939
  110OSM   H12F11398   6.138   2.564   9.445 -2.2933  0.9745 -0.6136
  110OSM   H12G11399   6.000   2.458   9.423 -0.0762 -0.1394  0.5694
  110OSM   C13F11400   6.188   2.360   9.377  0.0010 -0.1876  0.7926
  110OSM   H13F11401   6.169   2.260   9.423 -0.5671 -0.6631 -0.4249
  110OSM   H13G11402   6.291   2.396   9.398 -0.0489 -0.3717  1.3696
  110OSM   C14F11403   6.152   2.365   9.231 -0.2508 -0.0456 -0.4890
  110OSM   H14F11404   6.161   2.471   9.199  0.3632  0.4276  1.1363
  110OSM   H14G11405   6.043   2.345   9.240 -0.3979  1.0861  0.4868
  110OSM   C15F11406   6.209   2.256   9.142  0.5330 -0.1907  0.5632
  110OSM   H15F11407   6.145   2.168   9.168 -1.5451  1.7758  2.6131
  110OSM   H15G11408   6.316   2.229   9.148  0.8601  0.9743  0.1810
  110OSM   C16F11409   6.187   2.293   8.992 -0.4483 -0.3118  0.8093
  110OSM   H16F11410   6.244   2.386   8.970  1.6410 -1.4489  1.1693
  110OSM   H16G11411   6.080   2.320   8.979 -0.5169  1.9770  4.5735
  110OSM   C17F11412   6.234   2.180   8.889  0.7182  0.0255 -0.8996
  110OSM   H17F11413   6.328   2.131   8.925  1.4797  1.2878 -1.1161
  110OSM   H17G11414   6.256   2.226   8.791 -1.1336  0.7516 -1.0059
  110OSM   C18F11415   6.123   2.076   8.882 -0.3265  0.0352  0.2692
  110OSM   H18F11416   6.025   2.118   8.849  0.7116  1.8503 -0.7025
  110OSM   H18G11417   6.108   2.024   8.979  2.5951  0.7732  1.2246
  110OSM   H18H11418   6.165   2.005   8.808  1.4168  0.8401  0.4218
  111OSM      N11419   0.644   1.365  11.168 -0.2464  0.1366 -0.2081
  111OSM    C1511420   0.600   1.352  11.314  0.9502 -0.0650  0.0150
  111OSM   H15A11421   0.691   1.370  11.368 -0.0227  1.6440  1.1615
  111OSM   H15B11422   0.563   1.253  11.339 -2.4613  0.3823 -2.5682
  111OSM   H15C11423   0.524   1.424  11.339 -2.1647 -2.6595 -1.2592
  111OSM    C1411424   0.711   1.496  11.151  0.3733  0.9165 -0.1983
  111OSM   H14A11425   0.648   1.575  11.187 -0.6098  1.1417 -2.3130
  111OSM   H14B11426   0.731   1.523  11.049 -0.9625  0.6335 -0.5550
  111OSM   H14C11427   0.807   1.501  11.201  2.1566  1.5663 -3.4100
  111OSM    C1311428   0.758   1.269  11.150 -0.4954  0.3959  0.0104
  111OSM   H13A11429   0.837   1.286  11.223 -0.4955 -1.1679  0.4053
  111OSM   H13B11430   0.802   1.269  11.051  0.4783 -1.5250  0.3988
  111OSM   H13C11431   0.731   1.168  11.176  1.9370 -0.3686 -0.1798
  111OSM    C1211432   0.523   1.338  11.076 -0.9481 -0.6322  0.1499
  111OSM   H12A11433   0.448   1.416  11.076 -1.1038 -0.7762 -0.0938
  111OSM   H12B11434   0.474   1.256  11.126 -0.4840 -0.3853  1.0259
  111OSM    C1111435   0.555   1.303  10.927 -0.2213  0.3590  0.3502
  111OSM   H11A11436   0.466   1.268  10.870 -0.7066  0.0731  1.2593
  111OSM   H11B11437   0.614   1.209  10.926 -4.1957 -2.4353  0.8676
  111OSM      P11438   0.748   1.388  10.768  0.0857 -0.2305  0.0764
  111OSM    O1311439   0.801   1.520  10.736 -0.5592  0.0614 -0.2268
  111OSM    O1411440   0.835   1.279  10.820 -0.7795  0.1459 -0.0199
  111OSM    O1111441   0.680   1.333  10.636  0.1269 -0.4870  0.2502
  111OSM    O1211442   0.616   1.416  10.863 -0.1579 -0.1743  0.5722
  111OSM    C1S11443   0.561   1.395  10.589 -0.1292 -0.4494 -0.0804
  111OSM    H1S11444   0.575   1.503  10.563  1.6347 -1.1515 -2.3975
  111OSM    H1T11445   0.484   1.394  10.669  0.5013  2.2547  0.6841
  111OSM     NF11446   0.431   1.394  10.376 -1.0529  0.7271 -0.4152
  111OSM    HNF11447   0.336   1.364  10.381 -0.5263 -0.8698  0.6318
  111OSM    C2S11448   0.520   1.321  10.462  1.0958 -0.7901 -0.5324
  111OSM    H2S11449   0.613   1.286  10.412  1.2822  1.6382 -2.0378
  111OSM    C3S11450   0.442   1.188  10.502 -0.3069 -0.0156  0.6927
  111OSM    H3S11451   0.345   1.219  10.548 -0.6450  1.8180 -1.0735
  111OSM     O311452   0.504   1.119  10.606 -0.1325 -0.4256 -0.0543
  111OSM    HO311453   0.575   1.175  10.636 -0.2293  0.5296 -1.5311
  111OSM    C4S11454   0.426   1.097  10.375 -0.6271  0.1682 -0.8197
  111OSM    H4S11455   0.527   1.086  10.333 -0.5770 -0.1345 -0.6256
  111OSM    C5S11456   0.309   1.033  10.340  0.4622 -1.1359  0.4531
  111OSM    H5S11457   0.219   1.034  10.403  0.2172 -0.9664  0.1019
  111OSM    C6S11458   0.294   0.956  10.210 -0.2837  0.6451  0.3114
  111OSM    H6S11459   0.205   0.888  10.213  0.2663 -0.1544 -0.8705
  111OSM    H6T11460   0.384   0.892  10.197 -0.1310  0.8555  0.3301
  111OSM    C7S11461   0.273   1.041  10.088  0.1873  0.2462 -0.1759
  111OSM    H7S11462   0.360   1.109  10.073  0.0631  0.0034 -2.4025
  111OSM    H7T11463   0.184   1.104  10.105  2.4419  3.3960  0.8144
  111OSM    C8S11464   0.256   0.947   9.963 -0.0338  0.2990 -0.0121
  111OSM    H8S11465   0.179   0.869   9.974  0.3135 -0.0057  0.2843
  111OSM    H8T11466   0.354   0.895   9.956 -1.1703 -2.0131  0.4638
  111OSM    C9S11467   0.242   1.031   9.837  0.2820  0.3519  0.3114
  111OSM    H9S11468   0.330   1.098   9.844  1.6123 -1.1608 -1.0880
  111OSM    H9T11469   0.149   1.092   9.839 -0.4799 -0.7615  2.9478
  111OSM   C10S11470   0.248   0.950   9.706 -0.5026 -0.1862 -0.0121
  111OSM   H10S11471   0.174   0.867   9.703  0.7935 -1.3642 -0.0778
  111OSM   H10T11472   0.345   0.898   9.697 -0.5897 -0.8292  2.2480
  111OSM   C11S11473   0.231   1.033   9.576  0.1082  0.2548  0.1494
  111OSM   H11S11474   0.331   1.055   9.534  0.7092 -1.4177  0.6075
  111OSM   H11T11475   0.180   1.128   9.602  0.4568  0.3163  0.6069
  111OSM   C12S11476   0.154   0.954   9.471  0.7518 -0.0986  0.3202
  111OSM   H12S11477   0.055   0.935   9.517  0.4670  2.0835  0.7033
  111OSM   H12T11478   0.209   0.860   9.449  1.5901  0.7839 -1.5952
  111OSM   C13S11479   0.143   1.027   9.340 -0.2302  0.4260 -0.8769
  111OSM   H13S11480   0.245   1.035   9.297  0.5908 -1.4595  0.5733
  111OSM   H13T11481   0.119   1.135   9.349 -0.6818  0.2248  0.6690
  111OSM   C14S11482   0.051   0.952   9.240  0.9746  0.3951 -0.4085
  111OSM   H14S11483  -0.038   0.917   9.297  0.8430  0.0777 -0.8055
  111OSM   H14T11484   0.110   0.861   9.216  4.5608  1.9580  1.5383
  111OSM   C15S11485   0.010   1.036   9.123 -0.4800 -0.0104 -0.3659
  111OSM   H15S11486  -0.029   1.130   9.168 -0.3167 -0.7369  1.3608
  111OSM   H15T11487  -0.065   0.978   9.065  0.6681 -1.6955 -0.2403
  111OSM   C16S11488   0.123   1.057   9.026  0.2154 -0.6518  0.3313
  111OSM   H16S11489   0.156   0.954   9.001  0.6402 -0.7942  1.4120
  111OSM   H16T11490   0.215   1.104   9.068 -0.7930 -0.7770  2.8796
  111OSM   C17S11491   0.083   1.134   8.892 -0.1417  0.3604 -0.4206
  111OSM   H17S11492  -0.002   1.084   8.842 -1.2294  1.3602  0.3912
  111OSM   H17T11493   0.172   1.134   8.826  0.1439 -1.8199 -0.1406
  111OSM   C18S11494   0.043   1.283   8.915  0.2012  0.5029 -0.7723
  111OSM   H18S11495   0.124   1.308   8.986 -0.4710 -0.8758  0.5382
  111OSM   H18T11496  -0.052   1.299   8.971  1.2299  0.3901  1.0655
  111OSM   H18U11497   0.034   1.348   8.825  1.0393 -0.0537 -1.2667
  111OSM    C1F11498   0.471   1.498  10.305 -0.4253  0.3678  0.1562
  111OSM     OF11499   0.581   1.550  10.314 -0.1820  0.4419 -0.1988
  111OSM    C2F11500   0.372   1.562  10.209 -0.2397 -0.7069 -0.1197
  111OSM    H2F11501   0.298   1.614  10.274  1.3547  0.1849  1.0780
  111OSM    H2G11502   0.321   1.477  10.159  0.1206  0.1598 -2.0679
  111OSM    C3F11503   0.435   1.657  10.101  0.7453  0.4238  0.8935
  111OSM    H3F11504   0.511   1.597  10.046 -1.9214 -0.0340 -2.6774
  111OSM    H3G11505   0.492   1.739  10.150  1.2518  2.2819 -2.4405
  111OSM    C4F11506   0.324   1.721  10.009  0.6368 -1.1321  0.7962
  111OSM    H4F11507   0.259   1.769  10.085  1.6572  0.3055  0.8081
  111OSM    H4G11508   0.271   1.654   9.938  1.8678 -0.4230 -0.8564
  111OSM    C5F11509   0.384   1.832   9.918 -0.0773 -0.2406 -0.5266
  111OSM    H5F11510   0.452   1.786   9.843  0.0810 -1.5295  0.3647
  111OSM    H5G11511   0.435   1.911   9.977 -1.8243  0.4505  0.1281
  111OSM    C6F11512   0.277   1.909   9.846 -0.5029 -0.3213 -0.2447
  111OSM    H6F11513   0.217   1.960   9.924  3.1620  2.6394  0.9747
  111OSM    H6G11514   0.212   1.838   9.790 -1.8563  0.2310  0.5780
  111OSM    C7F11515   0.344   1.996   9.737  0.1223  0.4067  0.1132
  111OSM    H7F11516   0.412   1.936   9.673  1.3939  2.9003 -1.0261
  111OSM    H7G11517   0.396   2.080   9.787 -0.6330  2.6153 -2.5646
  111OSM    C8F11518   0.233   2.051   9.646 -0.2071  0.6882 -0.1997
  111OSM    H8F11519   0.165   2.121   9.699 -0.9806  1.7390 -2.4949
  111OSM    H8G11520   0.172   1.965   9.612 -2.9644  2.8732 -1.2136
  111OSM    C9F11521   0.287   2.123   9.531  0.3866 -0.4875  0.5737
  111OSM    H9F11522   0.339   2.216   9.561  2.2334 -0.9798 -0.8982
  111OSM   C10F11523   0.299   2.081   9.408 -0.2604  0.7295  0.6577
  111OSM   H10F11524   0.326   2.141   9.319  1.1553 -0.8445 -0.0373
  111OSM   C11F11525   0.253   1.938   9.369 -0.1036  0.4915  0.1218
  111OSM   H11F11526   0.142   1.936   9.367 -0.2023  1.9903  1.6565
  111OSM   H11G11527   0.289   1.859   9.437  0.5553 -1.7087 -2.5724
  111OSM   C12F11528   0.301   1.904   9.223  0.3058  0.1863  0.7829
  111OSM   H12F11529   0.411   1.918   9.213  0.0635  1.7442 -0.0457
  111OSM   H12G11530   0.251   1.963   9.143 -0.8839 -0.1607  1.2504
  111OSM   C13F11531   0.262   1.762   9.174 -1.1071  0.1530 -0.0771
  111OSM   H13F11532   0.156   1.761   9.143 -1.2292 -1.1939  0.3276
  111OSM   H13G11533   0.284   1.688   9.255 -0.4010  0.4475  0.0099
  111OSM   C14F11534   0.343   1.718   9.050 -0.2477 -0.3804 -0.0576
  111OSM   H14F11535   0.440   1.674   9.084  1.0225 -0.0782 -2.9924
  111OSM   H14G11536   0.358   1.807   8.986  1.5567 -2.0081 -2.0269
  111OSM   C15F11537   0.270   1.597   8.983  0.2682 -0.8460  1.6351
  111OSM   H15F11538   0.161   1.611   8.996 -0.0819 -1.1094 -0.5321
  111OSM   H15G11539   0.299   1.505   9.037  0.8514 -2.6191 -1.4649
  111OSM   C16F11540   0.283   1.587   8.830 -0.1764  0.2835  0.5975
  111OSM   H16F11541   0.234   1.491   8.804 -1.4263  1.0768 -0.0638
  111OSM   H16G11542   0.391   1.585   8.803  0.2835  1.4176  2.2264
  111OSM   C17F11543   0.215   1.695   8.752 -0.0956  0.3787  0.0976
  111OSM   H17F11544   0.243   1.796   8.788 -2.0745  1.9137 -2.3658
  111OSM   H17G11545   0.105   1.683   8.754 -0.5110  3.5862  1.6214
  111OSM   C18F11546   0.259   1.701   8.608  0.0578 -0.6125  0.8621
  111OSM   H18F11547   0.369   1.694   8.600  0.0685  1.1809 -1.7105
  111OSM   H18G11548   0.233   1.796   8.557  1.8681 -0.5311  0.0305
  111OSM   H18H11549   0.216   1.618   8.548 -0.2884  0.1848 -0.0143
  112OSM      N11550   6.697   5.668  10.980 -0.2022  0.4242 -0.2577
  112OSM    C1511551   6.694   5.527  11.049  0.1915  0.1881  0.6319
  112OSM   H15A11552   6.649   5.453  10.985  1.3378  0.0277 -0.0226
  112OSM   H15B11553   6.625   5.519  11.131  1.0191 -3.2483  1.1478
  112OSM   H15C11554   6.795   5.507  11.080  0.6641  1.4027 -0.0466
  112OSM    C1411555   6.743   5.782  11.072 -0.1195 -0.0305 -0.2258
  112OSM   H14A11556   6.827   5.752  11.133 -1.4941 -2.4581  0.6187
  112OSM   H14B11557   6.664   5.809  11.140 -0.6845  2.9007 -1.8612
  112OSM   H14C11558   6.776   5.872  11.021  0.4109  0.8825  1.6384
  112OSM    C1311559   6.795   5.659  10.872  0.1050 -0.1550  0.2895
  112OSM   H13A11560   6.754   5.584  10.805  0.8250 -0.1461 -0.1630
  112OSM   H13B11561   6.894   5.619  10.888  0.9596  2.0463  0.7346
  112OSM   H13C11562   6.796   5.755  10.823 -1.8334 -0.0787  0.3288
  112OSM    C1211563   6.562   5.702  10.918  0.5486 -0.4864 -0.0506
  112OSM   H12A11564   6.494   5.697  11.002 -1.3833 -1.8022 -1.5864
  112OSM   H12B11565   6.526   5.629  10.848  0.7931 -0.0096 -0.6819
  112OSM    C1111566   6.554   5.836  10.836 -0.2910  0.0798  0.5274
  112OSM   H11A11567   6.621   5.827  10.747  1.6992 -0.0987  1.9595
  112OSM   H11B11568   6.587   5.928  10.890  2.5464 -1.3717  1.4821
  112OSM      P11569   6.339   5.778  10.693 -0.3570 -0.1849  0.2088
  112OSM    O1311570   6.277   5.668  10.767  0.0659  0.2430  0.1590
  112OSM    O1411571   6.251   5.859  10.610 -0.1913  0.4784  0.9364
  112OSM    O1111572   6.458   5.718  10.598  0.1234  0.5718  0.1548
  112OSM    O1211573   6.419   5.864  10.801  0.7646 -0.3759  0.0586
  112OSM    C1S11574   6.414   5.643  10.484 -0.1557 -0.4115 -0.4087
  112OSM    H1S11575   6.362   5.720  10.423 -0.6300  1.2712  1.9726
  112OSM    H1T11576   6.333   5.574  10.516 -2.3446  3.0226  2.0951
  112OSM     NF11577   6.488   5.504  10.290  0.5522  0.3575  0.5529
  112OSM    HNF11578   6.486   5.405  10.291  2.2686  0.2354 -1.2064
  112OSM    C2S11579   6.540   5.570  10.411  0.5759  0.3541  0.1584
  112OSM    H2S11580   6.621   5.642  10.386  1.9222 -1.2640 -0.2642
  112OSM    C3S11581   6.602   5.482  10.512 -0.5295 -0.1752 -0.3557
  112OSM    H3S11582   6.529   5.403  10.539 -0.1971  0.0686  1.3660
  112OSM     O311583   6.648   5.552  10.627 -0.4585  0.8376  0.3996
  112OSM    HO311584   6.615   5.641  10.615  0.4086  0.9807 -1.2034
  112OSM    C4S11585   6.714   5.415  10.439 -0.4959  0.7527 -0.7627
  112OSM    H4S11586   6.696   5.318  10.392 -1.9433  0.8128 -0.3956
  112OSM    C5S11587   6.844   5.461  10.445  0.5515  0.1824  0.1039
  112OSM    H5S11588   6.870   5.552  10.501  1.5429 -0.1501  0.2054
  112OSM    C6S11589   6.952   5.379  10.378 -0.5431 -0.5419  0.5013
  112OSM    H6S11590   6.927   5.273  10.357  2.8035 -2.1364  3.3581
  112OSM    H6T11591   7.024   5.375  10.463 -1.6605  0.8550  1.5614
  112OSM    C7S11592   7.009   5.436  10.248 -0.1015  0.3628  0.2261
  112OSM    H7S11593   7.104   5.385  10.218  0.3757  1.3514 -0.0051
  112OSM    H7T11594   7.029   5.545  10.258 -2.9296  0.8737  0.9381
  112OSM    C8S11595   6.901   5.422  10.142 -0.0341  0.5818  0.4121
  112OSM    H8S11596   6.800   5.461  10.166 -0.9420 -0.6934 -1.0945
  112OSM    H8T11597   6.881   5.315  10.117 -0.4814  1.4206 -3.5125
  112OSM    C9S11598   6.951   5.491  10.016 -0.8989 -0.0416 -0.2150
  112OSM    H9S11599   7.052   5.455   9.986 -0.5923 -0.0326  0.7892
  112OSM    H9T11600   6.947   5.600  10.035  0.9632 -0.0535  0.4104
  112OSM   C10S11601   6.866   5.445   9.889 -0.0057  0.2805  0.3282
  112OSM   H10S11602   6.759   5.473   9.895 -0.0643 -0.1706  1.5892
  112OSM   H10T11603   6.874   5.336   9.869  0.3246  0.7301 -2.4015
  112OSM   C11S11604   6.929   5.522   9.773 -0.0094 -0.1568 -0.2998
  112OSM   H11S11605   7.036   5.502   9.753  0.2371  0.2340  0.5806
  112OSM   H11T11606   6.935   5.630   9.800 -1.8823 -0.8907  3.6710
  112OSM   C12S11607   6.848   5.496   9.637  0.4676  0.6409 -0.3131
  112OSM   H12S11608   6.753   5.552   9.627  1.0813  1.9799  0.9564
  112OSM   H12T11609   6.840   5.386   9.620 -0.9830  0.5425  0.8035
  112OSM   C13S11610   6.934   5.534   9.512  0.1504 -0.1557  0.8172
  112OSM   H13S11611   7.025   5.471   9.512  1.4847  1.6876  1.6761
  112OSM   H13T11612   6.963   5.641   9.511 -2.2964  0.5853 -0.4149
  112OSM   C14S11613   6.850   5.520   9.383 -0.6317 -0.6920  0.0974
  112OSM   H14S11614   6.767   5.594   9.377 -1.6305 -1.8667 -1.9457
  112OSM   H14T11615   6.796   5.423   9.392  0.6464 -1.3689  0.7695
  112OSM   C15S11616   6.932   5.530   9.256 -0.0825  0.0392  0.3292
  112OSM   H15S11617   7.013   5.454   9.262 -0.3434 -0.2910 -0.2812
  112OSM   H15T11618   6.981   5.628   9.239  1.0207 -0.2528  1.6073
  112OSM   C16S11619   6.860   5.492   9.120  0.1592 -0.2664  0.4409
  112OSM   H16S11620   6.772   5.555   9.093 -0.6600 -0.9610  1.3711
  112OSM   H16T11621   6.812   5.392   9.133 -0.3638  0.1766  2.2220
  112OSM   C17S11622   6.951   5.498   8.996  0.3163  0.4533  0.6530
  112OSM   H17S11623   7.017   5.411   9.017 -1.1203 -0.7980  0.0986
  112OSM   H17T11624   7.003   5.597   8.996 -2.3024  2.0026 -2.4736
  112OSM   C18S11625   6.876   5.488   8.865  0.1451 -0.2578  0.5265
  112OSM   H18S11626   6.831   5.386   8.858 -1.9772  0.6258  0.4151
  112OSM   H18T11627   6.962   5.496   8.795  0.5356  1.9437  1.1772
  112OSM   H18U11628   6.796   5.556   8.828  0.8615 -0.8974 -2.4568
  112OSM    C1F11629   6.475   5.576  10.183 -0.2597  0.0200  0.5186
  112OSM     OF11630   6.479   5.694  10.178 -1.1134 -0.7768  0.5469
  112OSM    C2F11631   6.452   5.497  10.060  0.3489  0.3220  0.4674
  112OSM    H2F11632   6.414   5.394  10.076  2.8820 -0.6976  0.4457
  112OSM    H2G11633   6.551   5.498  10.008  0.7526 -0.4182  1.2040
  112OSM    C3F11634   6.349   5.558   9.963  0.4771 -0.1072  0.7162
  112OSM    H3F11635   6.384   5.654   9.919 -0.3149  0.5678  1.5307
  112OSM    H3G11636   6.258   5.563  10.026 -0.8803 -4.2363 -0.5846
  112OSM    C4F11637   6.303   5.469   9.846  0.3518  0.4258  0.3453
  112OSM    H4F11638   6.219   5.521   9.794  0.5821  0.3019 -0.1586
  112OSM    H4G11639   6.261   5.376   9.892 -0.4966  1.8776  2.6703
  112OSM    C5F11640   6.414   5.450   9.745 -0.3767 -0.2917 -1.1938
  112OSM    H5F11641   6.498   5.388   9.781  0.9757  1.0421 -1.9566
  112OSM    H5G11642   6.451   5.551   9.719  1.0786 -0.2072  0.9003
  112OSM    C6F11643   6.360   5.376   9.621  0.0432 -0.6122 -0.2078
  112OSM    H6F11644   6.275   5.434   9.578  0.2264 -0.9161 -1.0033
  112OSM    H6G11645   6.305   5.282   9.647  0.7463 -1.7645 -2.5883
  112OSM    C7F11646   6.468   5.358   9.513 -0.5869 -0.2883  0.0719
  112OSM    H7F11647   6.562   5.333   9.566 -1.7714 -1.3871  1.7560
  112OSM    H7G11648   6.486   5.460   9.471 -2.5198  1.2649  2.6837
  112OSM    C8F11649   6.438   5.251   9.400 -0.7689 -0.3927  0.5980
  112OSM    H8F11650   6.344   5.287   9.354 -2.7121  0.0608  4.4648
  112OSM    H8G11651   6.416   5.151   9.445  0.1180 -0.9019 -0.0607
  112OSM    C9F11652   6.557   5.222   9.312 -0.2437  0.0844  0.3321
  112OSM    H9F11653   6.654   5.211   9.363 -0.6718 -2.6336  0.7125
  112OSM   C10F11654   6.553   5.217   9.176  0.2776  0.4600  0.5505
  112OSM   H10F11655   6.646   5.207   9.119  1.3865  0.3856  2.2934
  112OSM   C11F11656   6.420   5.235   9.100  0.3034  0.5149 -0.6167
  112OSM   H11F11657   6.322   5.218   9.148  0.7004  2.0441  0.8551
  112OSM   H11G11658   6.416   5.178   9.005 -0.3701 -0.1643 -0.1915
  112OSM   C12F11659   6.416   5.377   9.041  0.4036  0.1262  0.2999
  112OSM   H12F11660   6.512   5.394   8.989  1.4051 -0.7294  1.8090
  112OSM   H12G11661   6.402   5.442   9.130 -1.8064 -1.1297  0.9494
  112OSM   C13F11662   6.296   5.415   8.950 -0.1999 -0.7136 -0.4212
  112OSM   H13F11663   6.310   5.524   8.939 -1.7805 -0.5038 -0.5454
  112OSM   H13G11664   6.196   5.393   8.993  0.1068 -1.2822  0.0210
  112OSM   C14F11665   6.309   5.362   8.813 -0.3579  0.0346  1.0325
  112OSM   H14F11666   6.267   5.261   8.792  0.8636 -0.6295  1.6966
  112OSM   H14G11667   6.417   5.354   8.788  0.0098  0.8353  2.2663
  112OSM   C15F11668   6.247   5.454   8.709  0.0769 -0.2452  0.8711
  112OSM   H15F11669   6.299   5.438   8.612  1.3724  1.0388  1.3126
  112OSM   H15G11670   6.285   5.555   8.736  1.0511 -0.6970  1.2411
  112OSM   C16F11671   6.097   5.448   8.704  0.3837  0.0213 -0.0630
  112OSM   H16F11672   6.058   5.459   8.808 -0.1468 -1.5625 -0.0625
  112OSM   H16G11673   6.064   5.344   8.682 -0.6767  0.1952  0.6117
  112OSM   C17F11674   6.025   5.548   8.615 -0.6358 -0.0805  0.6547
  112OSM   H17F11675   6.059   5.648   8.652 -0.6022 -0.2729  1.1507
  112OSM   H17G11676   5.919   5.559   8.646 -0.4421  0.3809  1.1776
  112OSM   C18F11677   6.060   5.533   8.468 -0.4327  0.5255  0.0816
  112OSM   H18F11678   5.985   5.585   8.404 -0.6186 -0.5269 -0.5839
  112OSM   H18G11679   6.050   5.425   8.443  0.3450  0.0555  1.6854
  112OSM   H18H11680   6.163   5.564   8.442 -0.4627 -0.4220 -1.3046
  113OSM      N11681   0.529   6.101  11.306  0.2814 -0.3080  0.4441
  113OSM    C1511682   0.392   6.125  11.353  0.1703  0.1340 -0.8796
  113OSM   H15A11683   0.390   6.176  11.448  1.2449  1.7056 -1.6518
  113OSM   H15B11684   0.351   6.026  11.367 -0.7793  0.6508  0.0344
  113OSM   H15C11685   0.321   6.173  11.287  0.1453  1.7545  0.2819
  113OSM    C1411686   0.591   6.241  11.285  0.4427  0.5907  0.1627
  113OSM   H14A11687   0.697   6.248  11.261  0.0554  3.4266 -1.2022
  113OSM   H14B11688   0.571   6.308  11.367 -3.3047  1.9776 -1.6376
  113OSM   H14C11689   0.544   6.293  11.203 -0.7476 -2.1541 -1.0056
  113OSM    C1311690   0.584   6.022  11.422 -0.3505  0.4313  0.8559
  113OSM   H13A11691   0.691   6.006  11.416 -0.4089 -0.3346  1.7126
  113OSM   H13B11692   0.528   5.930  11.427 -0.9068  0.8171  2.0085
  113OSM   H13C11693   0.567   6.070  11.517  1.8502  0.6506  1.1985
  113OSM    C1211694   0.537   6.018  11.180 -0.1639 -0.3035 -0.3232
  113OSM   H12A11695   0.506   5.915  11.183  0.4012 -0.4452  1.2553
  113OSM   H12B11696   0.640   5.995  11.161 -0.5111 -1.7617 -0.5706
  113OSM    C1111697   0.484   6.068  11.040  0.4488  0.1487 -0.4627
  113OSM   H11A11698   0.516   6.009  10.951  0.5796 -0.1778 -0.1996
  113OSM   H11B11699   0.524   6.167  11.009 -1.7973  0.6738 -1.9183
  113OSM      P11700   0.250   5.967  10.989  0.3692 -0.6428 -0.0601
  113OSM    O1311701   0.255   5.841  11.062 -1.0003  0.2017  0.4355
  113OSM    O1411702   0.114   6.029  10.983 -0.6351  0.8548 -0.1161
  113OSM    O1111703   0.299   5.941  10.835  0.1681  0.2576  0.4817
  113OSM    O1211704   0.346   6.079  11.056 -0.4340  0.1149  0.0745
  113OSM    C1S11705   0.252   6.031  10.740  0.8585 -0.2411  0.1484
  113OSM    H1S11706   0.271   6.136  10.771  0.6457  0.6138 -2.3810
  113OSM    H1T11707   0.143   6.018  10.725  1.0933  0.4548 -2.7847
  113OSM     NF11708   0.282   6.100  10.496 -0.1256  0.1117 -0.0215
  113OSM    HNF11709   0.217   6.083  10.422 -2.0484 -2.8582  2.1362
  113OSM    C2S11710   0.310   5.994  10.598  0.1437 -0.2580  0.1859
  113OSM    H2S11711   0.419   5.987  10.622  0.4360  1.0185 -0.6602
  113OSM    C3S11712   0.256   5.853  10.554  0.4796 -0.3302 -0.8723
  113OSM    H3S11713   0.145   5.861  10.562  0.3598 -0.7898 -1.9195
  113OSM     O311714   0.289   5.743  10.644 -0.0461 -0.0784 -0.3949
  113OSM    HO311715   0.308   5.791  10.725  1.3214  0.6513 -1.1132
  113OSM    C4S11716   0.290   5.821  10.414  0.0989 -1.3384  0.0539
  113OSM    H4S11717   0.210   5.858  10.348  0.3190 -2.5973 -0.9630
  113OSM    C5S11718   0.396   5.759  10.364 -0.4688 -0.3516  0.2054
  113OSM    H5S11719   0.464   5.714  10.439  1.3229  0.2026 -1.0084
  113OSM    C6S11720   0.436   5.735  10.221  0.5896 -0.1666 -0.6218
  113OSM    H6S11721   0.455   5.631  10.188  2.6223 -0.9718  2.6476
  113OSM    H6T11722   0.529   5.796  10.221 -0.1171  0.9484 -0.0597
  113OSM    C7S11723   0.353   5.797  10.108 -0.6054 -0.1740  0.6078
  113OSM    H7S11724   0.351   5.908  10.115  1.7706 -0.0130 -0.3970
  113OSM    H7T11725   0.246   5.767  10.115 -1.0331  1.0615 -0.1838
  113OSM    C8S11726   0.411   5.773   9.973  0.1231  0.2911 -0.5048
  113OSM    H8S11727   0.381   5.672   9.937 -1.6704  0.1514  1.2117
  113OSM    H8T11728   0.521   5.774   9.986  0.1007  2.0629 -0.2824
  113OSM    C9S11729   0.372   5.864   9.859 -0.4814 -0.4261  0.1257
  113OSM    H9S11730   0.367   5.967   9.900 -1.0159 -0.3576 -0.1119
  113OSM    H9T11731   0.270   5.832   9.829  0.2229 -0.8344 -1.9594
  113OSM   C10S11732   0.465   5.848   9.738  0.8150 -0.0585  0.0193
  113OSM   H10S11733   0.480   5.741   9.714 -2.7682 -0.6078 -0.3452
  113OSM   H10T11734   0.561   5.899   9.758  1.2336 -0.5508 -0.6762
  113OSM   C11S11735   0.409   5.922   9.617  0.3295 -0.4152  0.7069
  113OSM   H11S11736   0.364   6.020   9.644 -2.4509 -1.5498  0.5979
  113OSM   H11T11737   0.330   5.862   9.566  1.5234 -1.7826  0.4253
  113OSM   C12S11738   0.512   5.943   9.502  0.1571 -0.4586  0.1701
  113OSM   H12S11739   0.561   5.843   9.497 -1.2284 -1.1866  0.6582
  113OSM   H12T11740   0.575   6.030   9.530 -0.9900  0.8057 -1.0527
  113OSM   C13S11741   0.447   5.968   9.363 -0.6810 -0.0820  0.2640
  113OSM   H13S11742   0.388   6.062   9.360 -0.8705 -0.2327 -1.7660
  113OSM   H13T11743   0.368   5.891   9.349 -0.1349 -1.1155  2.4205
  113OSM   C14S11744   0.552   5.963   9.253 -0.4348 -0.5435 -0.0725
  113OSM   H14S11745   0.555   5.863   9.204  0.4865  0.3419 -1.9420
  113OSM   H14T11746   0.655   5.987   9.285 -0.9829  1.2709  0.4522
  113OSM   C15S11747   0.524   6.067   9.144  0.0061 -0.0714 -0.9504
  113OSM   H15S11748   0.543   6.166   9.191  0.5146  0.1115 -1.5332
  113OSM   H15T11749   0.415   6.057   9.126 -0.1126  0.0997 -0.3521
  113OSM   C16S11750   0.604   6.045   9.017 -0.6073  0.3147  0.5419
  113OSM   H16S11751   0.578   5.956   8.957  1.8343  0.3389 -0.6812
  113OSM   H16T11752   0.710   6.043   9.050 -0.5326  0.2481  0.2935
  113OSM   C17S11753   0.583   6.161   8.910 -0.2355 -0.3102 -0.0560
  113OSM   H17S11754   0.608   6.247   8.975  0.6027 -0.8562  0.3619
  113OSM   H17T11755   0.478   6.185   8.883  0.2686  3.0233  0.4815
  113OSM   C18S11756   0.670   6.149   8.783 -0.1914 -0.9773 -0.5146
  113OSM   H18S11757   0.772   6.188   8.803 -0.2554 -1.9124  2.0231
  113OSM   H18T11758   0.631   6.221   8.708  2.3046 -0.7195 -1.6656
  113OSM   H18U11759   0.665   6.049   8.735  0.7950 -0.9329 -0.7310
  113OSM    C1F11760   0.347   6.214  10.502  0.0930 -0.0075 -0.2792
  113OSM     OF11761   0.432   6.239  10.586 -0.6536 -0.0052  0.0297
  113OSM    C2F11762   0.316   6.320  10.396  0.5043 -0.2549 -0.5899
  113OSM    H2F11763   0.319   6.418  10.447 -2.5455 -1.1026  1.5006
  113OSM    H2G11764   0.219   6.295  10.348  0.9897 -3.8775 -0.0191
  113OSM    C3F11765   0.425   6.340  10.284  0.2292  1.0073  0.3317
  113OSM    H3F11766   0.513   6.379  10.341  1.2661 -2.1092  1.0718
  113OSM    H3G11767   0.385   6.423  10.222 -2.6254  1.7266  2.8931
  113OSM    C4F11768   0.471   6.223  10.199 -0.6615  0.2422 -0.4364
  113OSM    H4F11769   0.389   6.163  10.155  0.9732 -1.0244 -1.9287
  113OSM    H4G11770   0.526   6.143  10.254 -0.5369  0.7403  0.1759
  113OSM    C5F11771   0.554   6.283  10.085 -0.4796  0.5439  0.3620
  113OSM    H5F11772   0.651   6.318  10.127 -0.4028  0.1897  0.4878
  113OSM    H5G11773   0.495   6.368  10.046 -0.0937  0.1926 -1.0351
  113OSM    C6F11774   0.582   6.193   9.967  0.4118 -0.2832  0.0342
  113OSM    H6F11775   0.495   6.160   9.908  1.5275 -0.8849 -1.3359
  113OSM    H6G11776   0.644   6.105   9.996  0.6342  0.0572  0.6095
  113OSM    C7F11777   0.668   6.255   9.862  0.2058 -0.1901 -0.0530
  113OSM    H7F11778   0.763   6.290   9.908 -1.4642  3.0970  1.1393
  113OSM    H7G11779   0.606   6.346   9.848  0.8509  0.2112 -0.3858
  113OSM    C8F11780   0.692   6.170   9.735  0.7454  0.3424 -0.4876
  113OSM    H8F11781   0.596   6.164   9.679  0.2136 -1.6111  0.5530
  113OSM    H8G11782   0.734   6.070   9.760 -0.4328 -0.4606 -1.6028
  113OSM    C9F11783   0.786   6.257   9.650 -0.2302  0.3671  0.2238
  113OSM    H9F11784   0.889   6.231   9.674  0.0858  2.2999  1.1797
  113OSM   C10F11785   0.765   6.329   9.539 -0.0921 -0.0523 -0.3619
  113OSM   H10F11786   0.856   6.374   9.496 -0.3744  1.4330  0.5196
  113OSM   C11F11787   0.633   6.364   9.478 -0.2113  0.0059  0.1498
  113OSM   H11F11788   0.562   6.385   9.561  1.4259  1.0449  1.3398
  113OSM   H11G11789   0.586   6.276   9.430 -1.0187  0.5283 -0.0353
  113OSM   C12F11790   0.631   6.466   9.376 -0.4102 -0.1973 -0.5800
  113OSM   H12F11791   0.675   6.557   9.421 -0.8299  0.2762 -1.1110
  113OSM   H12G11792   0.525   6.487   9.349 -0.5397  0.8070  0.6581
  113OSM   C13F11793   0.710   6.449   9.245  0.2009  0.2083  0.4142
  113OSM   H13F11794   0.685   6.352   9.197 -0.3059  1.2780 -1.5686
  113OSM   H13G11795   0.819   6.453   9.267 -0.1414  0.5430  2.2453
  113OSM   C14F11796   0.675   6.569   9.152 -0.7133 -0.2615  0.0546
  113OSM   H14F11797   0.723   6.657   9.201 -3.6281  2.8547 -2.1920
  113OSM   H14G11798   0.566   6.588   9.141 -0.4769  1.0933 -0.0799
  113OSM   C15F11799   0.736   6.566   9.004 -0.3806  0.6672  0.4393
  113OSM   H15F11800   0.774   6.465   8.978 -1.1265  0.6476 -0.6372
  113OSM   H15G11801   0.823   6.635   9.008 -0.1703  0.3614  1.3824
  113OSM   C16F11802   0.639   6.609   8.890 -0.1289  0.4342  0.1406
  113OSM   H16F11803   0.567   6.675   8.942  1.3673  1.7489  0.6523
  113OSM   H16G11804   0.577   6.523   8.860 -0.7296  1.1718 -0.8047
  113OSM   C17F11805   0.700   6.675   8.769 -0.7475 -0.3408  0.3305
  113OSM   H17F11806   0.771   6.604   8.723 -0.8173 -0.6020  0.6192
  113OSM   H17G11807   0.749   6.767   8.808 -1.3873  2.0908 -4.0027
  113OSM   C18F11808   0.587   6.716   8.674  0.0636  0.3439  0.3348
  113OSM   H18F11809   0.619   6.795   8.602 -0.6706 -0.5014 -0.9602
  113OSM   H18G11810   0.502   6.759   8.731  0.6973 -0.3026  1.8069
  113OSM   H18H11811   0.552   6.627   8.618  1.7478 -0.5171  0.5869
  114OSM      N11812   3.095   5.307  11.465  0.1014  0.7660 -0.3293
  114OSM    C1511813   3.175   5.208  11.398 -0.3289  0.1228 -0.2964
  114OSM   H15A11814   3.104   5.162  11.331 -1.0227 -0.7007  0.9786
  114OSM   H15B11815   3.215   5.133  11.464  0.6537  1.5965  0.8371
  114OSM   H15C11816   3.251   5.251  11.334 -0.8633  3.0136  0.8520
  114OSM    C1411817   2.973   5.235  11.518 -0.3632 -0.4895  0.1264
  114OSM   H14A11818   2.980   5.186  11.614 -0.8624  0.2662  0.5593
  114OSM   H14B11819   2.922   5.172  11.446 -2.9999  0.3725  1.1029
  114OSM   H14C11820   2.896   5.307  11.542 -0.6653 -0.4005 -1.0483
  114OSM    C1311821   3.172   5.363  11.573  0.4322 -0.1259  0.2482
  114OSM   H13A11822   3.267   5.408  11.548  0.4129  1.0812  2.1441
  114OSM   H13B11823   3.188   5.275  11.634  0.3752 -1.5644 -1.7276
  114OSM   H13C11824   3.108   5.433  11.625 -2.0230 -0.4107 -2.1806
  114OSM    C1211825   3.058   5.411  11.364  0.8434  0.1408  0.5033
  114OSM   H12A11826   3.142   5.430  11.299 -0.5199  1.6419 -0.9072
  114OSM   H12B11827   3.032   5.501  11.416 -0.0709  0.3814 -0.3434
  114OSM    C1111828   2.941   5.370  11.266 -0.5182 -0.0961  0.0340
  114OSM   H11A11829   2.968   5.273  11.221 -1.3182  1.0684 -3.2398
  114OSM   H11B11830   2.935   5.440  11.180 -0.3777 -2.7008 -2.1882
  114OSM      P11831   2.725   5.490  11.342  0.5667  0.2513 -0.0289
  114OSM    O1311832   2.604   5.442  11.421 -0.4815  0.1014 -0.1930
  114OSM    O1411833   2.800   5.608  11.394  0.2122  0.6815 -0.0812
  114OSM    O1111834   2.688   5.518  11.192 -0.2588  0.2171 -0.0671
  114OSM    O1211835   2.816   5.366  11.334 -0.3088  0.1321  0.2447
  114OSM    C1S11836   2.667   5.410  11.096  0.2089 -0.2375  0.8409
  114OSM    H1S11837   2.576   5.353  11.125  0.3448  0.1390  2.0590
  114OSM    H1T11838   2.753   5.341  11.082 -0.3757 -0.4935 -2.3231
  114OSM     NF11839   2.644   5.362  10.848  0.7361  0.5271  0.0881
  114OSM    HNF11840   2.725   5.345  10.793  0.5751 -0.2460  0.0731
  114OSM    C2S11841   2.653   5.466  10.948  0.1529 -0.3933  0.6406
  114OSM    H2S11842   2.556   5.520  10.938  0.1421 -0.3871  0.7910
  114OSM    C3S11843   2.765   5.572  10.919 -0.3051 -0.0711 -0.0136
  114OSM    H3S11844   2.863   5.523  10.902 -1.2531 -2.2433  0.4200
  114OSM     O311845   2.793   5.671  11.013 -0.2683 -0.2283  0.1884
  114OSM    HO311846   2.742   5.631  11.085 -0.1230  0.3201  0.6077
  114OSM    C4S11847   2.734   5.635  10.781 -0.2003 -0.0268 -0.1410
  114OSM    H4S11848   2.627   5.636  10.754 -0.3156 -2.6628 -0.0753
  114OSM    C5S11849   2.819   5.645  10.676  0.0741  0.7708  0.4652
  114OSM    H5S11850   2.923   5.614  10.690  0.0753  1.0503  1.0986
  114OSM    C6S11851   2.775   5.707  10.543 -0.2374  0.2355  0.2462
  114OSM    H6S11852   2.839   5.796  10.531  0.5546  0.0599  2.6456
  114OSM    H6T11853   2.667   5.732  10.549 -0.2867 -0.1074  0.9489
  114OSM    C7S11854   2.810   5.621  10.423  0.9034 -1.1604  0.9197
  114OSM    H7S11855   2.767   5.519  10.433 -1.6922 -0.1090  1.3434
  114OSM    H7T11856   2.920   5.618  10.410  0.7408  1.2993 -2.2982
  114OSM    C8S11857   2.755   5.687  10.296 -0.0042  0.1176 -0.1384
  114OSM    H8S11858   2.805   5.785  10.279 -0.6112  1.0574  2.9042
  114OSM    H8T11859   2.646   5.711  10.299  0.2786  2.0768 -2.2998
  114OSM    C9S11860   2.776   5.596  10.171 -0.0959  0.6036  0.6062
  114OSM    H9S11861   2.724   5.499  10.180  1.1130 -0.7560 -4.2362
  114OSM    H9T11862   2.886   5.575  10.171  0.2051  1.4894  4.0081
  114OSM   C10S11863   2.736   5.670  10.042  0.0520 -0.0783  0.0665
  114OSM   H10S11864   2.798   5.762  10.044  0.8215 -0.5862  0.5105
  114OSM   H10T11865   2.630   5.700  10.038  0.1539  0.3137  0.2722
  114OSM   C11S11866   2.767   5.592   9.914 -0.0262  0.0460  0.4355
  114OSM   H11S11867   2.709   5.498   9.905 -1.7139  1.2449 -3.6045
  114OSM   H11T11868   2.875   5.568   9.902  0.2005  0.3845  1.6577
  114OSM   C12S11869   2.737   5.670   9.783  0.1194  0.6082 -0.2182
  114OSM   H12S11870   2.805   5.757   9.780  0.9645  0.0918  2.0638
  114OSM   H12T11871   2.630   5.700   9.789 -0.1056 -0.1277 -0.4353
  114OSM   C13S11872   2.770   5.599   9.657  0.3247  0.4389 -0.2725
  114OSM   H13S11873   2.704   5.513   9.634  1.3018 -0.1489 -0.9968
  114OSM   H13T11874   2.866   5.544   9.670 -1.9706 -4.2821 -1.4507
  114OSM   C14S11875   2.794   5.677   9.523  0.2470  0.1378  0.0296
  114OSM   H14S11876   2.831   5.603   9.450 -1.1280  1.2550 -1.8976
  114OSM   H14T11877   2.862   5.763   9.545  0.6471  0.2546 -1.5915
  114OSM   C15S11878   2.670   5.742   9.455 -0.3815 -0.5335 -0.9529
  114OSM   H15S11879   2.720   5.772   9.361  1.3050 -0.2546 -0.0097
  114OSM   H15T11880   2.633   5.834   9.505  0.8714  0.6732 -2.1404
  114OSM   C16S11881   2.551   5.659   9.420 -0.4682  1.1212 -0.5094
  114OSM   H16S11882   2.467   5.730   9.403  0.8695  2.9934  0.3465
  114OSM   H16T11883   2.529   5.581   9.496 -0.8663 -0.6134 -2.3252
  114OSM   C17S11884   2.558   5.588   9.279  0.5042 -0.1756  0.2540
  114OSM   H17S11885   2.581   5.662   9.199  1.7128  1.2092  1.8079
  114OSM   H17T11886   2.462   5.537   9.255  2.5366 -3.2506 -2.2169
  114OSM   C18S11887   2.652   5.465   9.271  0.1910 -0.4484 -0.6186
  114OSM   H18S11888   2.641   5.403   9.363 -3.1212  0.2652 -0.4314
  114OSM   H18T11889   2.756   5.506   9.269 -0.0143  0.2226  0.8992
  114OSM   H18U11890   2.639   5.391   9.189  0.1999 -1.4212  0.2281
  114OSM    C1F11891   2.537   5.288  10.835  0.3560  0.0821  0.1653
  114OSM     OF11892   2.444   5.291  10.924 -0.4503 -0.1885  0.5645
  114OSM    C2F11893   2.512   5.222  10.700  0.4981  0.2576 -1.0463
  114OSM    H2F11894   2.405   5.195  10.695  0.0357  1.9125 -0.6907
  114OSM    H2G11895   2.573   5.130  10.688  1.2966  0.6885 -0.4139
  114OSM    C3F11896   2.536   5.311  10.579 -0.2837  0.5316  0.0253
  114OSM    H3F11897   2.638   5.353  10.565 -0.6872  0.9848 -1.9596
  114OSM    H3G11898   2.476   5.405  10.587 -1.6845 -0.0208 -2.7226
  114OSM    C4F11899   2.505   5.231  10.455  0.6114  0.7927  0.3339
  114OSM    H4F11900   2.401   5.192  10.463  0.8910 -0.3459 -1.2034
  114OSM    H4G11901   2.570   5.141  10.463  0.1996  0.5755  1.3662
  114OSM    C5F11902   2.521   5.300  10.321  0.3008  0.8049 -0.9098
  114OSM    H5F11903   2.624   5.341  10.322  0.9706 -0.6925  1.6371
  114OSM    H5G11904   2.460   5.391  10.305 -0.0048  0.8595  0.4984
  114OSM    C6F11905   2.499   5.217  10.191  0.4914  0.3959 -0.9659
  114OSM    H6F11906   2.392   5.187  10.188  0.2697  1.2533 -2.2397
  114OSM    H6G11907   2.563   5.127  10.197  3.8202  2.6259  0.1392
  114OSM    C7F11908   2.532   5.296  10.061  0.3703  0.6331 -0.7698
  114OSM    H7F11909   2.637   5.331  10.055  1.2848 -1.9751 -1.4277
  114OSM    H7G11910   2.470   5.386  10.078  0.8897  0.9578 -0.5704
  114OSM    C8F11911   2.492   5.217   9.936  0.3515 -0.5161  0.0497
  114OSM    H8F11912   2.385   5.187   9.936  0.3139 -0.4141 -0.8708
  114OSM    H8G11913   2.553   5.124   9.930 -1.3140 -1.6136 -0.2547
  114OSM    C9F11914   2.526   5.312   9.822  0.1888 -1.0387  0.6949
  114OSM    H9F11915   2.528   5.419   9.844 -2.7222 -0.0955 -2.6640
  114OSM   C10F11916   2.542   5.272   9.693  0.0025 -1.4601 -0.3429
  114OSM   H10F11917   2.562   5.343   9.611  0.1639 -1.4000 -0.2524
  114OSM   C11F11918   2.522   5.136   9.647 -0.2350  0.2820  0.4686
  114OSM   H11F11919   2.412   5.118   9.649 -0.2929  0.6813  1.1377
  114OSM   H11G11920   2.559   5.057   9.716 -1.2485 -0.7132 -0.0812
  114OSM   C12F11921   2.564   5.104   9.502  0.0558  0.2852  1.0034
  114OSM   H12F11922   2.675   5.112   9.493 -0.0322  1.2879  0.6183
  114OSM   H12G11923   2.521   5.173   9.426 -0.1100 -2.0256 -1.1427
  114OSM   C13F11924   2.511   4.968   9.454  0.2118 -0.2246 -0.1463
  114OSM   H13F11925   2.402   4.972   9.436  0.4161  2.6361 -1.1391
  114OSM   H13G11926   2.524   4.891   9.534 -0.9479  0.5180  0.7889
  114OSM   C14F11927   2.583   4.925   9.331  0.7276  0.5446  0.0645
  114OSM   H14F11928   2.546   4.824   9.301 -0.6685  0.5539  1.5980
  114OSM   H14G11929   2.693   4.913   9.344  1.0348 -0.5113 -2.7528
  114OSM   C15F11930   2.574   5.017   9.206 -0.5607  0.9588  0.1046
  114OSM   H15F11931   2.628   4.968   9.122  0.0677  0.6450  0.6827
  114OSM   H15G11932   2.635   5.108   9.226 -0.2432  0.8664 -0.4242
  114OSM   C16F11933   2.435   5.052   9.165  0.5847 -0.8879  0.2231
  114OSM   H16F11934   2.384   5.122   9.234 -0.2769 -0.8185 -0.4674
  114OSM   H16G11935   2.372   4.961   9.157 -0.9297  0.1959 -0.8762
  114OSM   C17F11936   2.435   5.126   9.033  0.1721  0.1798  0.4148
  114OSM   H17F11937   2.482   5.073   8.947 -1.8168 -0.0915 -0.5563
  114OSM   H17G11938   2.476   5.228   9.052 -0.1171  0.3114  0.3283
  114OSM   C18F11939   2.284   5.140   9.003 -0.8330  0.0384  0.6876
  114OSM   H18F11940   2.246   5.045   8.960  2.4381 -0.8732 -0.4581
  114OSM   H18G11941   2.262   5.225   8.934  0.8286  1.1695  1.4919
  114OSM   H18H11942   2.223   5.159   9.095 -2.7050 -0.5168 -0.3778
  115OSM      N11943   3.204   1.061   6.399  0.3077  0.5410  0.7678
  115OSM    C1511944   3.236   1.174   6.308 -0.4855  0.3862  0.3384
  115OSM   H15A11945   3.186   1.149   6.215  0.2625 -1.2669  0.3441
  115OSM   H15B11946   3.340   1.185   6.281 -0.4575  0.9350  0.6679
  115OSM   H15C11947   3.188   1.260   6.351 -2.9690 -1.7017  2.0284
  115OSM    C1411948   3.266   0.942   6.331 -0.0508 -0.3434 -0.0876
  115OSM   H14A11949   3.224   0.926   6.233  0.4239  1.2262 -0.5799
  115OSM   H14B11950   3.245   0.854   6.389 -0.0552  0.6228  1.4371
  115OSM   H14C11951   3.373   0.954   6.317  0.9057 -4.6934  2.0314
  115OSM    C1311952   3.284   1.072   6.520  0.4165 -0.0526 -0.5380
  115OSM   H13A11953   3.249   1.158   6.576 -0.4903 -0.2759 -0.7353
  115OSM   H13B11954   3.382   1.101   6.486 -0.0213  2.4081  0.1276
  115OSM   H13C11955   3.281   0.985   6.585  0.2642  0.6368  0.4074
  115OSM    C1211956   3.050   1.054   6.409 -0.0957  0.2758 -0.4723
  115OSM   H12A11957   3.012   1.028   6.312 -0.3946  0.0981 -0.3113
  115OSM   H12B11958   3.012   1.149   6.443  1.2672 -0.4123  3.6021
  115OSM    C1111959   2.990   0.945   6.514 -0.3165  0.1023  0.4675
  115OSM   H11A11960   2.888   0.988   6.518  0.4755  2.0130  1.2269
  115OSM   H11B11961   3.026   0.949   6.619 -0.1952 -4.6629  0.8578
  115OSM      P11962   2.898   0.750   6.365 -0.2887 -0.2099 -0.0311
  115OSM    O1311963   2.836   0.848   6.275 -0.4402  0.3099  0.2143
  115OSM    O1411964   2.967   0.636   6.305  0.4365  0.5377  1.3068
  115OSM    O1111965   2.794   0.700   6.462  0.2905  0.8059  0.2197
  115OSM    O1211966   3.002   0.821   6.458  0.1682  0.2775  0.3351
  115OSM    C1S11967   2.815   0.596   6.558  0.3504  0.6377  0.6992
  115OSM    H1S11968   2.903   0.539   6.523 -0.4690 -1.4280  1.8413
  115OSM    H1T11969   2.733   0.522   6.553  0.0983  0.9013  0.8740
  115OSM     NF11970   2.862   0.528   6.789  0.2574 -0.2401 -0.5721
  115OSM    HNF11971   2.791   0.499   6.853  1.2905  1.8705  1.6987
  115OSM    C2S11972   2.837   0.643   6.708 -0.1981 -0.7095 -0.1867
  115OSM    H2S11973   2.921   0.716   6.710 -0.8500  0.0321  1.2208
  115OSM    C3S11974   2.712   0.725   6.757  1.0986 -0.0350  0.6379
  115OSM    H3S11975   2.634   0.646   6.758  1.8305 -0.8131 -0.4712
  115OSM     O311976   2.667   0.824   6.664 -0.3014  0.1321  1.0855
  115OSM    HO311977   2.722   0.802   6.588  1.5455 -0.6485  2.5688
  115OSM    C4S11978   2.748   0.776   6.892  0.2364 -0.5347 -0.0327
  115OSM    H4S11979   2.716   0.702   6.967 -0.7307 -0.7805 -0.6682
  115OSM    C5S11980   2.799   0.904   6.922 -0.1637  0.6547 -0.0901
  115OSM    H5S11981   2.826   0.973   6.841  0.6904 -1.2702 -1.5186
  115OSM    C6S11982   2.833   0.946   7.058  0.0769 -0.6268  0.0130
  115OSM    H6S11983   2.795   1.044   7.094  1.8358 -0.2418  0.9717
  115OSM    H6T11984   2.943   0.959   7.066 -0.1309 -0.2051  4.2599
  115OSM    C7S11985   2.803   0.852   7.180  0.1889 -0.5927  0.3989
  115OSM    H7S11986   2.817   0.747   7.148 -2.3897 -0.4974 -1.3661
  115OSM    H7T11987   2.692   0.854   7.185  0.2099 -0.2838  0.7762
  115OSM    C8S11988   2.880   0.882   7.308 -0.1139  0.5015  0.1926
  115OSM    H8S11989   2.861   0.986   7.344  2.3818  0.9917  0.2554
  115OSM    H8T11990   2.987   0.865   7.285 -0.8058 -1.8596 -1.6739
  115OSM    C9S11991   2.834   0.793   7.414 -0.3360 -0.5931  0.2093
  115OSM    H9S11992   2.863   0.689   7.389 -0.6460 -0.1519 -2.2580
  115OSM    H9T11993   2.724   0.780   7.417 -0.4673  0.5184  0.6335
  115OSM   C10S11994   2.882   0.828   7.556 -0.0091  0.2295 -0.1064
  115OSM   H10S11995   2.852   0.930   7.590 -1.7060 -0.4360  0.4920
  115OSM   H10T11996   2.993   0.824   7.563  0.3396  2.8175 -2.3448
  115OSM   C11S11997   2.823   0.726   7.652  0.3311  0.3993 -0.4579
  115OSM   H11S11998   2.844   0.622   7.619 -0.3985  0.6848 -1.9506
  115OSM   H11T11999   2.713   0.744   7.651 -0.0140 -1.2428  1.7382
  115OSM   C12S12000   2.860   0.741   7.804  0.1553  0.7356 -0.1883
  115OSM   H12S12001   2.809   0.835   7.834  0.6694  1.5586 -1.7971
  115OSM   H12T12002   2.966   0.759   7.830  0.2794 -1.0764  0.6873
  115OSM   C13S12003   2.798   0.632   7.897  0.7198 -0.3004 -0.4741
  115OSM   H13S12004   2.850   0.535   7.878 -0.7831 -0.8402 -2.1725
  115OSM   H13T12005   2.697   0.609   7.856  0.9970 -1.6952 -0.4343
  115OSM   C14S12006   2.797   0.672   8.039 -0.6312 -0.7306  0.6460
  115OSM   H14S12007   2.739   0.766   8.051  0.1692 -0.0612 -0.6124
  115OSM   H14T12008   2.897   0.694   8.083 -0.5757  1.2807 -0.3450
  115OSM   C15S12009   2.723   0.565   8.134 -0.5876  0.0194 -0.4189
  115OSM   H15S12010   2.734   0.600   8.239 -1.9354  2.1223 -0.9007
  115OSM   H15T12011   2.783   0.476   8.108 -0.5061  0.3627 -1.5011
  115OSM   C16S12012   2.580   0.541   8.098  0.1552 -0.7268 -0.2730
  115OSM   H16S12013   2.562   0.513   7.993  1.3373  2.0916 -1.3362
  115OSM   H16T12014   2.520   0.634   8.109 -2.4247 -2.2248 -0.8669
  115OSM   C17S12015   2.517   0.455   8.206  0.4383 -0.7367 -0.2699
  115OSM   H17S12016   2.540   0.500   8.304 -0.5965 -0.7969  0.0115
  115OSM   H17T12017   2.572   0.358   8.201  0.3861 -0.7414 -0.8336
  115OSM   C18S12018   2.370   0.440   8.211  0.2313  0.5563 -0.2123
  115OSM   H18S12019   2.339   0.367   8.290  2.3613 -2.5442 -2.0102
  115OSM   H18T12020   2.326   0.416   8.112  0.7631  1.3610 -0.6512
  115OSM   H18U12021   2.323   0.535   8.245  0.8161  0.8865 -0.3112
  115OSM    C1F12022   2.970   0.454   6.765 -0.1156  0.1917  0.3294
  115OSM     OF12023   3.066   0.512   6.710  0.2905  0.7318 -0.7220
  115OSM    C2F12024   2.980   0.308   6.802  0.1358  0.5770 -0.4363
  115OSM    H2F12025   3.010   0.254   6.710  1.6114  1.3988 -0.4613
  115OSM    H2G12026   2.889   0.266   6.850 -0.0607  0.1654 -1.1687
  115OSM    C3F12027   3.098   0.276   6.900  0.6523  0.2774  0.0823
  115OSM    H3F12028   3.181   0.343   6.871  0.6593  0.0516 -0.4259
  115OSM    H3G12029   3.125   0.168   6.898  0.9144  0.3469 -0.2813
  115OSM    C4F12030   3.061   0.312   7.042 -0.8033  0.6524 -0.4791
  115OSM    H4F12031   2.963   0.270   7.072 -0.6906  1.5400  1.2576
  115OSM    H4G12032   3.057   0.423   7.048  0.0844  0.6633  0.0891
  115OSM    C5F12033   3.171   0.271   7.140 -0.3939  0.3448 -0.5101
  115OSM    H5F12034   3.267   0.319   7.110  0.7226 -0.1847  1.9043
  115OSM    H5G12035   3.177   0.161   7.125 -0.5912  0.5005 -1.8106
  115OSM    C6F12036   3.139   0.309   7.281  0.2052 -0.1493  0.3151
  115OSM    H6F12037   3.031   0.286   7.294  0.7076 -1.9856  1.7168
  115OSM    H6G12038   3.138   0.419   7.292 -1.6557 -0.1249  0.2579
  115OSM    C7F12039   3.222   0.246   7.392  0.1496  0.2526  0.8580
  115OSM    H7F12040   3.330   0.269   7.399  0.7108 -2.0550  0.5112
  115OSM    H7G12041   3.212   0.137   7.376 -1.8203  0.4796  0.2777
  115OSM    C8F12042   3.156   0.273   7.523  0.3103  0.3189 -0.2668
  115OSM    H8F12043   3.205   0.208   7.599 -2.4745 -1.5533  0.0596
  115OSM    H8G12044   3.047   0.254   7.515  0.6616 -1.6197 -0.9833
  115OSM    C9F12045   3.164   0.418   7.573 -0.0484  0.4281  0.6095
  115OSM    H9F12046   3.177   0.489   7.490 -0.9891 -0.8286 -0.6638
  115OSM   C10F12047   3.147   0.458   7.701 -0.2323  0.1875 -0.5362
  115OSM   H10F12048   3.175   0.562   7.723  1.8895 -0.1637 -1.3874
  115OSM   C11F12049   3.120   0.367   7.815 -0.2136  0.6653  0.3402
  115OSM   H11F12050   3.136   0.260   7.791  1.1944  0.1603  3.1151
  115OSM   H11G12051   3.015   0.389   7.842 -0.2317  2.3808 -0.9411
  115OSM   C12F12052   3.216   0.370   7.933 -0.4336  0.5806  0.1082
  115OSM   H12F12053   3.218   0.470   7.982 -3.0109 -0.5096  2.7716
  115OSM   H12G12054   3.310   0.330   7.890 -0.8072  1.2972 -1.4626
  115OSM   C13F12055   3.169   0.269   8.049 -0.6755  0.1284  0.8436
  115OSM   H13F12056   3.255   0.258   8.119  0.3206 -0.5810 -0.4372
  115OSM   H13G12057   3.154   0.168   8.006 -0.4532 -0.8322  2.9019
  115OSM   C14F12058   3.041   0.332   8.121  0.3514  0.3098 -0.2195
  115OSM   H14F12059   2.961   0.344   8.044  1.4697 -0.1369 -1.4993
  115OSM   H14G12060   3.069   0.434   8.153 -1.5578  0.1037  2.4644
  115OSM   C15F12061   2.995   0.261   8.250 -0.1028 -0.1001  0.6287
  115OSM   H15F12062   3.084   0.245   8.316  0.1841 -1.4637 -0.0345
  115OSM   H15G12063   2.959   0.158   8.227  0.8454 -0.4176  0.5176
  115OSM   C16F12064   2.884   0.335   8.325  0.2581 -0.2479 -0.1943
  115OSM   H16F12065   2.792   0.341   8.264  0.3140 -0.2945 -0.2822
  115OSM   H16G12066   2.922   0.438   8.341 -0.7582  0.0595  0.3434
  115OSM   C17F12067   2.839   0.274   8.458  0.0467 -0.1342 -0.1099
  115OSM   H17F12068   2.924   0.254   8.526 -0.2577 -0.1083  0.2780
  115OSM   H17G12069   2.793   0.177   8.430 -2.2524  1.0045 -0.5532
  115OSM   C18F12070   2.734   0.356   8.527  0.4559  1.0597  0.5153
  115OSM   H18F12071   2.788   0.436   8.583  0.9104  0.3236  1.1575
  115OSM   H18G12072   2.690   0.292   8.607  0.5233 -0.9099 -0.9568
  115OSM   H18H12073   2.659   0.391   8.453  0.1101 -0.0357  0.3271
  116OSM      N12074   1.433   0.402   6.389  0.1728 -0.5894 -0.8442
  116OSM    C1512075   1.495   0.346   6.515 -0.3174 -0.3897  0.6661
  116OSM   H15A12076   1.530   0.425   6.580  0.5598  0.5895 -0.9444
  116OSM   H15B12077   1.571   0.279   6.480 -1.8250 -0.4979 -2.7903
  116OSM   H15C12078   1.414   0.288   6.558 -1.0676 -1.4421 -1.9599
  116OSM    C1412079   1.384   0.286   6.302  0.0781  0.0013  0.2964
  116OSM   H14A12080   1.466   0.217   6.289 -0.4099 -0.5910  0.3340
  116OSM   H14B12081   1.347   0.305   6.203  0.4094  0.1629  0.2012
  116OSM   H14C12082   1.296   0.240   6.344 -1.3401  2.0649 -0.2370
  116OSM    C1312083   1.310   0.469   6.416 -0.5903 -0.3419  0.1985
  116OSM   H13A12084   1.250   0.478   6.327 -0.1728 -0.2849 -0.0799
  116OSM   H13B12085   1.324   0.567   6.458 -1.6637 -0.6722  1.3890
  116OSM   H13C12086   1.251   0.412   6.487  1.5751 -2.8827  0.1289
  116OSM    C1212087   1.537   0.470   6.312 -0.3807 -0.0119 -0.6178
  116OSM   H12A12088   1.561   0.570   6.345 -1.3253 -0.1575  0.5782
  116OSM   H12B12089   1.488   0.488   6.218 -2.1761  2.5771  0.6881
  116OSM    C1112090   1.674   0.406   6.298  0.0332  0.4521  0.2848
  116OSM   H11A12091   1.714   0.407   6.402  1.4830 -0.3466 -0.2375
  116OSM   H11B12092   1.734   0.479   6.240 -1.9795  0.7606 -1.5363
  116OSM      P12093   1.800   0.204   6.202  0.1557  0.0232  0.1860
  116OSM    O1312094   1.767   0.068   6.149 -0.2410 -0.1714  0.1750
  116OSM    O1412095   1.880   0.292   6.113 -0.2387 -0.9262  0.4913
  116OSM    O1112096   1.870   0.191   6.350  0.4544  0.6095 -0.0015
  116OSM    O1212097   1.664   0.273   6.240 -0.3673 -0.4193  0.5073
  116OSM    C1S12098   1.812   0.104   6.446  0.4513  0.4479 -0.1284
  116OSM    H1S12099   1.809  -0.002   6.414 -0.8111 -0.3348  2.3760
  116OSM    H1T12100   1.709   0.133   6.475 -0.1694 -1.3518 -0.4399
  116OSM     NF12101   1.809   0.041   6.683 -0.0283  0.2264  0.0874
  116OSM    HNF12102   1.792   0.089   6.768 -3.2712 -0.1653 -0.2011
  116OSM    C2S12103   1.890   0.106   6.577  1.0393  1.2389 -0.4717
  116OSM    H2S12104   1.980   0.042   6.561 -0.0158  0.0703 -2.1771
  116OSM    C3S12105   1.925   0.255   6.610  0.3601  0.5908  0.6613
  116OSM    H3S12106   1.833   0.316   6.616 -0.2509 -0.1004 -1.0461
  116OSM     O312107   1.994   0.337   6.516  0.3595 -0.2919 -0.6474
  116OSM    HO312108   1.985   0.282   6.437 -2.7680 -3.8663  1.8498
  116OSM    C4S12109   1.991   0.247   6.741  0.7089 -0.0689  0.0255
  116OSM    H4S12110   1.920   0.246   6.825  2.1032  0.9962  1.2885
  116OSM    C5S12111   2.124   0.240   6.768 -0.3629  0.5181 -0.3518
  116OSM    H5S12112   2.187   0.256   6.679 -0.8570  1.6647 -0.5162
  116OSM    C6S12113   2.193   0.244   6.909  0.1164  0.0540 -0.5736
  116OSM    H6S12114   2.272   0.322   6.918  0.4196  0.0144 -2.4396
  116OSM    H6T12115   2.245   0.146   6.919 -2.2590 -1.5278 -2.6004
  116OSM    C7S12116   2.087   0.257   7.022 -0.4506 -0.0488  0.2860
  116OSM    H7S12117   2.017   0.172   7.009  0.3631 -0.6116 -0.4837
  116OSM    H7T12118   2.022   0.344   6.999 -1.2709 -0.1438  2.0936
  116OSM    C8S12119   2.151   0.248   7.162 -0.0509 -0.0972  0.4799
  116OSM    H8S12120   2.205   0.345   7.171 -1.2710  0.7575 -0.9424
  116OSM    H8T12121   2.220   0.161   7.172 -1.2238 -1.1807 -0.4175
  116OSM    C9S12122   2.057   0.249   7.275 -0.1115 -0.2420  0.1194
  116OSM    H9S12123   2.014   0.147   7.286 -0.6841  0.1157  1.3115
  116OSM    H9T12124   1.972   0.314   7.246 -0.6242 -1.0897 -0.3175
  116OSM   C10S12125   2.114   0.290   7.408  0.2169 -0.5307 -0.6132
  116OSM   H10S12126   2.138   0.398   7.408  0.1209 -0.5045 -0.0073
  116OSM   H10T12127   2.209   0.234   7.425  1.6276  1.7996 -0.4812
  116OSM   C11S12128   2.013   0.264   7.525  0.3116  0.1374  0.0946
  116OSM   H11S12129   1.987   0.156   7.535 -0.9840  0.2982 -1.1771
  116OSM   H11T12130   1.920   0.320   7.503  0.5305  1.0874  1.4923
  116OSM   C12S12131   2.066   0.317   7.657  0.1345  0.7049 -0.6805
  116OSM   H12S12132   2.071   0.428   7.648 -0.1266  0.8190  0.4417
  116OSM   H12T12133   2.169   0.283   7.680 -0.2415  0.1500  0.2135
  116OSM   C13S12134   1.955   0.270   7.759  0.1479  0.6752  0.2532
  116OSM   H13S12135   1.938   0.160   7.754  0.2376  0.5924  1.5195
  116OSM   H13T12136   1.867   0.328   7.725  0.1897  0.7901  0.3407
  116OSM   C14S12137   1.997   0.311   7.906 -0.5085 -0.4324  0.2915
  116OSM   H14S12138   2.026   0.418   7.907 -1.1950 -0.1927 -1.3873
  116OSM   H14T12139   2.086   0.248   7.930  1.4614  1.5660 -1.3126
  116OSM   C15S12140   1.896   0.280   8.010  0.1280 -0.0593  0.5262
  116OSM   H15S12141   1.858   0.179   7.980  1.2989 -0.2034 -0.5269
  116OSM   H15T12142   1.819   0.359   7.997  0.6525  0.1331 -1.8820
  116OSM   C16S12143   1.951   0.282   8.155 -0.0774 -0.1245 -0.8953
  116OSM   H16S12144   1.874   0.246   8.228  0.0109  1.2350 -0.1119
  116OSM   H16T12145   1.969   0.385   8.192 -0.7540 -0.5598  0.7399
  116OSM   C17S12146   2.065   0.185   8.179  0.0897  0.8432 -0.0887
  116OSM   H17S12147   2.159   0.210   8.125  0.2936 -1.0541 -0.6977
  116OSM   H17T12148   2.032   0.094   8.125  1.2046 -0.0408  0.6865
  116OSM   C18S12149   2.079   0.152   8.324  0.9862 -0.2875 -0.2986
  116OSM   H18S12150   2.116   0.237   8.386  0.1249 -0.9788  1.2408
  116OSM   H18T12151   2.153   0.069   8.336  0.5209 -1.2626 -3.3290
  116OSM   H18U12152   1.980   0.131   8.370  0.8200 -0.6765 -0.8362
  116OSM    C1F12153   1.772  -0.089   6.679  0.4930  0.1785  0.2955
  116OSM     OF12154   1.795  -0.159   6.578 -0.0076  0.1414  0.2697
  116OSM    C2F12155   1.699  -0.151   6.797 -0.2538  0.0783 -0.4608
  116OSM    H2F12156   1.598  -0.109   6.814  0.0389 -0.6325  4.3346
  116OSM    H2G12157   1.753  -0.128   6.891  0.0856 -1.6699 -0.1993
  116OSM    C3F12158   1.672  -0.305   6.789  0.3368 -0.2168 -0.1833
  116OSM    H3F12159   1.767  -0.362   6.781  1.6644  1.9375 -0.9822
  116OSM    H3G12160   1.617  -0.329   6.696  0.3337  0.4923 -0.3734
  116OSM    C4F12161   1.583  -0.340   6.899  0.1356 -0.6486 -0.7968
  116OSM    H4F12162   1.516  -0.427   6.883  0.0639 -1.1389  1.6999
  116OSM    H4G12163   1.521  -0.253   6.928  1.5018 -0.6163  2.4293
  116OSM    C5F12164   1.659  -0.374   7.034  0.7865 -0.5973 -0.1820
  116OSM    H5F12165   1.741  -0.299   7.038  0.8109 -0.5655 -1.1562
  116OSM    H5G12166   1.708  -0.472   7.022 -0.0478 -0.9392 -0.9731
  116OSM    C6F12167   1.573  -0.384   7.157 -0.7977 -0.0247  0.0810
  116OSM    H6F12168   1.501  -0.464   7.132  1.1291 -1.9348  0.3745
  116OSM    H6G12169   1.515  -0.290   7.171 -0.7893  0.0362 -0.2693
  116OSM    C7F12170   1.648  -0.427   7.275  0.1198  0.8630 -1.1442
  116OSM    H7F12171   1.701  -0.343   7.325 -0.7835  0.1415  1.1594
  116OSM    H7G12172   1.727  -0.495   7.236  1.0477  1.6315 -0.6840
  116OSM    C8F12173   1.562  -0.499   7.375  0.7349 -0.2867 -0.6468
  116OSM    H8F12174   1.630  -0.563   7.436  2.1558 -0.8021 -2.6619
  116OSM    H8G12175   1.497  -0.571   7.321 -0.9425  2.0111 -1.8466
  116OSM    C9F12176   1.472  -0.411   7.463 -0.7275  0.5204 -0.0988
  116OSM    H9F12177   1.383  -0.371   7.413 -1.7133  0.8330  1.8181
  116OSM   C10F12178   1.516  -0.363   7.580 -0.4415  0.2001 -0.5980
  116OSM   H10F12179   1.451  -0.298   7.641 -1.5798  0.2671 -1.8476
  116OSM   C11F12180   1.651  -0.393   7.643  0.2140 -0.0146  0.1783
  116OSM   H11F12181   1.695  -0.304   7.694  0.2718  1.3295 -2.0665
  116OSM   H11G12182   1.718  -0.415   7.557 -0.8754  0.3734 -0.7942
  116OSM   C12F12183   1.648  -0.516   7.735 -0.4265 -0.1614 -0.3601
  116OSM   H12F12184   1.753  -0.547   7.756 -0.7029  0.2568  1.8868
  116OSM   H12G12185   1.579  -0.590   7.690 -1.8056  0.5734  0.4845
  116OSM   C13F12186   1.602  -0.477   7.870 -0.4297 -0.1875 -0.3126
  116OSM   H13F12187   1.491  -0.463   7.869 -0.3414  0.8774  1.2242
  116OSM   H13G12188   1.637  -0.377   7.903 -3.4730  0.8478  0.1309
  116OSM   C14F12189   1.629  -0.578   7.980 -0.1060 -0.3224  0.2221
  116OSM   H14F12190   1.735  -0.603   7.962  0.3012  1.2978  0.2143
  116OSM   H14G12191   1.572  -0.671   7.961 -0.5006 -0.3954  1.5889
  116OSM   C15F12192   1.614  -0.526   8.116  0.5938 -0.1700 -0.5911
  116OSM   H15F12193   1.509  -0.489   8.121  0.6318 -0.1824  0.6965
  116OSM   H15G12194   1.680  -0.439   8.136  0.5380 -0.3392  0.3898
  116OSM   C16F12195   1.630  -0.633   8.227  0.3720 -0.3785  0.5164
  116OSM   H16F12196   1.552  -0.709   8.206 -0.0390  0.0520  0.4726
  116OSM   H16G12197   1.618  -0.593   8.330 -1.0124 -1.4887  0.8113
  116OSM   C17F12198   1.769  -0.702   8.228 -0.0971  0.0093  0.0461
  116OSM   H17F12199   1.851  -0.627   8.224  3.0466 -3.1027  1.1991
  116OSM   H17G12200   1.783  -0.760   8.135 -1.1983 -0.6196  0.2519
  116OSM   C18F12201   1.795  -0.775   8.357 -0.3935 -0.3509  0.1607
  116OSM   H18F12202   1.901  -0.756   8.385 -0.5453 -1.7559  1.8084
  116OSM   H18G12203   1.774  -0.884   8.347  0.1422 -0.4417 -0.0092
  116OSM   H18H12204   1.743  -0.742   8.449 -0.5379  1.0714 -0.4104
  117OSM      N12205   0.107   0.862   6.106  0.4100  0.2595 -0.8958
  117OSM    C1512206   0.028   0.965   6.025 -0.1231  0.6193 -0.1553
  117OSM   H15A12207  -0.073   0.971   6.063  0.4688  2.6944  1.2172
  117OSM   H15B12208   0.025   0.947   5.919 -1.5594 -1.3656  0.1625
  117OSM   H15C12209   0.072   1.063   6.034  0.6850  0.4785 -2.0810
  117OSM    C1412210   0.046   0.723   6.098  0.2660  0.5610 -0.1220
  117OSM   H14A12211   0.113   0.645   6.132 -1.6553 -2.4138 -2.6528
  117OSM   H14B12212   0.031   0.693   5.996  1.3914 -2.1079  0.4141
  117OSM   H14C12213  -0.050   0.711   6.147 -0.7286  2.9231 -1.3394
  117OSM    C1312214   0.239   0.843   6.043 -0.1831  0.8316  0.0628
  117OSM   H13A12215   0.285   0.940   6.055 -0.8772  1.1556  0.1325
  117OSM   H13B12216   0.232   0.820   5.938  0.2551 -2.4367  0.6386
  117OSM   H13C12217   0.291   0.766   6.098  0.3806 -1.0436 -2.8805
  117OSM    C1212218   0.112   0.896   6.255 -0.3456 -0.0315 -0.0271
  117OSM   H12A12219   0.123   0.801   6.305  4.1119  0.7419  0.8374
  117OSM   H12B12220   0.022   0.953   6.275 -0.3152 -0.0510  0.1664
  117OSM    C1112221   0.231   0.994   6.296  0.2643  0.6798 -0.0351
  117OSM   H11A12222   0.219   1.027   6.401 -0.4210 -2.1768  0.8757
  117OSM   H11B12223   0.210   1.085   6.235 -1.2237  1.0375  0.9564
  117OSM      P12224   0.411   0.818   6.361  0.2826  0.0800  0.0423
  117OSM    O1312225   0.296   0.751   6.427 -0.0948  0.0499  0.7176
  117OSM    O1412226   0.504   0.733   6.280  1.3458  0.2831  0.2501
  117OSM    O1112227   0.502   0.892   6.461 -0.4957  0.2163  0.1181
  117OSM    O1212228   0.367   0.943   6.272 -0.2463  0.2131  0.1695
  117OSM    C1S12229   0.465   0.994   6.552  0.8451  0.1595  0.0866
  117OSM    H1S12230   0.369   0.962   6.599 -0.6579  0.0646 -2.8407
  117OSM    H1T12231   0.453   1.092   6.502 -3.4872 -0.8208 -1.1510
  117OSM     NF12232   0.517   1.076   6.781 -0.5193 -0.0280 -0.3570
  117OSM    HNF12233   0.567   1.162   6.788 -0.4965  0.0126 -0.9728
  117OSM    C2S12234   0.566   1.002   6.669  0.3245 -1.1051  0.8900
  117OSM    H2S12235   0.583   0.898   6.706 -0.2325 -0.3147  3.6301
  117OSM    C3S12236   0.709   1.061   6.628 -0.1750 -0.5079  0.9694
  117OSM    H3S12237   0.689   1.169   6.609 -0.0937 -0.8164 -1.0297
  117OSM     O312238   0.769   1.002   6.515  0.1829  0.0215 -0.0750
  117OSM    HO312239   0.704   0.940   6.482  1.2516 -0.5978 -1.1041
  117OSM    C4S12240   0.801   1.055   6.754  0.6246  0.1487 -1.4222
  117OSM    H4S12241   0.836   0.956   6.787  3.4192  1.6389  0.4401
  117OSM    C5S12242   0.838   1.156   6.838 -0.0472  0.2753 -0.0370
  117OSM    H5S12243   0.808   1.260   6.817 -0.7221 -0.2685 -1.9709
  117OSM    C6S12244   0.938   1.127   6.955  0.0516  0.3140  0.4297
  117OSM    H6S12245   1.018   1.203   6.944  1.5461 -1.3278 -0.4885
  117OSM    H6T12246   0.990   1.030   6.948 -0.5133 -0.0278  0.8745
  117OSM    C7S12247   0.873   1.129   7.090  0.4881 -0.3810  0.4148
  117OSM    H7S12248   0.927   1.088   7.178 -0.6980  3.4674  3.2154
  117OSM    H7T12249   0.772   1.081   7.090 -0.9933  2.5409  0.6216
  117OSM    C8S12250   0.837   1.276   7.140  0.6815  0.4504  0.2385
  117OSM    H8S12251   0.819   1.319   7.040 -0.3578  1.7163  0.9440
  117OSM    H8T12252   0.932   1.320   7.176  0.8728  1.7938 -1.7887
  117OSM    C9S12253   0.702   1.299   7.217  0.3922  0.4874 -0.3846
  117OSM    H9S12254   0.626   1.236   7.167 -0.4245  1.8746 -0.9303
  117OSM    H9T12255   0.683   1.408   7.222  1.6641  0.7709 -1.2599
  117OSM   C10S12256   0.715   1.249   7.366  0.0277 -0.3201 -0.7156
  117OSM   H10S12257   0.817   1.284   7.393 -0.0489 -1.2809  0.9575
  117OSM   H10T12258   0.709   1.138   7.375  0.0616 -0.1529  1.8684
  117OSM   C11S12259   0.597   1.303   7.450  1.0401 -0.0756 -0.2469
  117OSM   H11S12260   0.506   1.281   7.389  1.8700  0.8234 -1.8810
  117OSM   H11T12261   0.612   1.413   7.451 -1.7639  0.4185 -1.3616
  117OSM   C12S12262   0.581   1.245   7.592 -0.4643 -0.0161 -0.3432
  117OSM   H12S12263   0.682   1.222   7.632 -0.6429 -1.5208 -0.6858
  117OSM   H12T12264   0.530   1.149   7.617 -0.6446  0.8717  3.2898
  117OSM   C13S12265   0.521   1.344   7.699  0.5184 -0.2702 -0.3915
  117OSM   H13S12266   0.425   1.386   7.661  1.7219  3.4237  0.2410
  117OSM   H13T12267   0.586   1.433   7.698  1.3979 -0.8950 -0.0411
  117OSM   C14S12268   0.517   1.278   7.835  0.1572  1.0840  0.5208
  117OSM   H14S12269   0.621   1.288   7.875  0.3971  2.7837 -0.4447
  117OSM   H14T12270   0.479   1.175   7.818 -2.2254  2.1301 -0.8239
  117OSM   C15S12271   0.416   1.352   7.916  0.2770 -0.3845  0.6069
  117OSM   H15S12272   0.315   1.348   7.869 -0.2916  0.4228  1.6982
  117OSM   H15T12273   0.449   1.457   7.898  3.3991 -1.2297  0.9622
  117OSM   C16S12274   0.403   1.310   8.060 -0.2167  0.2134  0.1147
  117OSM   H16S12275   0.383   1.202   8.074  1.7306 -0.3524 -1.0605
  117OSM   H16T12276   0.310   1.358   8.098 -1.1698 -0.1905 -1.6012
  117OSM   C17S12277   0.525   1.350   8.141 -0.4453 -0.0154  0.1226
  117OSM   H17S12278   0.616   1.315   8.087 -0.6974 -1.6670  0.7039
  117OSM   H17T12279   0.528   1.298   8.239 -1.4366 -0.3506 -0.0151
  117OSM   C18S12280   0.537   1.501   8.157 -0.1052 -0.4106 -0.3255
  117OSM   H18S12281   0.617   1.528   8.229  0.3700  1.4183 -1.4682
  117OSM   H18T12282   0.442   1.548   8.191 -0.4210 -0.7335 -0.7382
  117OSM   H18U12283   0.566   1.555   8.064  1.5406  0.9205  0.9052
  117OSM    C1F12284   0.431   1.030   6.869 -0.1315  0.7186  0.9781
  117OSM     OF12285   0.410   0.910   6.869 -0.7430 -0.0302 -0.0058
  117OSM    C2F12286   0.372   1.118   6.968  0.4410  0.4593 -0.6737
  117OSM    H2F12287   0.271   1.140   6.926 -0.6096 -2.9921 -0.3087
  117OSM    H2G12288   0.426   1.214   6.979 -0.3214  1.0830 -2.1907
  117OSM    C3F12289   0.339   1.048   7.106 -0.0511 -0.2762 -0.0891
  117OSM    H3F12290   0.437   1.042   7.159 -1.6031 -1.0741  2.8756
  117OSM    H3G12291   0.295   0.947   7.113 -1.2756  0.3487  1.8393
  117OSM    C4F12292   0.278   1.143   7.205  0.2771 -0.1344  0.2315
  117OSM    H4F12293   0.176   1.167   7.166 -0.3184 -0.9551  1.2495
  117OSM    H4G12294   0.328   1.242   7.200  0.2967 -0.0001  2.2907
  117OSM    C5F12295   0.282   1.096   7.350  0.2313 -0.3890 -0.7007
  117OSM    H5F12296   0.387   1.060   7.363  0.6421 -0.4917 -3.5731
  117OSM    H5G12297   0.215   1.008   7.364  2.0859 -1.7087  0.4247
  117OSM    C6F12298   0.247   1.204   7.448  0.2870 -0.5751  0.0812
  117OSM    H6F12299   0.285   1.304   7.418 -1.2754  0.2541  0.7178
  117OSM    H6G12300   0.289   1.166   7.544 -2.1997 -2.4928  0.5010
  117OSM    C7F12301   0.091   1.221   7.454 -0.0468 -0.0653 -0.2087
  117OSM    H7F12302   0.057   1.229   7.348 -0.2100  1.3378 -0.0705
  117OSM    H7G12303   0.077   1.322   7.498 -0.5017  0.6256 -1.8804
  117OSM    C8F12304   0.014   1.110   7.530  0.4686 -0.0488 -0.5985
  117OSM    H8F12305   0.036   1.012   7.483  1.1647  0.0103 -0.4050
  117OSM    H8G12306  -0.097   1.112   7.519  0.3493 -1.7960  0.0373
  117OSM    C9F12307   0.070   1.121   7.672 -0.4310 -0.4173  0.3846
  117OSM    H9F12308   0.164   1.075   7.705  1.3772  1.0858 -2.2539
  117OSM   C10F12309  -0.013   1.184   7.759  0.1703  0.2864 -0.1790
  117OSM   H10F12310   0.018   1.186   7.864  0.8114 -1.3689 -0.3063
  117OSM   C11F12311  -0.155   1.226   7.732 -0.3343 -0.2625  0.5371
  117OSM   H11F12312  -0.211   1.131   7.721 -1.2439  0.4543 -1.4933
  117OSM   H11G12313  -0.153   1.294   7.644  1.3780  0.4733  1.1035
  117OSM   C12F12314  -0.206   1.300   7.858 -0.2301 -0.5892  0.0638
  117OSM   H12F12315  -0.299   1.346   7.819  0.9232 -0.5774 -2.9774
  117OSM   H12G12316  -0.129   1.377   7.879 -0.0576 -0.7850  0.1626
  117OSM   C13F12317  -0.239   1.200   7.969 -0.6289 -0.0460 -0.0664
  117OSM   H13F12318  -0.155   1.142   8.013 -0.4721  0.8042  0.8039
  117OSM   H13G12319  -0.303   1.125   7.920  0.9542 -0.9565 -0.8112
  117OSM   C14F12320  -0.322   1.261   8.084 -0.3769 -0.3181 -0.3780
  117OSM   H14F12321  -0.352   1.170   8.140 -0.4971  0.4720  0.8667
  117OSM   H14G12322  -0.417   1.312   8.057  0.0953  1.2452  0.7670
  117OSM   C15F12323  -0.235   1.364   8.162 -0.0066 -0.4157 -0.6720
  117OSM   H15F12324  -0.211   1.451   8.097 -3.2650 -2.0731 -4.5511
  117OSM   H15G12325  -0.141   1.319   8.200 -0.8765 -0.0540  2.1147
  117OSM   C16F12326  -0.303   1.408   8.294  0.1600 -0.2403  0.0735
  117OSM   H16F12327  -0.328   1.310   8.340 -0.2995 -0.4688 -0.6496
  117OSM   H16G12328  -0.403   1.450   8.272 -0.5002 -2.2860 -1.0815
  117OSM   C17F12329  -0.234   1.499   8.397  0.2838 -0.2470  0.5391
  117OSM   H17F12330  -0.204   1.595   8.350 -1.2047 -0.2332 -0.4837
  117OSM   H17G12331  -0.303   1.530   8.479  0.3253  0.1593  0.4254
  117OSM   C18F12332  -0.111   1.440   8.461 -0.1220 -0.4707  0.2517
  117OSM   H18F12333  -0.137   1.350   8.521  0.0226  0.2363  1.4010
  117OSM   H18G12334  -0.062   1.517   8.524  0.8505 -0.0079 -1.0169
  117OSM   H18H12335  -0.040   1.409   8.381 -2.4625 -0.4231 -1.9555
  118OSM      N12336   2.847   2.563   5.867  0.3469  0.2208 -0.2774
  118OSM    C1512337   2.902   2.590   6.007  0.1370  0.7094  0.0625
  118OSM   H15A12338   2.973   2.672   6.005 -0.9366  1.6682  0.4060
  118OSM   H15B12339   2.940   2.506   6.063 -1.5196 -1.3932 -1.8081
  118OSM   H15C12340   2.814   2.619   6.063 -0.3670  0.7073 -0.7105
  118OSM    C1412341   2.814   2.698   5.814  0.6699  0.1368 -0.2369
  118OSM   H14A12342   2.779   2.687   5.712 -0.7602 -1.2391  0.3603
  118OSM   H14B12343   2.893   2.770   5.829  0.3216  0.7010 -1.0064
  118OSM   H14C12344   2.724   2.728   5.866 -0.3283 -2.4880 -0.3326
  118OSM    C1312345   2.958   2.498   5.789 -0.3729  0.3547  0.2418
  118OSM   H13A12346   3.051   2.542   5.822  0.3461 -1.2616  0.4760
  118OSM   H13B12347   2.951   2.510   5.682  4.0991  1.1423 -0.1649
  118OSM   H13C12348   2.957   2.391   5.799  2.7145  0.2497  0.3871
  118OSM    C1212349   2.723   2.471   5.876 -0.0352  0.5703  0.3382
  118OSM   H12A12350   2.753   2.390   5.941  0.6500  0.1798 -0.4554
  118OSM   H12B12351   2.709   2.437   5.775  1.2590 -0.5612  0.5057
  118OSM    C1112352   2.594   2.535   5.936  0.5622  0.5376 -0.1246
  118OSM   H11A12353   2.522   2.450   5.932 -1.5070  2.2276 -2.3621
  118OSM   H11B12354   2.539   2.605   5.870 -2.4978 -1.2287  0.3131
  118OSM      P12355   2.578   2.733   6.109 -0.1048 -0.0216 -0.1119
  118OSM    O1312356   2.673   2.771   6.217  0.4067  0.1016  0.0631
  118OSM    O1412357   2.567   2.822   5.992 -0.3192  0.0986  0.1564
  118OSM    O1112358   2.435   2.714   6.170  0.3815  0.2706  0.5473
  118OSM    O1212359   2.608   2.589   6.067  0.1604  0.1809  0.2389
  118OSM    C1S12360   2.393   2.619   6.267  0.7536 -0.0132  0.2009
  118OSM    H1S12361   2.453   2.526   6.279  1.7630  0.7549  1.3582
  118OSM    H1T12362   2.291   2.576   6.254  1.9197 -3.2860  0.8742
  118OSM     NF12363   2.388   2.579   6.517  0.0014 -0.1057 -0.1570
  118OSM    HNF12364   2.301   2.567   6.563  0.5244 -0.6992  0.7013
  118OSM    C2S12365   2.391   2.677   6.413 -0.0874 -0.1987  0.2408
  118OSM    H2S12366   2.476   2.746   6.430 -1.0670  1.0950  0.0782
  118OSM    C3S12367   2.263   2.771   6.408 -0.7059  0.1558  0.0135
  118OSM    H3S12368   2.174   2.711   6.377  1.0504 -2.3974 -0.3623
  118OSM     O312369   2.264   2.870   6.310 -0.4610  0.2918  0.4127
  118OSM    HO312370   2.333   2.841   6.250 -0.2225  1.2481  0.2032
  118OSM    C4S12371   2.238   2.829   6.538 -0.4718  1.2477 -0.7090
  118OSM    H4S12372   2.309   2.894   6.591  1.1298 -0.9325 -0.0341
  118OSM    C5S12373   2.120   2.819   6.600 -0.4959  0.1336 -0.2369
  118OSM    H5S12374   2.041   2.772   6.539 -0.2017 -2.4968  1.2591
  118OSM    C6S12375   2.081   2.870   6.743  1.0027  0.8862 -1.6109
  118OSM    H6S12376   2.038   2.787   6.803  1.7758  2.1970  0.8581
  118OSM    H6T12377   1.993   2.938   6.744 -0.3156 -0.7411 -0.0680
  118OSM    C7S12378   2.204   2.916   6.818  0.0051  0.0267 -0.8230
  118OSM    H7S12379   2.240   3.007   6.765  0.2891 -0.6298 -1.7966
  118OSM    H7T12380   2.292   2.848   6.811  0.8936  1.1216 -0.6612
  118OSM    C8S12381   2.192   2.942   6.965 -0.4420 -0.4669  0.0445
  118OSM    H8S12382   2.292   2.963   7.007 -1.1311 -1.2128  2.2006
  118OSM    H8T12383   2.162   2.852   7.023  0.4649 -0.5654  0.3700
  118OSM    C9S12384   2.104   3.065   6.995  0.0042 -0.7414 -0.5817
  118OSM    H9S12385   2.006   3.050   6.945 -0.0816 -0.6057 -0.4528
  118OSM    H9T12386   2.158   3.155   6.960  0.2013  1.2621  4.1308
  118OSM   C10S12387   2.074   3.091   7.144  0.2346 -0.3854 -0.3487
  118OSM   H10S12388   2.035   2.994   7.180 -3.2013 -0.0086 -2.6019
  118OSM   H10T12389   1.986   3.159   7.147  1.5957  1.4017  1.3567
  118OSM   C11S12390   2.195   3.125   7.233 -0.0649 -0.5513  0.5741
  118OSM   H11S12391   2.234   3.229   7.225  0.1066 -0.4415  2.4469
  118OSM   H11T12392   2.274   3.067   7.180 -1.2507  0.0614 -2.0522
  118OSM   C12S12393   2.179   3.091   7.381 -0.4654  0.3272  0.0940
  118OSM   H12S12394   2.118   2.998   7.386 -1.1950  0.7880 -0.0465
  118OSM   H12T12395   2.131   3.172   7.441  0.3826  1.1924 -0.3683
  118OSM   C13S12396   2.321   3.070   7.443  0.2483  0.0247 -0.3987
  118OSM   H13S12397   2.388   3.157   7.425  1.4535 -0.3524  1.8947
  118OSM   H13T12398   2.371   2.978   7.406  1.7254  0.7717 -0.3615
  118OSM   C14S12399   2.316   3.048   7.597  0.0931 -0.5120 -0.4341
  118OSM   H14S12400   2.263   2.955   7.626  0.5228 -1.4635 -2.5209
  118OSM   H14T12401   2.260   3.126   7.654 -0.2164 -1.9799  1.3671
  118OSM   C15S12402   2.455   3.043   7.657 -0.4816  0.0031  0.8495
  118OSM   H15S12403   2.495   3.145   7.642 -1.1464 -0.0911 -1.9827
  118OSM   H15T12404   2.515   2.966   7.605  0.0899  1.7023 -1.1291
  118OSM   C16S12405   2.436   3.015   7.809  0.1082 -0.2784  0.2140
  118OSM   H16S12406   2.386   2.916   7.816 -1.6986  0.4732 -1.3547
  118OSM   H16T12407   2.367   3.089   7.854 -0.6802 -0.3416 -0.8558
  118OSM   C17S12408   2.571   3.021   7.877 -0.7457 -0.4863  1.2085
  118OSM   H17S12409   2.653   2.983   7.812 -0.4213  1.2150  0.5553
  118OSM   H17T12410   2.585   2.962   7.970  2.1951  1.1276  1.9549
  118OSM   C18S12411   2.608   3.160   7.921  0.1775 -0.2771 -0.3213
  118OSM   H18S12412   2.557   3.191   8.015  0.9652 -0.1168  0.0630
  118OSM   H18T12413   2.568   3.233   7.847 -1.0863  0.3983  0.9599
  118OSM   H18U12414   2.718   3.176   7.928 -0.0662  2.2812 -1.1305
  118OSM    C1F12415   2.483   2.490   6.544 -0.3300 -0.0478  0.5115
  118OSM     OF12416   2.597   2.503   6.491  0.0216 -0.4430 -0.3035
  118OSM    C2F12417   2.437   2.378   6.631 -0.2061  0.1458  0.3244
  118OSM    H2F12418   2.452   2.277   6.586  0.5623  0.7427 -0.8045
  118OSM    H2G12419   2.329   2.375   6.653 -0.5382 -0.9723 -1.2488
  118OSM    C3F12420   2.520   2.374   6.761  0.0028  0.5865 -0.4421
  118OSM    H3F12421   2.628   2.358   6.743  0.1443  0.3222  0.5548
  118OSM    H3G12422   2.490   2.286   6.821  1.2238  0.9065  0.6926
  118OSM    C4F12423   2.485   2.493   6.846  0.5224 -0.2111 -0.1397
  118OSM    H4F12424   2.375   2.506   6.852  0.7168  0.8006  2.8434
  118OSM    H4G12425   2.522   2.590   6.806 -0.8106 -0.2780 -1.6056
  118OSM    C5F12426   2.540   2.477   6.991 -0.3743 -0.3592 -0.2025
  118OSM    H5F12427   2.651   2.476   6.980 -0.4725 -2.8989 -1.8335
  118OSM    H5G12428   2.496   2.385   7.035 -1.4695  0.6283  0.8523
  118OSM    C6F12429   2.504   2.595   7.081 -0.6031  0.0945 -0.2067
  118OSM    H6F12430   2.495   2.687   7.019  0.0359  0.1059 -0.2894
  118OSM    H6G12431   2.580   2.615   7.159  0.4383  0.8953 -1.3915
  118OSM    C7F12432   2.360   2.584   7.134 -1.3014  0.3130 -0.1039
  118OSM    H7F12433   2.358   2.495   7.202  1.1025  1.0523  1.0692
  118OSM    H7G12434   2.289   2.559   7.053 -1.2991 -0.8524  0.2285
  118OSM    C8F12435   2.316   2.706   7.213 -0.4898 -0.4086  1.3491
  118OSM    H8F12436   2.326   2.796   7.148 -0.3807 -0.1341  1.7394
  118OSM    H8G12437   2.382   2.713   7.302  0.2508 -1.8344  0.9530
  118OSM    C9F12438   2.172   2.683   7.236 -0.3445 -0.8522 -1.4588
  118OSM    H9F12439   2.105   2.693   7.150 -0.9725  2.5454 -0.7124
  118OSM   C10F12440   2.118   2.675   7.359 -0.1817 -0.2373  0.4339
  118OSM   H10F12441   2.012   2.647   7.361 -0.7417  1.5565 -1.1998
  118OSM   C11F12442   2.198   2.668   7.487 -0.0259 -0.0000  0.5704
  118OSM   H11F12443   2.275   2.749   7.488  0.9241 -0.8223 -0.9603
  118OSM   H11G12444   2.252   2.571   7.493 -1.1301 -0.5909  1.1282
  118OSM   C12F12445   2.106   2.680   7.607 -0.1642 -0.4296 -0.0759
  118OSM   H12F12446   2.045   2.587   7.609 -1.7261  0.5657  0.6175
  118OSM   H12G12447   2.032   2.763   7.598  1.2611  1.0101  1.0182
  118OSM   C13F12448   2.181   2.688   7.744 -0.3203  0.1036 -0.0597
  118OSM   H13F12449   2.273   2.750   7.734  0.2984 -1.1029 -3.0323
  118OSM   H13G12450   2.213   2.588   7.779 -2.2164 -1.2072 -1.8368
  118OSM   C14F12451   2.092   2.732   7.863 -0.2366 -0.2430  0.0328
  118OSM   H14F12452   2.044   2.635   7.886 -2.5652  0.7140 -0.4925
  118OSM   H14G12453   2.010   2.801   7.834 -0.1988 -1.0640 -2.1370
  118OSM   C15F12454   2.173   2.783   7.991  0.1122  0.3700 -0.1753
  118OSM   H15F12455   2.183   2.893   7.977 -0.5315  0.2095 -2.0990
  118OSM   H15G12456   2.276   2.740   7.996 -0.3772 -0.7079  1.2470
  118OSM   C16F12457   2.099   2.742   8.125  0.3187  0.3237  0.4246
  118OSM   H16F12458   1.992   2.773   8.122  0.0835 -0.4898 -2.6907
  118OSM   H16G12459   2.152   2.796   8.207 -0.1450  0.5013  0.6144
  118OSM   C17F12460   2.108   2.592   8.154  1.0284 -0.1940  0.0541
  118OSM   H17F12461   2.207   2.554   8.122  0.9209  0.5724 -1.2202
  118OSM   H17G12462   2.037   2.542   8.085 -0.7537 -0.3099  1.8547
  118OSM   C18F12463   2.058   2.556   8.291  0.5322  0.4278  0.1536
  118OSM   H18F12464   2.054   2.445   8.296  1.0959  0.0929 -3.8789
  118OSM   H18G12465   1.952   2.582   8.310  0.2717  0.8786 -1.6766
  118OSM   H18H12466   2.129   2.602   8.364  3.9794 -2.3479 -1.1549
  119OSM      N12467   4.824   2.099   5.836 -0.2328  0.8593 -0.3065
  119OSM    C1512468   4.726   2.189   5.893  0.3400  0.0793  0.2487
  119OSM   H15A12469   4.768   2.266   5.957 -2.1084  1.6673  0.0873
  119OSM   H15B12470   4.664   2.138   5.965  0.8808  1.4167  1.7461
  119OSM   H15C12471   4.679   2.238   5.809  0.7588 -0.8475 -0.5392
  119OSM    C1412472   4.744   1.991   5.777 -0.1161  0.0070 -0.2569
  119OSM   H14A12473   4.688   1.944   5.855  0.4642  0.1865  0.2738
  119OSM   H14B12474   4.801   1.909   5.736 -1.6458 -2.1144  1.6790
  119OSM   H14C12475   4.674   2.032   5.705 -2.4184  0.2444  1.9794
  119OSM    C1312476   4.907   2.168   5.736 -0.4002  0.3890  0.7601
  119OSM   H13A12477   4.957   2.253   5.780  0.4601 -0.0634  0.6796
  119OSM   H13B12478   4.839   2.217   5.667 -0.4058 -0.3943  0.1980
  119OSM   H13C12479   4.974   2.101   5.684  1.8138  0.3592  3.4597
  119OSM    C1212480   4.912   2.038   5.950  0.1859  0.3143  0.1228
  119OSM   H12A12481   4.977   2.119   5.982  0.6284  0.5726 -1.3797
  119OSM   H12B12482   4.952   1.949   5.904 -2.7634  1.2015 -4.8141
  119OSM    C1112483   4.825   1.982   6.070  0.0848  0.2706 -0.5040
  119OSM   H11A12484   4.769   2.071   6.105  1.4614  0.7930  0.4702
  119OSM   H11B12485   4.882   1.952   6.161  0.0851  0.6212 -0.3866
  119OSM      P12486   4.775   1.730   6.032  0.0652 -0.0421  0.5655
  119OSM    O1312487   4.666   1.655   5.969 -0.2451  0.7117 -0.4115
  119OSM    O1412488   4.909   1.718   5.968 -0.2257  0.0224  0.1597
  119OSM    O1112489   4.784   1.682   6.183  0.3819  0.4146  0.8705
  119OSM    O1212490   4.730   1.882   6.036 -0.7195 -1.0783  0.1890
  119OSM    C1S12491   4.659   1.674   6.251  0.8401 -0.9121  0.6927
  119OSM    H1S12492   4.634   1.567   6.232 -2.1072  0.1434 -2.1783
  119OSM    H1T12493   4.578   1.734   6.206  1.8413  0.1353  0.2489
  119OSM     NF12494   4.528   1.690   6.447 -0.6360 -0.7272  0.1886
  119OSM    HNF12495   4.476   1.774   6.464 -3.7061 -2.5340  0.4624
  119OSM    C2S12496   4.660   1.711   6.397 -0.1662 -0.4084  0.1347
  119OSM    H2S12497   4.728   1.639   6.448  0.2035  0.0327  0.2672
  119OSM    C3S12498   4.725   1.848   6.430  0.9439 -0.5531  0.4651
  119OSM    H3S12499   4.674   1.923   6.366  2.1375 -0.8218 -0.8377
  119OSM     O312500   4.863   1.863   6.388  1.1107  0.0241  0.5580
  119OSM    HO312501   4.884   1.781   6.342  1.5719  1.4355 -1.9325
  119OSM    C4S12502   4.703   1.876   6.576 -0.0388 -0.9197 -0.5431
  119OSM    H4S12503   4.766   1.806   6.634  1.6732 -0.2010 -1.4495
  119OSM    C5S12504   4.620   1.970   6.632 -0.2903 -0.2525  0.3751
  119OSM    H5S12505   4.558   2.030   6.563 -0.0607  0.7573  1.0211
  119OSM    C6S12506   4.609   1.996   6.778 -0.5234 -0.4374 -0.2997
  119OSM    H6S12507   4.504   1.997   6.813 -0.5192  0.9187 -0.2580
  119OSM    H6T12508   4.660   2.094   6.796  0.1199 -0.8023 -0.0779
  119OSM    C7S12509   4.670   1.905   6.879 -0.3497 -0.4953  0.1846
  119OSM    H7S12510   4.778   1.894   6.856 -0.5378  0.8663 -1.5329
  119OSM    H7T12511   4.633   1.800   6.879 -0.5597 -0.4355 -1.1039
  119OSM    C8S12512   4.653   1.954   7.026 -0.4430  0.2219 -0.6671
  119OSM    H8S12513   4.543   1.956   7.042 -0.4345 -2.8257  0.3879
  119OSM    H8T12514   4.697   2.055   7.036  0.8667 -0.3277 -0.6096
  119OSM    C9S12515   4.708   1.867   7.137 -0.0409 -0.2180 -0.5174
  119OSM    H9S12516   4.813   1.840   7.115  0.1923 -0.6200  0.9329
  119OSM    H9T12517   4.643   1.777   7.135  1.4546 -1.3591  0.0775
  119OSM   C10S12518   4.698   1.927   7.280 -0.5180 -0.1449  0.6638
  119OSM   H10S12519   4.599   1.972   7.303  0.6322  1.7341  2.2541
  119OSM   H10T12520   4.775   2.006   7.289 -1.0982  0.7740 -1.6059
  119OSM   C11S12521   4.711   1.814   7.383  0.2319  0.0635 -0.3382
  119OSM   H11S12522   4.801   1.755   7.356 -0.0223 -1.3407  1.6681
  119OSM   H11T12523   4.617   1.755   7.375  0.3762 -0.0938 -0.9214
  119OSM   C12S12524   4.723   1.860   7.527  0.3848  0.0497 -0.3702
  119OSM   H12S12525   4.637   1.924   7.556 -0.2401 -0.4060 -1.1779
  119OSM   H12T12526   4.814   1.924   7.532  0.1884  0.3242 -0.2944
  119OSM   C13S12527   4.739   1.748   7.634 -1.0143 -0.1095 -0.0200
  119OSM   H13S12528   4.833   1.691   7.616  0.4557  1.9331  0.7456
  119OSM   H13T12529   4.654   1.677   7.627  0.2600 -1.9278  1.6062
  119OSM   C14S12530   4.749   1.809   7.779  0.3016 -0.2547 -0.1240
  119OSM   H14S12531   4.762   1.724   7.850  0.0927  0.5447  0.8915
  119OSM   H14T12532   4.657   1.868   7.795  0.5610  0.1828 -0.2222
  119OSM   C15S12533   4.881   1.892   7.798  0.2781 -0.3833  0.6066
  119OSM   H15S12534   4.877   1.988   7.744 -2.2506 -0.0322  1.2844
  119OSM   H15T12535   4.969   1.836   7.759 -0.6161 -0.2221 -1.7883
  119OSM   C16S12536   4.918   1.932   7.943  0.6844 -0.1288 -0.0345
  119OSM   H16S12537   4.919   1.843   8.009  0.2022  1.5534  2.3752
  119OSM   H16T12538   4.836   2.000   7.975 -1.0845  0.1965 -4.4667
  119OSM   C17S12539   5.053   2.003   7.952  0.7389  0.0637 -0.0687
  119OSM   H17S12540   5.045   2.091   7.885  2.0810  0.4771  0.2976
  119OSM   H17T12541   5.131   1.937   7.908  0.4037 -0.2416 -0.2261
  119OSM   C18S12542   5.099   2.052   8.090 -0.5408 -0.9437  0.4181
  119OSM   H18S12543   5.021   2.114   8.139 -0.4224  1.1399 -1.8268
  119OSM   H18T12544   5.195   2.106   8.075 -1.2003 -0.0082 -0.5631
  119OSM   H18U12545   5.142   1.967   8.148 -1.2205 -0.3774  1.7782
  119OSM    C1F12546   4.477   1.569   6.462  0.1658 -0.3874  0.4037
  119OSM     OF12547   4.540   1.465   6.436 -0.6519 -0.0911 -0.2402
  119OSM    C2F12548   4.339   1.554   6.513 -0.5995  0.3920  0.0414
  119OSM    H2F12549   4.301   1.467   6.455 -0.3878 -0.2389  0.8191
  119OSM    H2G12550   4.279   1.642   6.484  0.1635  1.5594  1.7835
  119OSM    C3F12551   4.335   1.521   6.662 -0.0502 -0.3785 -0.1111
  119OSM    H3F12552   4.402   1.437   6.689 -1.6308 -1.0489  1.9658
  119OSM    H3G12553   4.234   1.480   6.682  1.2644 -2.5614  2.6260
  119OSM    C4F12554   4.359   1.629   6.755  0.1531 -0.4457  0.4208
  119OSM    H4F12555   4.312   1.722   6.716  1.4034 -0.2618 -0.6971
  119OSM    H4G12556   4.468   1.651   6.761  0.7276 -2.2895 -1.9904
  119OSM    C5F12557   4.311   1.597   6.893  0.6321  0.5022 -0.0872
  119OSM    H5F12558   4.389   1.529   6.934  0.2430 -0.0618 -0.2892
  119OSM    H5G12559   4.216   1.544   6.910  1.6528 -0.4184  3.6347
  119OSM    C6F12560   4.315   1.708   7.001 -0.3457  0.0253 -0.1042
  119OSM    H6F12561   4.213   1.751   6.988 -1.2015 -1.7589  0.3987
  119OSM    H6G12562   4.388   1.786   6.969  0.9724 -0.0964  2.3811
  119OSM    C7F12563   4.337   1.648   7.146  0.4456  0.3345  0.3021
  119OSM    H7F12564   4.430   1.589   7.155  1.1515  1.6530  2.2406
  119OSM    H7G12565   4.272   1.559   7.164  0.7837  0.4227  2.1071
  119OSM    C8F12566   4.346   1.760   7.259 -0.0445 -0.0072  0.6442
  119OSM    H8F12567   4.417   1.830   7.209  0.0989 -1.1862 -0.8591
  119OSM    H8G12568   4.399   1.708   7.341  0.0030 -2.6373 -0.9503
  119OSM    C9F12569   4.211   1.818   7.294 -0.6691 -0.5079 -0.6019
  119OSM    H9F12570   4.145   1.836   7.208 -0.6669 -0.6660 -0.6360
  119OSM   C10F12571   4.157   1.803   7.415  0.3111 -0.5114  0.0123
  119OSM   H10F12572   4.054   1.841   7.421 -0.1370 -0.8041 -3.6336
  119OSM   C11F12573   4.216   1.748   7.542  0.6133  0.6215  0.1245
  119OSM   H11F12574   4.253   1.646   7.518 -4.1469 -1.6171  1.2271
  119OSM   H11G12575   4.135   1.743   7.618  1.1472  2.8534  0.9187
  119OSM   C12F12576   4.328   1.832   7.592  0.3940  0.5325 -0.8046
  119OSM   H12F12577   4.288   1.936   7.603 -1.2398 -0.2954  2.2131
  119OSM   H12G12578   4.414   1.847   7.523  1.5553  2.3024  0.9167
  119OSM   C13F12579   4.379   1.785   7.728 -0.2276  0.1935  0.4435
  119OSM   H13F12580   4.484   1.749   7.726 -0.2316 -0.1098  2.7641
  119OSM   H13G12581   4.317   1.697   7.754 -0.9354  0.6368  0.3009
  119OSM   C14F12582   4.351   1.895   7.834 -0.7778 -0.1782 -0.4518
  119OSM   H14F12583   4.240   1.894   7.829 -0.8960 -2.6769  0.9577
  119OSM   H14G12584   4.402   1.984   7.791 -1.7655  0.3308 -0.6095
  119OSM   C15F12585   4.402   1.856   7.970  0.8287 -0.1838  0.3337
  119OSM   H15F12586   4.512   1.870   7.977  0.5419  2.7065  0.2156
  119OSM   H15G12587   4.382   1.749   7.990 -3.5495  0.4529  0.2029
  119OSM   C16F12588   4.339   1.942   8.084 -0.2179 -0.0074  0.3308
  119OSM   H16F12589   4.230   1.959   8.075 -0.3013 -0.4597  0.4861
  119OSM   H16G12590   4.373   2.046   8.064 -0.9221  0.1814  0.0977
  119OSM   C17F12591   4.388   1.894   8.225 -0.6726 -0.5785  0.2161
  119OSM   H17F12592   4.427   1.984   8.278  0.7835 -0.9317 -0.2023
  119OSM   H17G12593   4.482   1.839   8.203 -0.0372  0.8423 -0.8162
  119OSM   C18F12594   4.285   1.812   8.310  0.3734  0.0689 -0.3372
  119OSM   H18F12595   4.327   1.793   8.411  3.0653  0.9765 -1.1992
  119OSM   H18G12596   4.254   1.716   8.265 -1.6762  0.5534 -0.0718
  119OSM   H18H12597   4.191   1.871   8.320  0.3833 -0.2833  2.8634
  120OSM      N12598   2.325   0.290   6.025  0.3329 -0.2489  0.4543
  120OSM    C1512599   2.187   0.344   5.996 -0.2057 -0.1704  0.8031
  120OSM   H15A12600   2.143   0.407   6.072 -0.3558  0.0249  0.5583
  120OSM   H15B12601   2.106   0.278   5.969 -0.1360  0.0170  0.1106
  120OSM   H15C12602   2.201   0.407   5.909 -0.2617  0.5436  1.3015
  120OSM    C1412603   2.375   0.245   5.893  0.5470 -0.0318  0.0535
  120OSM   H14A12604   2.414   0.329   5.838  0.8964  0.2154  0.6670
  120OSM   H14B12605   2.302   0.187   5.838 -1.6866  1.5321  1.2180
  120OSM   H14C12606   2.464   0.187   5.913  0.8354  0.3440 -0.1356
  120OSM    C1312607   2.423   0.390   6.075 -0.2387  0.4412  0.3755
  120OSM   H13A12608   2.449   0.477   6.016  2.3128 -0.3461  0.2324
  120OSM   H13B12609   2.518   0.339   6.088 -0.4526 -0.1193 -0.1841
  120OSM   H13C12610   2.409   0.430   6.174  0.5376  2.0820 -0.1464
  120OSM    C1212611   2.311   0.175   6.119  0.0795 -0.3570  0.7322
  120OSM   H12A12612   2.399   0.114   6.132 -1.1324 -2.6098 -0.9767
  120OSM   H12B12613   2.234   0.112   6.077  0.2244 -1.7242  2.4244
  120OSM    C1112614   2.251   0.209   6.261 -0.2860 -0.3585 -0.0230
  120OSM   H11A12615   2.259   0.110   6.311  1.5886 -0.0923  0.2844
  120OSM   H11B12616   2.147   0.245   6.250  0.3488  0.8610 -3.2290
  120OSM      P12617   2.443   0.254   6.426 -0.2597  0.0374  0.3532
  120OSM    O1312618   2.566   0.236   6.350  0.0629  0.0260  0.0837
  120OSM    O1412619   2.449   0.356   6.537  0.3289 -0.1235 -0.3451
  120OSM    O1112620   2.407   0.109   6.485 -0.0747 -0.0297  0.4593
  120OSM    O1212621   2.333   0.305   6.323  0.1712  0.4119  0.2519
  120OSM    C1S12622   2.507   0.043   6.561 -0.4087  0.5358  0.5727
  120OSM    H1S12623   2.598   0.100   6.584 -1.0114  1.8095 -0.0883
  120OSM    H1T12624   2.550  -0.030   6.489 -1.6515  0.2678  0.0650
  120OSM     NF12625   2.578  -0.092   6.756 -0.5689 -0.0866  0.2058
  120OSM    HNF12626   2.600  -0.184   6.726 -1.4379  0.2183 -1.4529
  120OSM    C2S12627   2.464  -0.028   6.695  0.2045 -0.2076  0.4496
  120OSM    H2S12628   2.429   0.051   6.765  0.6337  0.7583 -0.3892
  120OSM    C3S12629   2.349  -0.126   6.659  0.0824  0.2013 -0.0209
  120OSM    H3S12630   2.392  -0.214   6.606 -3.6108 -1.1205 -1.1734
  120OSM     O312631   2.253  -0.082   6.563  0.3693 -0.0519 -0.5306
  120OSM    HO312632   2.285  -0.004   6.518 -1.3966  1.2134  0.3084
  120OSM    C4S12633   2.284  -0.173   6.777  0.1541  0.3044 -0.2745
  120OSM    H4S12634   2.327  -0.269   6.807  0.1835 -0.4525 -2.5433
  120OSM    C5S12635   2.178  -0.131   6.840 -0.3624  0.1298  0.4634
  120OSM    H5S12636   2.110  -0.057   6.794  2.1934  1.9102 -0.7188
  120OSM    C6S12637   2.127  -0.193   6.959 -0.2813  0.1849 -0.3882
  120OSM    H6S12638   2.202  -0.262   7.005 -3.2037 -2.6078  0.5393
  120OSM    H6T12639   2.038  -0.255   6.936 -0.1058  0.1973 -1.1306
  120OSM    C7S12640   2.073  -0.083   7.061  0.6250 -0.1084 -0.4445
  120OSM    H7S12641   1.981  -0.033   7.025  0.3615 -0.9596 -0.9715
  120OSM    H7T12642   2.149  -0.005   7.084  0.5956 -0.3525  0.5655
  120OSM    C8S12643   2.032  -0.152   7.199 -0.7956 -0.2014  0.2330
  120OSM    H8S12644   1.963  -0.237   7.179 -4.2120  2.5151 -0.3163
  120OSM    H8T12645   1.967  -0.081   7.254 -1.1592  0.2183 -0.7279
  120OSM    C9S12646   2.143  -0.193   7.293 -0.4837 -0.1218 -0.2057
  120OSM    H9S12647   2.224  -0.120   7.272 -0.7839  0.6140  1.1269
  120OSM    H9T12648   2.181  -0.293   7.262 -0.4317  0.0347 -0.6608
  120OSM   C10S12649   2.117  -0.170   7.444 -0.5310 -0.0921  0.8906
  120OSM   H10S12650   2.044  -0.087   7.452 -0.3381 -0.0244  2.1878
  120OSM   H10T12651   2.211  -0.145   7.499 -1.1662  2.0472  1.1126
  120OSM   C11S12652   2.050  -0.293   7.513  0.3150  0.6636  0.2775
  120OSM   H11S12653   2.089  -0.383   7.461 -0.8378  1.0563 -1.3725
  120OSM   H11T12654   1.941  -0.296   7.488  0.7599 -4.7685 -2.4654
  120OSM   C12S12655   2.083  -0.302   7.665  0.2097  0.2033  0.3932
  120OSM   H12S12656   2.194  -0.296   7.673  0.1821  3.0796 -0.0973
  120OSM   H12T12657   2.047  -0.402   7.696 -2.1412  1.2332  1.2256
  120OSM   C13S12658   2.023  -0.197   7.753  0.0937  0.3398  0.6573
  120OSM   H13S12659   1.919  -0.173   7.724  0.6272  1.1307 -0.6494
  120OSM   H13T12660   2.074  -0.102   7.729 -1.1284  0.8084 -0.1972
  120OSM   C14S12661   2.045  -0.232   7.903 -0.5404 -0.5418  0.1997
  120OSM   H14S12662   2.044  -0.147   7.975  0.8640 -1.7466  1.7187
  120OSM   H14T12663   2.143  -0.284   7.906 -0.1855 -0.0639 -1.9579
  120OSM   C15S12664   1.941  -0.330   7.956 -0.3591 -1.0574 -0.8746
  120OSM   H15S12665   1.940  -0.428   7.903 -0.0680 -1.4621 -0.1592
  120OSM   H15T12666   1.843  -0.279   7.952  0.9867  1.7406 -0.4187
  120OSM   C16S12667   1.977  -0.367   8.106 -0.9739  0.0601  0.0931
  120OSM   H16S12668   2.081  -0.408   8.107 -0.1543  2.0360 -0.3957
  120OSM   H16T12669   1.904  -0.434   8.156 -2.4335  1.5602  0.0476
  120OSM   C17S12670   1.989  -0.248   8.198 -0.0067  0.1691  0.7776
  120OSM   H17S12671   2.069  -0.175   8.174 -1.2246  1.4904  0.5922
  120OSM   H17T12672   2.015  -0.283   8.300  1.3240  0.6498  0.6335
  120OSM   C18S12673   1.859  -0.171   8.205 -0.3117 -0.5840  0.1882
  120OSM   H18S12674   1.766  -0.214   8.249 -0.8176  0.0317 -0.2423
  120OSM   H18T12675   1.837  -0.115   8.111  1.0699 -2.5851 -1.3993
  120OSM   H18U12676   1.875  -0.083   8.272 -1.1128 -0.5063  0.2864
  120OSM    C1F12677   2.668  -0.021   6.826  0.0478  0.6362 -0.2867
  120OSM     OF12678   2.664   0.101   6.823 -0.1081  0.7879 -0.9855
  120OSM    C2F12679   2.765  -0.103   6.912  0.3119  0.3894  0.1866
  120OSM    H2F12680   2.829  -0.158   6.839  1.0487  1.5348 -0.0541
  120OSM    H2G12681   2.712  -0.181   6.971  1.1023 -0.1307  0.2317
  120OSM    C3F12682   2.869  -0.024   6.999  0.0727 -0.3047  0.6797
  120OSM    H3F12683   2.815   0.046   7.065  1.8417  2.1776 -0.3458
  120OSM    H3G12684   2.942   0.039   6.944 -1.3643  0.4543 -0.4258
  120OSM    C4F12685   2.963  -0.110   7.083  0.1384  0.3362 -0.4895
  120OSM    H4F12686   3.044  -0.049   7.128 -0.6765  0.6873  0.5511
  120OSM    H4G12687   3.015  -0.192   7.029  1.3619  0.3625  0.6115
  120OSM    C5F12688   2.884  -0.168   7.204  0.1467  1.0924 -0.1917
  120OSM    H5F12689   2.826  -0.257   7.172 -0.1765  0.6870  1.4011
  120OSM    H5G12690   2.821  -0.087   7.246 -0.3011 -0.4360  2.2953
  120OSM    C6F12691   2.976  -0.204   7.316  0.2448  0.2995 -0.1683
  120OSM    H6F12692   3.029  -0.112   7.349  0.5462  0.0467  0.0527
  120OSM    H6G12693   3.052  -0.275   7.277 -2.5936 -3.3626  0.3232
  120OSM    C7F12694   2.907  -0.274   7.441 -0.0261 -0.1799 -0.0241
  120OSM    H7F12695   2.992  -0.299   7.508  0.1026  0.3236  0.0042
  120OSM    H7G12696   2.851  -0.367   7.415 -1.9486  0.6664  0.9206
  120OSM    C8F12697   2.825  -0.168   7.524 -0.1470  0.5390  0.0877
  120OSM    H8F12698   2.786  -0.223   7.612 -0.8267 -1.4547 -1.3986
  120OSM    H8G12699   2.742  -0.122   7.466  1.7837  0.6802 -2.7667
  120OSM    C9F12700   2.916  -0.057   7.576  0.5630 -0.2375  1.0434
  120OSM    H9F12701   2.922   0.026   7.505 -0.2452 -1.6785 -0.7965
  120OSM   C10F12702   2.988  -0.034   7.682 -0.2489 -0.3532  0.2606
  120OSM   H10F12703   3.043   0.061   7.690 -0.1615 -0.1700 -1.9914
  120OSM   C11F12704   3.014  -0.142   7.787 -0.3058  0.0256  1.2275
  120OSM   H11F12705   3.122  -0.128   7.810 -0.0497 -2.0470  1.4196
  120OSM   H11G12706   2.988  -0.237   7.737  0.3083  0.9538 -0.9871
  120OSM   C12F12707   2.932  -0.118   7.911  0.4842 -0.3157 -0.8837
  120OSM   H12F12708   2.824  -0.137   7.890 -0.2152 -0.1922  2.0916
  120OSM   H12G12709   2.927  -0.013   7.948 -0.6582 -1.2993  2.1077
  120OSM   C13F12710   2.976  -0.215   8.029 -0.4292 -0.2405  0.5469
  120OSM   H13F12711   3.087  -0.219   8.038 -0.2321 -2.3842 -1.7766
  120OSM   H13G12712   2.954  -0.322   8.007  0.0713 -0.3901  0.7478
  120OSM   C14F12713   2.931  -0.174   8.167  0.0514 -0.4547 -0.2194
  120OSM   H14F12714   2.822  -0.195   8.155 -0.0979  0.9772 -1.7825
  120OSM   H14G12715   2.943  -0.065   8.187  0.2490 -0.0987 -2.0790
  120OSM   C15F12716   2.997  -0.263   8.280  0.0401 -0.2695  0.0957
  120OSM   H15F12717   3.107  -0.252   8.266  0.4235 -3.2350 -0.0717
  120OSM   H15G12718   2.970  -0.370   8.262 -0.5704 -0.2161  0.6465
  120OSM   C16F12719   2.956  -0.223   8.420  0.0021  0.4930  0.0105
  120OSM   H16F12720   3.025  -0.144   8.456  0.3919  0.0910  0.1529
  120OSM   H16G12721   2.977  -0.314   8.481  0.1746  0.3504 -0.2605
  120OSM   C17F12722   2.811  -0.175   8.431 -0.3947 -0.4600 -0.9445
  120OSM   H17F12723   2.737  -0.255   8.406 -0.6857 -1.1772  1.8616
  120OSM   H17G12724   2.796  -0.087   8.365 -0.7998  0.2931  0.1312
  120OSM   C18F12725   2.787  -0.122   8.575  0.1757  0.4173  0.0987
  120OSM   H18F12726   2.863  -0.047   8.604 -0.4165  1.4359 -0.8813
  120OSM   H18G12727   2.806  -0.203   8.648  3.1180  0.6782 -0.2844
  120OSM   H18H12728   2.690  -0.066   8.576  0.0542  0.2977 -1.5042
  121OSM      N12729   4.130   0.081   6.168  0.0526  0.3306 -0.1307
  121OSM    C1512730   4.004   0.161   6.154 -0.3234 -0.4776 -0.6763
  121OSM   H15A12731   4.024   0.251   6.096  2.4618 -0.8592 -0.4366
  121OSM   H15B12732   3.954   0.188   6.246 -2.2300  0.0366 -1.7969
  121OSM   H15C12733   3.923   0.105   6.110 -0.4710 -1.2432  0.5384
  121OSM    C1412734   4.176   0.057   6.025  0.2028 -0.3719  0.6103
  121OSM   H14A12735   4.114  -0.011   5.969 -0.8564  0.7338  0.3976
  121OSM   H14B12736   4.277   0.021   6.031  0.7624  1.0475  0.1747
  121OSM   H14C12737   4.191   0.149   5.970  1.4487 -0.8407  0.1407
  121OSM    C1312738   4.233   0.159   6.232 -0.3248 -0.0089  0.9408
  121OSM   H13A12739   4.319   0.100   6.259  0.0116  0.7204  1.5211
  121OSM   H13B12740   4.205   0.200   6.329 -0.5851 -0.6849  1.1536
  121OSM   H13C12741   4.269   0.236   6.165  1.7898 -0.4758  1.4708
  121OSM    C1212742   4.106  -0.049   6.244 -0.2857 -0.1115  0.1505
  121OSM   H12A12743   4.059  -0.032   6.340  1.2669 -1.2232  1.1572
  121OSM   H12B12744   4.203  -0.093   6.260  0.0308 -0.1805 -1.7573
  121OSM    C1112745   4.022  -0.151   6.167  0.5279  0.4394  0.4972
  121OSM   H11A12746   4.078  -0.190   6.080  3.5206  3.6464  0.7855
  121OSM   H11B12747   3.932  -0.102   6.123  1.5307  0.8534 -1.1914
  121OSM      P12748   4.086  -0.369   6.288  0.4517  0.3158  0.1298
  121OSM    O1312749   4.017  -0.492   6.332  0.4799 -0.2073 -0.1644
  121OSM    O1412750   4.184  -0.382   6.182 -0.0314  0.1778 -0.1577
  121OSM    O1112751   4.143  -0.301   6.417 -0.0895 -0.1052 -0.7310
  121OSM    O1212752   3.982  -0.253   6.251 -0.2950  0.1966  0.4640
  121OSM    C1S12753   4.052  -0.267   6.518 -0.5118  0.8995  0.3398
  121OSM    H1S12754   4.000  -0.356   6.560 -0.8146  0.5495 -0.7454
  121OSM    H1T12755   3.979  -0.187   6.495  0.0570  1.4334  0.3458
  121OSM     NF12756   4.040  -0.178   6.752 -0.1104 -0.0660  0.5860
  121OSM    HNF12757   4.038  -0.082   6.779 -1.3914 -0.0061  0.3668
  121OSM    C2S12758   4.127  -0.206   6.644 -0.2301  0.0583  0.6106
  121OSM    H2S12759   4.205  -0.280   6.674  1.4559  0.9180 -1.3528
  121OSM    C3S12760   4.212  -0.078   6.609 -0.1759 -0.0225  0.9028
  121OSM    H3S12761   4.145  -0.012   6.549  1.3946 -0.3275 -1.3296
  121OSM     O312762   4.304  -0.100   6.503 -0.3462  0.1269  0.9027
  121OSM    HO312763   4.265  -0.176   6.459 -1.0219  0.0402  1.6301
  121OSM    C4S12764   4.275  -0.018   6.737  0.6906  0.6010  0.1617
  121OSM    H4S12765   4.202   0.040   6.796  0.2861 -0.5262  0.8072
  121OSM    C5S12766   4.404  -0.018   6.784  0.2923  0.2403  0.0052
  121OSM    H5S12767   4.485  -0.057   6.721 -0.2280  2.4426 -2.1733
  121OSM    C6S12768   4.457   0.043   6.907  0.4241 -0.3900 -0.1466
  121OSM    H6S12769   4.520   0.130   6.877 -0.8007  0.0497 -1.5728
  121OSM    H6T12770   4.522  -0.027   6.964  3.7663  1.4007 -1.4993
  121OSM    C7S12771   4.347   0.101   6.999 -0.3364 -0.6160 -0.3917
  121OSM    H7S12772   4.286   0.019   7.043  0.1236 -0.6071  0.2803
  121OSM    H7T12773   4.279   0.170   6.946 -0.0282 -0.8048 -1.0372
  121OSM    C8S12774   4.406   0.168   7.125  0.4106 -0.8252 -0.0182
  121OSM    H8S12775   4.447   0.265   7.089 -0.3123 -0.3233  0.4867
  121OSM    H8T12776   4.488   0.101   7.158  1.0574 -2.0974 -3.7236
  121OSM    C9S12777   4.287   0.205   7.217 -0.3236 -0.2344 -0.8938
  121OSM    H9S12778   4.230   0.114   7.246 -0.5223  0.0372 -0.4254
  121OSM    H9T12779   4.221   0.265   7.152 -1.0081  2.5874  2.1163
  121OSM   C10S12780   4.327   0.297   7.336  0.1532 -0.8487  0.1199
  121OSM   H10S12781   4.244   0.361   7.374 -0.1345 -0.7163 -0.7061
  121OSM   H10T12782   4.398   0.371   7.295 -2.1221  1.9987  0.9591
  121OSM   C11S12783   4.393   0.220   7.450  0.2726  0.5701  0.3928
  121OSM   H11S12784   4.433   0.124   7.411 -0.0881  0.1007  1.1426
  121OSM   H11T12785   4.304   0.187   7.509 -0.6207  0.8768 -0.7442
  121OSM   C12S12786   4.494   0.291   7.535 -0.0380  0.7422 -0.1978
  121OSM   H12S12787   4.446   0.390   7.549 -3.4846 -0.9999  1.5897
  121OSM   H12T12788   4.594   0.289   7.485  0.7594 -0.8401  1.3672
  121OSM   C13S12789   4.520   0.228   7.671  0.4737  0.3796 -0.2355
  121OSM   H13S12790   4.592   0.287   7.731  2.1700 -1.4160 -0.3905
  121OSM   H13T12791   4.558   0.124   7.663  1.5994  0.7465  0.1560
  121OSM   C14S12792   4.390   0.200   7.749  0.3514  0.6839 -0.1731
  121OSM   H14S12793   4.363   0.094   7.727  1.9213  0.3580 -0.6888
  121OSM   H14T12794   4.318   0.276   7.712 -0.5938  0.0259  0.2405
  121OSM   C15S12795   4.414   0.216   7.900  0.5894  1.0956  0.0810
  121OSM   H15S12796   4.490   0.294   7.921 -1.0226  2.7600  0.0325
  121OSM   H15T12797   4.466   0.126   7.938  0.0738  1.4908  1.7720
  121OSM   C16S12798   4.292   0.234   7.990  0.0530  0.1511  0.1128
  121OSM   H16S12799   4.328   0.240   8.095  0.1027 -0.0530  0.1062
  121OSM   H16T12800   4.222   0.150   7.975 -0.3716  0.3150  1.0904
  121OSM   C17S12801   4.215   0.362   7.953  0.6481  0.0924  0.7404
  121OSM   H17S12802   4.191   0.344   7.846  0.4354 -0.6427  0.9067
  121OSM   H17T12803   4.276   0.455   7.950 -2.5241  2.4059  1.7374
  121OSM   C18S12804   4.078   0.369   8.023 -1.1653 -0.3797 -0.2325
  121OSM   H18S12805   4.019   0.283   7.987 -0.2196 -0.7628 -0.9090
  121OSM   H18T12806   4.021   0.461   7.997 -0.2166  0.6926  1.2657
  121OSM   H18U12807   4.088   0.378   8.134 -0.6407  1.4670 -0.3846
  121OSM    C1F12808   3.990  -0.270   6.835 -0.2905 -0.2716 -0.0766
  121OSM     OF12809   3.980  -0.385   6.807 -0.2261  0.1453 -0.3031
  121OSM    C2F12810   3.949  -0.214   6.971 -0.4606 -0.7863  0.4021
  121OSM    H2F12811   3.842  -0.231   6.991 -0.4239 -0.9830  0.4302
  121OSM    H2G12812   3.975  -0.106   6.972 -3.5855  0.2202 -3.3958
  121OSM    C3F12813   4.039  -0.262   7.087 -0.7290  0.0748  0.3943
  121OSM    H3F12814   4.144  -0.280   7.057 -1.0172 -1.6662  0.3135
  121OSM    H3G12815   4.014  -0.369   7.103 -0.5818 -0.2813 -1.4814
  121OSM    C4F12816   4.029  -0.187   7.220 -0.1231  0.2514 -0.1840
  121OSM    H4F12817   4.026  -0.076   7.209  2.9820  0.4978  0.4824
  121OSM    H4G12818   4.111  -0.229   7.282 -0.7703 -0.7636  0.0174
  121OSM    C5F12819   3.895  -0.208   7.299  0.6275  0.6246  0.2949
  121OSM    H5F12820   3.874  -0.316   7.286 -1.1004  0.7948  1.4650
  121OSM    H5G12821   3.816  -0.147   7.249  1.1384  1.4593  0.4834
  121OSM    C6F12822   3.902  -0.166   7.447  0.0486 -0.1090 -0.1317
  121OSM    H6F12823   3.806  -0.188   7.499 -0.0216  2.4791  0.9782
  121OSM    H6G12824   3.947  -0.066   7.461 -0.3494 -0.1237  1.5365
  121OSM    C7F12825   4.007  -0.246   7.530  0.1435 -0.2514  0.1949
  121OSM    H7F12826   4.109  -0.227   7.488  0.3141 -2.7519 -0.7145
  121OSM    H7G12827   3.998  -0.347   7.486  0.0070 -0.0344 -0.2795
  121OSM    C8F12828   3.992  -0.238   7.680 -0.1040  0.1286  0.0143
  121OSM    H8F12829   4.059  -0.320   7.713 -0.2337  0.5457  1.3780
  121OSM    H8G12830   3.885  -0.255   7.702  0.0829  1.2531  2.0407
  121OSM    C9F12831   4.047  -0.105   7.734 -0.1325  0.6020 -0.5203
  121OSM    H9F12832   4.118  -0.054   7.667 -0.0939 -0.2436 -1.1466
  121OSM   C10F12833   4.005  -0.038   7.841  0.0410 -0.3382 -0.2172
  121OSM   H10F12834   4.043   0.063   7.863 -2.2260  0.5973 -0.2912
  121OSM   C11F12835   3.892  -0.081   7.935  0.3546  0.4565  0.1380
  121OSM   H11F12836   3.850  -0.172   7.886 -3.9794  1.6713  1.1597
  121OSM   H11G12837   3.813  -0.004   7.926  2.0050  2.3013  0.7128
  121OSM   C12F12838   3.933  -0.123   8.078 -0.2030 -0.1572 -0.2320
  121OSM   H12F12839   3.994  -0.215   8.089  2.0792  1.4571  1.3761
  121OSM   H12G12840   3.831  -0.141   8.119  1.2669 -1.5807  3.1383
  121OSM   C13F12841   3.997   0.002   8.138  0.0801  0.7072  0.9799
  121OSM   H13F12842   3.957   0.097   8.098 -0.6963 -0.3728 -0.9113
  121OSM   H13G12843   4.107  -0.004   8.122 -0.0020  0.2951  0.5601
  121OSM   C14F12844   3.962   0.011   8.285  0.0919  0.5824 -0.3226
  121OSM   H14F12845   3.941  -0.093   8.321 -1.4336  0.7035 -0.8008
  121OSM   H14G12846   3.873   0.074   8.303 -1.0503 -0.8507 -0.7610
  121OSM   C15F12847   4.077   0.063   8.376 -0.0153  0.3229  0.1535
  121OSM   H15F12848   4.171   0.008   8.356 -1.6569 -2.8745  0.4500
  121OSM   H15G12849   4.058   0.062   8.486 -2.1464 -0.7496 -0.1634
  121OSM   C16F12850   4.108   0.211   8.334 -0.4064 -0.2518 -0.6981
  121OSM   H16F12851   4.009   0.258   8.353 -0.5110 -0.1707 -1.4117
  121OSM   H16G12852   4.152   0.204   8.232  2.0836 -1.2087  0.3791
  121OSM   C17F12853   4.204   0.285   8.434  0.5367 -0.3613  0.2570
  121OSM   H17F12854   4.175   0.245   8.533 -0.0162 -0.3271  0.1125
  121OSM   H17G12855   4.184   0.394   8.430 -0.7953 -0.6024 -0.5315
  121OSM   C18F12856   4.348   0.259   8.393 -0.8022  1.2116  0.4622
  121OSM   H18F12857   4.369   0.308   8.295  1.5742 -0.1526  0.2003
  121OSM   H18G12858   4.355   0.148   8.386  0.9971  1.1522  2.1768
  121OSM   H18H12859   4.413   0.285   8.480 -1.8968 -0.3007  1.7905
  122OSM      N12860   1.711   2.263   5.986 -0.4691  0.3602 -0.1840
  122OSM    C1512861   1.815   2.158   6.028 -0.0516  0.0149  0.2826
  122OSM   H15A12862   1.912   2.145   5.983 -0.0974 -0.5980  0.3467
  122OSM   H15B12863   1.764   2.063   6.032 -0.6497  0.2917 -0.6034
  122OSM   H15C12864   1.838   2.193   6.128  0.2516  3.5596 -0.9072
  122OSM    C1412865   1.634   2.211   5.867  0.4058 -0.1343 -0.0700
  122OSM   H14A12866   1.572   2.130   5.903 -0.4492  0.5793  0.0894
  122OSM   H14B12867   1.706   2.172   5.797  1.5567  0.5269  0.7221
  122OSM   H14C12868   1.578   2.291   5.821  2.8967  0.8316 -1.6449
  122OSM    C1312869   1.616   2.295   6.104  0.5890  0.6635 -0.4837
  122OSM   H13A12870   1.568   2.213   6.155  3.0222 -0.1291  0.7035
  122OSM   H13B12871   1.538   2.366   6.084  0.2088  0.4300  0.1313
  122OSM   H13C12872   1.672   2.345   6.182  0.0351 -0.0246  0.3875
  122OSM    C1212873   1.795   2.389   5.955  0.2140  0.0169 -1.0591
  122OSM   H12A12874   1.846   2.376   5.860 -0.3542  0.9983 -1.5204
  122OSM   H12B12875   1.869   2.399   6.032  0.4361  0.6343 -1.3435
  122OSM    C1112876   1.716   2.525   5.947  0.4279  0.0812 -0.1338
  122OSM   H11A12877   1.632   2.519   5.875  0.4010  0.2025 -0.1127
  122OSM   H11B12878   1.767   2.607   5.893 -2.4074  1.0552 -1.5126
  122OSM      P12879   1.795   2.616   6.167  0.0595 -0.0999 -0.1768
  122OSM    O1312880   1.864   2.494   6.219  0.4258 -0.0249  0.2616
  122OSM    O1412881   1.883   2.712   6.093  0.2098  0.1262  0.3701
  122OSM    O1112882   1.711   2.683   6.282  0.6064 -0.0676  0.4367
  122OSM    O1212883   1.675   2.568   6.077 -0.0635 -0.0377 -0.3942
  122OSM    C1S12884   1.662   2.611   6.394 -0.1162 -0.2433  0.1765
  122OSM    H1S12885   1.683   2.502   6.394 -2.0090 -0.6435  0.1866
  122OSM    H1T12886   1.553   2.604   6.376  0.2545 -1.4474 -1.9981
  122OSM     NF12887   1.687   2.605   6.640 -0.3807 -0.9299 -0.3702
  122OSM    HNF12888   1.625   2.637   6.711  1.5794  2.1756  0.1657
  122OSM    C2S12889   1.702   2.687   6.528 -0.2679 -0.7873 -0.1263
  122OSM    H2S12890   1.807   2.723   6.520 -0.2285 -0.7148  0.6444
  122OSM    C3S12891   1.608   2.813   6.530 -0.2571  1.0600  0.1351
  122OSM    H3S12892   1.505   2.773   6.523  0.0522  0.5314 -2.2359
  122OSM     O312893   1.626   2.896   6.415  0.4549  0.1910 -0.7111
  122OSM    HO312894   1.676   2.842   6.353  1.8511  1.0530 -0.3882
  122OSM    C4S12895   1.613   2.884   6.668 -0.4181  0.4465 -0.7140
  122OSM    H4S12896   1.547   2.845   6.746  1.2260  0.9409  0.9989
  122OSM    C5S12897   1.701   2.981   6.693 -0.6490  0.4612 -0.9749
  122OSM    H5S12898   1.776   2.998   6.615 -0.7054  2.7875 -0.6046
  122OSM    C6S12899   1.718   3.044   6.833  1.2101  0.3605 -0.9168
  122OSM    H6S12900   1.789   3.128   6.818  1.2637  0.8143  1.5147
  122OSM    H6T12901   1.772   2.974   6.901  2.9785  0.0858 -2.4961
  122OSM    C7S12902   1.598   3.106   6.905  0.1806 -0.7621 -0.4392
  122OSM    H7S12903   1.530   3.024   6.936  0.8480 -1.1926 -0.0694
  122OSM    H7T12904   1.540   3.170   6.835 -0.6830 -1.7663 -0.6790
  122OSM    C8S12905   1.644   3.176   7.041  0.0101  0.2948 -0.6207
  122OSM    H8S12906   1.561   3.237   7.080  0.1683 -1.8713  3.6500
  122OSM    H8T12907   1.722   3.251   7.015 -0.1512  1.3243  1.6783
  122OSM    C9S12908   1.682   3.079   7.148  0.2248  0.1995  0.0822
  122OSM    H9S12909   1.778   3.029   7.120  0.3694 -0.4533  1.6727
  122OSM    H9T12910   1.615   2.993   7.163 -0.7460  1.1577  1.4842
  122OSM   C10S12911   1.726   3.150   7.278  0.2982 -0.2219 -0.1561
  122OSM   H10S12912   1.646   3.219   7.312  1.2973  0.9002 -0.0099
  122OSM   H10T12913   1.813   3.216   7.254  0.9528 -1.7368 -2.2806
  122OSM   C11S12914   1.764   3.067   7.401  0.5392  0.4245 -0.3202
  122OSM   H11S12915   1.852   3.009   7.365 -0.8082 -1.1351 -1.2159
  122OSM   H11T12916   1.680   2.999   7.426  0.4303  0.8287  0.4267
  122OSM   C12S12917   1.806   3.166   7.514 -0.2264  0.8920  0.1587
  122OSM   H12S12918   1.721   3.217   7.564 -0.3841  1.8551 -1.0449
  122OSM   H12T12919   1.869   3.241   7.461 -0.5670  0.7277 -0.4860
  122OSM   C13S12920   1.887   3.099   7.625 -0.3017  0.0530 -1.4559
  122OSM   H13S12921   1.979   3.053   7.583  1.0588  1.5787 -0.2862
  122OSM   H13T12922   1.831   3.011   7.663 -0.0501  1.3941  2.5405
  122OSM   C14S12923   1.934   3.207   7.731  0.7165  0.2598 -0.2445
  122OSM   H14S12924   1.837   3.260   7.743  0.2140 -0.1770 -2.0685
  122OSM   H14T12925   2.008   3.278   7.688  1.1302  0.6200  1.0173
  122OSM   C15S12926   1.997   3.168   7.865  0.7939  0.1964 -0.5792
  122OSM   H15S12927   2.093   3.112   7.856 -1.2754 -3.6272 -0.8454
  122OSM   H15T12928   1.924   3.106   7.921  3.4334 -1.9600  0.7038
  122OSM   C16S12929   2.026   3.293   7.959 -0.7940 -0.0173  0.6129
  122OSM   H16S12930   1.935   3.352   7.980 -1.2472 -1.2432  2.2677
  122OSM   H16T12931   2.102   3.355   7.907 -1.2685 -0.4971 -0.6952
  122OSM   C17S12932   2.084   3.246   8.084 -0.1977  0.2202 -0.6479
  122OSM   H17S12933   2.109   3.340   8.137  1.9178 -0.5027 -0.2534
  122OSM   H17T12934   2.186   3.206   8.061 -0.1544 -0.2799  0.3457
  122OSM   C18S12935   1.996   3.149   8.168  0.1261 -0.0591 -0.1794
  122OSM   H18S12936   1.977   3.051   8.119  1.0051  0.8546 -2.5157
  122OSM   H18T12937   1.899   3.197   8.191  0.0041 -0.7877  0.8696
  122OSM   H18U12938   2.044   3.123   8.265 -0.1817 -2.2949 -0.5732
  122OSM    C1F12939   1.781   2.516   6.661  0.3772 -0.4421 -0.2832
  122OSM     OF12940   1.868   2.492   6.580 -0.7118 -0.7020  0.0781
  122OSM    C2F12941   1.784   2.453   6.801 -0.5284 -0.6506 -0.1694
  122OSM    H2F12942   1.787   2.343   6.793  2.8153 -0.8012  1.3550
  122OSM    H2G12943   1.690   2.473   6.857  0.2531  2.0718  0.3417
  122OSM    C3F12944   1.904   2.512   6.885 -0.1290  0.5498  1.0795
  122OSM    H3F12945   1.871   2.615   6.911  1.4319  0.8797  1.9273
  122OSM    H3G12946   1.999   2.515   6.827  0.3006 -2.6034  1.4523
  122OSM    C4F12947   1.928   2.433   7.019  0.0873 -0.0301  0.0332
  122OSM    H4F12948   2.034   2.438   7.049  0.1640 -0.4067 -0.1643
  122OSM    H4G12949   1.909   2.325   6.998 -0.2668 -0.1173  0.7784
  122OSM    C5F12950   1.838   2.474   7.137 -0.3733 -0.2723  0.1900
  122OSM    H5F12951   1.734   2.493   7.102 -0.2173  2.1056  0.8339
  122OSM    H5G12952   1.878   2.569   7.178  0.0472 -0.4771  0.2638
  122OSM    C6F12953   1.850   2.373   7.249  0.3904  0.4196 -0.3657
  122OSM    H6F12954   1.956   2.348   7.273  0.8690  2.0537 -0.6399
  122OSM    H6G12955   1.788   2.284   7.225 -1.0735  0.8398  1.5804
  122OSM    C7F12956   1.773   2.428   7.367 -0.3502 -0.1457  0.3111
  122OSM    H7F12957   1.684   2.482   7.331 -0.0116  0.5641  0.5220
  122OSM    H7G12958   1.833   2.498   7.429 -1.2160 -0.5974  1.7190
  122OSM    C8F12959   1.736   2.323   7.471 -0.8046  0.1773  0.0995
  122OSM    H8F12960   1.687   2.242   7.413  0.2050 -1.5969  1.6300
  122OSM    H8G12961   1.663   2.363   7.544 -0.8618  0.2587 -0.0018
  122OSM    C9F12962   1.860   2.259   7.537  0.3220 -0.1560 -0.0790
  122OSM    H9F12963   1.929   2.204   7.472  0.0036  0.1784 -0.7079
  122OSM   C10F12964   1.882   2.247   7.665 -0.2131  0.7405 -0.2371
  122OSM   H10F12965   1.981   2.216   7.700 -0.7868  1.0332  1.7826
  122OSM   C11F12966   1.791   2.305   7.772  0.0011 -0.4393  0.2352
  122OSM   H11F12967   1.685   2.291   7.740 -0.1665 -0.4349  0.7752
  122OSM   H11G12968   1.814   2.413   7.781 -2.1523  0.2598 -1.5594
  122OSM   C12F12969   1.798   2.237   7.907 -0.1449 -0.2563 -0.3741
  122OSM   H12F12970   1.707   2.263   7.964 -0.2296  0.1584 -0.6934
  122OSM   H12G12971   1.880   2.275   7.972 -0.5044 -0.8671  0.4439
  122OSM   C13F12972   1.798   2.089   7.891  0.1503 -0.0267  0.3407
  122OSM   H13F12973   1.894   2.050   7.850 -0.1742  0.0106 -0.4873
  122OSM   H13G12974   1.724   2.058   7.813 -0.5638 -1.5533  1.5670
  122OSM   C14F12975   1.771   2.013   8.021  0.1799 -0.2876 -1.5201
  122OSM   H14F12976   1.661   2.007   8.033  0.1829  0.3324 -1.1443
  122OSM   H14G12977   1.817   2.060   8.111 -0.0923  0.0343 -1.5453
  122OSM   C15F12978   1.830   1.876   8.018  0.1439 -0.0180 -0.1982
  122OSM   H15F12979   1.938   1.897   8.034  0.1651  1.2831 -1.8871
  122OSM   H15G12980   1.831   1.832   7.916  3.0551 -1.4273  0.3187
  122OSM   C16F12981   1.774   1.785   8.130 -0.2706  0.7904  0.2576
  122OSM   H16F12982   1.680   1.732   8.101  0.9541 -0.6223 -1.3058
  122OSM   H16G12983   1.755   1.841   8.224  1.8939  0.4391  0.9347
  122OSM   C17F12984   1.873   1.671   8.167 -1.0124  0.2175 -0.1832
  122OSM   H17F12985   1.970   1.721   8.187  0.6891 -2.1286 -1.9389
  122OSM   H17G12986   1.892   1.610   8.076  0.0443 -0.0459  0.1982
  122OSM   C18F12987   1.830   1.586   8.283 -0.4948 -0.1693  0.3866
  122OSM   H18F12988   1.726   1.549   8.270 -0.5624  0.5411 -1.5427
  122OSM   H18G12989   1.837   1.652   8.372 -0.5320 -0.1947  0.4079
  122OSM   H18H12990   1.900   1.500   8.286  0.9424  0.8803 -1.0844
  123OSM      N12991   6.607   4.079   6.232  0.1688 -0.2294  0.0074
  123OSM    C1512992   6.560   4.214   6.202  0.0103  0.2410 -0.2230
  123OSM   H15A12993   6.470   4.214   6.143  0.1060 -0.6401 -0.3738
  123OSM   H15B12994   6.636   4.275   6.155 -0.1827 -1.6846 -3.2547
  123OSM   H15C12995   6.525   4.264   6.291  0.9188 -0.6857  0.6812
  123OSM    C1412996   6.497   4.010   6.305  0.3057 -0.1283 -0.0973
  123OSM   H14A12997   6.417   3.994   6.234  0.0448  0.6236  0.0196
  123OSM   H14B12998   6.454   4.058   6.391 -0.9405 -0.8626 -0.2785
  123OSM   H14C12999   6.534   3.918   6.347 -1.3174  0.5243  3.0568
  123OSM    C1313000   6.638   4.011   6.104 -0.4395 -0.2806 -0.3196
  123OSM   H13A13001   6.662   3.910   6.133  1.4127  0.7608  2.0809
  123OSM   H13B13002   6.721   4.052   6.049 -0.4055 -0.7636 -0.6332
  123OSM   H13C13003   6.546   4.012   6.047 -0.2469 -0.4880 -0.6331
  123OSM    C1213004   6.738   4.083   6.308  0.5016 -0.1795 -0.2947
  123OSM   H12A13005   6.806   4.140   6.248  0.8593 -2.0093 -1.7143
  123OSM   H12B13006   6.778   3.983   6.318  0.8618 -0.1375 -1.2886
  123OSM    C1113007   6.722   4.140   6.451 -0.4490 -0.1967 -0.7794
  123OSM   H11A13008   6.817   4.110   6.501  0.2180  0.3804 -1.6750
  123OSM   H11B13009   6.642   4.084   6.505  0.2323 -0.4172  0.0282
  123OSM      P13010   6.814   4.382   6.425 -0.5853  0.2125 -0.0691
  123OSM    O1313011   6.924   4.321   6.342  0.2812 -0.5336 -0.2349
  123OSM    O1413012   6.760   4.511   6.388  0.3872  0.7540 -0.3089
  123OSM    O1113013   6.873   4.388   6.565 -0.1227 -0.5984 -0.2056
  123OSM    O1213014   6.696   4.283   6.444  0.3302 -0.1594  0.1796
  123OSM    C1S13015   6.796   4.407   6.679 -0.2720  0.2709 -0.1663
  123OSM    H1S13016   6.753   4.310   6.713  0.1696  0.1119 -0.0533
  123OSM    H1T13017   6.702   4.460   6.654 -1.0131  0.4592  2.7017
  123OSM     NF13018   6.775   4.463   6.911  0.3115  1.1670 -0.1049
  123OSM    HNF13019   6.720   4.541   6.940  0.8118  1.6783 -0.5167
  123OSM    C2S13020   6.863   4.481   6.802  0.1321 -0.0364 -0.0050
  123OSM    H2S13021   6.960   4.433   6.827  0.5469  0.0922 -1.2924
  123OSM    C3S13022   6.893   4.626   6.765  0.2924  0.1306 -0.2194
  123OSM    H3S13023   6.792   4.669   6.745  0.3494  0.5104  0.2880
  123OSM     O313024   6.972   4.649   6.640 -0.1943 -0.3375 -0.2142
  123OSM    HO313025   6.968   4.570   6.587  1.5984 -1.0123  0.5750
  123OSM    C4S13026   6.951   4.715   6.873 -0.2505 -0.1172  1.1544
  123OSM    H4S13027   6.874   4.773   6.926 -0.1684 -0.9613  2.2232
  123OSM    C5S13028   7.082   4.731   6.900 -0.3148  0.3497 -0.5439
  123OSM    H5S13029   7.152   4.664   6.848 -0.9506  0.0631 -1.0403
  123OSM    C6S13030   7.146   4.826   7.011 -0.2363  0.7498  0.4679
  123OSM    H6S13031   7.186   4.918   6.964  0.1300  0.2682 -0.1765
  123OSM    H6T13032   7.231   4.771   7.057 -0.1214 -0.1515 -0.7589
  123OSM    C7S13033   7.051   4.882   7.125  0.7297 -0.4285 -0.1471
  123OSM    H7S13034   6.972   4.941   7.075  2.3324  2.4110  0.4425
  123OSM    H7T13035   7.107   4.953   7.190  0.2459 -0.4097  0.2592
  123OSM    C8S13036   6.987   4.773   7.210 -0.5977  0.2089  0.0490
  123OSM    H8S13037   7.053   4.729   7.288 -2.0094 -2.3974 -0.0790
  123OSM    H8T13038   6.945   4.685   7.156 -1.4279  0.4748  0.2439
  123OSM    C9S13039   6.865   4.831   7.285 -0.2259 -0.5989  0.3539
  123OSM    H9S13040   6.779   4.848   7.217  0.1295 -1.0249 -0.2045
  123OSM    H9T13041   6.891   4.936   7.312 -1.4062 -0.5610  1.4781
  123OSM   C10S13042   6.826   4.746   7.404 -0.5054  0.0842  0.0830
  123OSM   H10S13043   6.916   4.719   7.464  0.5091  0.3721 -1.2842
  123OSM   H10T13044   6.786   4.644   7.386  1.8184 -0.8183 -0.2886
  123OSM   C11S13045   6.726   4.816   7.493 -0.8474  0.0547 -0.4468
  123OSM   H11S13046   6.638   4.840   7.431 -0.7053 -1.7070 -1.3907
  123OSM   H11T13047   6.770   4.915   7.514  0.1431 -0.1347 -1.5050
  123OSM   C12S13048   6.689   4.722   7.607  0.4604  0.4222  0.5683
  123OSM   H12S13049   6.651   4.630   7.556  1.7327 -0.5847  1.4021
  123OSM   H12T13050   6.594   4.751   7.658  0.5204  1.4607  0.1075
  123OSM   C13S13051   6.804   4.697   7.704  0.0046  0.5955 -0.5288
  123OSM   H13S13052   6.833   4.795   7.747  2.5728 -0.2728 -0.1295
  123OSM   H13T13053   6.893   4.655   7.652  0.5629  1.3425 -0.1968
  123OSM   C14S13054   6.768   4.597   7.815  0.0294 -0.0429 -0.2862
  123OSM   H14S13055   6.751   4.496   7.773 -1.1919 -0.3024  0.7903
  123OSM   H14T13056   6.680   4.626   7.875 -1.5134 -0.9274 -2.0239
  123OSM   C15S13057   6.890   4.585   7.906 -0.3012 -1.1879 -0.4069
  123OSM   H15S13058   6.912   4.686   7.947 -0.1954 -1.2060 -0.4178
  123OSM   H15T13059   6.989   4.561   7.861  1.0098  1.0920  1.0443
  123OSM   C16S13060   6.863   4.492   8.014  0.6628 -0.7447  0.1040
  123OSM   H16S13061   6.857   4.397   7.958  2.8877  0.1404 -1.7700
  123OSM   H16T13062   6.763   4.525   8.049  0.7879  0.4783 -0.6318
  123OSM   C17S13063   6.965   4.485   8.127  0.0753  0.4456  0.9272
  123OSM   H17S13064   7.063   4.509   8.080 -0.1379 -1.2826 -0.5040
  123OSM   H17T13065   6.974   4.385   8.175 -0.2827 -0.4580 -0.8234
  123OSM   C18S13066   6.942   4.583   8.248  0.9733 -0.2121  0.6900
  123OSM   H18S13067   7.006   4.553   8.334  2.0582 -1.4364 -0.5083
  123OSM   H18T13068   6.835   4.578   8.277  0.0563  2.2846 -1.7885
  123OSM   H18U13069   6.969   4.687   8.219  1.3396 -0.6171 -0.4594
  123OSM    C1F13070   6.785   4.353   6.986  0.2503 -0.1958 -0.2113
  123OSM     OF13071   6.849   4.254   6.947 -0.3149 -0.0407 -0.3714
  123OSM    C2F13072   6.719   4.349   7.118 -0.4574  0.0403 -0.2196
  123OSM    H2F13073   6.639   4.272   7.119  0.1752 -0.6724  1.9924
  123OSM    H2G13074   6.663   4.440   7.145 -0.1618  0.3395 -0.6086
  123OSM    C3F13075   6.808   4.298   7.238 -0.2493  0.4255 -0.5228
  123OSM    H3F13076   6.910   4.342   7.228 -0.0383  0.1383  0.3543
  123OSM    H3G13077   6.812   4.187   7.234 -1.4230  0.1269  3.2558
  123OSM    C4F13078   6.747   4.334   7.377 -0.6444 -0.1829  0.3608
  123OSM    H4F13079   6.720   4.442   7.379  2.2082  0.6430 -0.3768
  123OSM    H4G13080   6.823   4.308   7.454 -0.7792  0.8763  0.8648
  123OSM    C5F13081   6.621   4.246   7.401  0.2750 -0.5382 -0.7222
  123OSM    H5F13082   6.649   4.142   7.430 -1.4026 -0.4710  1.3720
  123OSM    H5G13083   6.556   4.256   7.311  0.4493 -0.3876 -0.8302
  123OSM    C6F13084   6.527   4.296   7.506  0.6764 -0.0781 -0.1792
  123OSM    H6F13085   6.434   4.236   7.499 -1.8206  2.7970  3.7411
  123OSM    H6G13086   6.471   4.392   7.504  1.6787  0.5490 -2.6160
  123OSM    C7F13087   6.577   4.266   7.647  0.2624 -0.3356 -0.9219
  123OSM    H7F13088   6.660   4.335   7.673 -1.3711  1.0780  0.8351
  123OSM    H7G13089   6.621   4.164   7.655 -2.1255 -1.3141  1.2066
  123OSM    C8F13090   6.462   4.273   7.746  0.2025 -0.4475  0.2017
  123OSM    H8F13091   6.488   4.229   7.844 -0.1756 -2.7853 -0.6691
  123OSM    H8G13092   6.378   4.204   7.721 -0.5957  1.2930 -2.3458
  123OSM    C9F13093   6.400   4.407   7.767 -0.2537  0.0677 -0.2284
  123OSM    H9F13094   6.403   4.468   7.676  1.7783 -0.0929 -0.3196
  123OSM   C10F13095   6.354   4.459   7.882  0.0283 -0.0172  0.3568
  123OSM   H10F13096   6.309   4.558   7.895 -0.9862 -0.3942 -0.1419
  123OSM   C11F13097   6.354   4.389   8.013  0.1177 -0.7658 -0.0127
  123OSM   H11F13098   6.375   4.463   8.093  3.3992  0.6364 -1.9306
  123OSM   H11G13099   6.427   4.305   8.023 -0.3897 -1.1233  0.7449
  123OSM   C12F13100   6.235   4.304   8.052  0.0228  0.7513 -0.8783
  123OSM   H12F13101   6.264   4.206   8.095  1.3517  0.3309 -2.6081
  123OSM   H12G13102   6.175   4.285   7.960  1.6749 -0.3675 -1.7742
  123OSM   C13F13103   6.153   4.372   8.160  0.0115  0.8429  0.0709
  123OSM   H13F13104   6.122   4.465   8.108  1.5825  0.8605 -0.9031
  123OSM   H13G13105   6.216   4.403   8.246 -0.0668  0.2060  0.3615
  123OSM   C14F13106   6.032   4.295   8.198  0.1130  0.4554  0.4578
  123OSM   H14F13107   6.055   4.187   8.210  2.8578  1.3291  6.1726
  123OSM   H14G13108   5.948   4.320   8.129  0.7007  0.4691 -0.2715
  123OSM   C15F13109   5.985   4.327   8.341  0.2195 -0.4360 -0.2532
  123OSM   H15F13110   6.065   4.280   8.402  1.0354  0.7509 -0.3886
  123OSM   H15G13111   5.896   4.266   8.365 -0.6681  1.1770  0.6676
  123OSM   C16F13112   5.966   4.470   8.387 -0.3699  0.2839 -0.1464
  123OSM   H16F13113   5.881   4.506   8.324  0.8092  0.7060 -1.5628
  123OSM   H16G13114   6.043   4.545   8.357  1.0543 -0.6831  1.0016
  123OSM   C17F13115   5.958   4.485   8.533 -0.3114 -0.2326 -0.0774
  123OSM   H17F13116   6.053   4.451   8.582 -0.7612  2.9061  3.4368
  123OSM   H17G13117   5.867   4.437   8.574 -0.8880  0.0436 -1.0127
  123OSM   C18F13118   5.948   4.637   8.568  0.4917  0.4809  0.1704
  123OSM   H18F13119   5.845   4.674   8.549 -0.1952 -1.6539 -0.6649
  123OSM   H18G13120   6.016   4.703   8.511 -0.2215  0.9262 -0.1723
  123OSM   H18H13121   5.964   4.654   8.677 -0.9379 -2.2494  0.8996
  124OSM      N13122   0.524   1.967   5.971  0.2866 -0.4688  0.1853
  124OSM    C1513123   0.452   2.099   5.977 -0.2916  0.2441  0.1084
  124OSM   H15A13124   0.502   2.170   6.041 -0.4584  0.9985 -0.5969
  124OSM   H15B13125   0.356   2.083   6.023  0.4704 -1.8731  1.1121
  124OSM   H15C13126   0.440   2.143   5.880  1.1382  1.1757  0.3352
  124OSM    C1413127   0.460   1.879   5.867  0.3225 -0.8027  0.1867
  124OSM   H14A13128   0.461   1.933   5.773  1.2528  1.3299  1.3598
  124OSM   H14B13129   0.355   1.866   5.890 -0.1028  1.7902  0.0177
  124OSM   H14C13130   0.512   1.790   5.836  0.5449  0.0419 -2.1339
  124OSM    C1313131   0.671   1.992   5.940  0.1125 -0.3495 -0.1159
  124OSM   H13A13132   0.682   2.046   5.847 -1.3796 -1.9579 -1.3018
  124OSM   H13B13133   0.727   1.901   5.923  1.2778  0.7519 -2.8478
  124OSM   H13C13134   0.707   2.053   6.021 -4.3772  1.6048  0.7345
  124OSM    C1213135   0.511   1.903   6.107  0.7733  0.1939 -0.7194
  124OSM   H12A13136   0.572   1.814   6.104 -0.1439 -0.4314 -1.4187
  124OSM   H12B13137   0.412   1.866   6.128 -0.0363  2.1960 -0.8213
  124OSM    C1113138   0.557   1.980   6.243  0.3803 -0.0842 -0.3147
  124OSM   H11A13139   0.541   1.920   6.335 -0.9326  0.5895 -0.0847
  124OSM   H11B13140   0.505   2.076   6.261  0.3022 -0.2049  0.0982
  124OSM      P13141   0.807   1.907   6.264  0.1975  0.0808 -0.0991
  124OSM    O1313142   0.780   1.777   6.187 -0.0366 -0.3250  0.0243
  124OSM    O1413143   0.933   1.971   6.231  0.4407  0.4884 -1.0040
  124OSM    O1113144   0.791   1.880   6.424 -0.3224  0.3014 -0.0576
  124OSM    O1213145   0.691   2.015   6.229 -0.0140 -0.3542 -0.0168
  124OSM    C1S13146   0.830   1.989   6.510 -0.0900 -0.3355 -1.1481
  124OSM    H1S13147   0.772   2.079   6.481 -2.7279 -2.2140 -2.0757
  124OSM    H1T13148   0.940   2.004   6.512 -0.1853  0.4950  1.2455
  124OSM     NF13149   0.854   2.066   6.752  0.4494 -0.0191 -0.4625
  124OSM    HNF13150   0.926   2.034   6.813 -1.4612 -0.0066  1.9627
  124OSM    C2S13151   0.802   1.957   6.669 -0.0555  0.3116 -0.3481
  124OSM    H2S13152   0.693   1.963   6.690 -0.6121 -2.5668 -1.9017
  124OSM    C3S13153   0.867   1.821   6.700  0.4440 -0.1424 -0.8969
  124OSM    H3S13154   0.976   1.827   6.680  0.9695 -0.0003  1.7241
  124OSM     O313155   0.821   1.710   6.627 -0.0470 -0.0791 -0.3055
  124OSM    HO313156   0.780   1.748   6.549  0.8973  0.1149 -0.7184
  124OSM    C4S13157   0.848   1.790   6.848 -1.0136 -0.4505  0.8542
  124OSM    H4S13158   0.740   1.801   6.870 -1.7306 -0.4739 -2.2444
  124OSM    C5S13159   0.935   1.755   6.948  0.5761 -0.2875 -0.2429
  124OSM    H5S13160   1.039   1.731   6.923  0.1063 -0.2944 -2.4463
  124OSM    C6S13161   0.896   1.735   7.093 -0.2453  0.2144 -0.9145
  124OSM    H6S13162   0.960   1.808   7.147  0.3683 -0.0972 -1.2083
  124OSM    H6T13163   0.923   1.631   7.122  1.3503  1.2014  1.5200
  124OSM    C7S13164   0.753   1.772   7.126 -0.1116 -0.1890 -0.0332
  124OSM    H7S13165   0.682   1.702   7.077 -1.4134  0.1792  1.2400
  124OSM    H7T13166   0.734   1.876   7.093 -2.1433 -0.2951  0.6420
  124OSM    C8S13167   0.732   1.761   7.277 -0.5556  0.8655 -0.0119
  124OSM    H8S13168   0.802   1.829   7.330 -1.0491  0.0878  1.6912
  124OSM    H8T13169   0.756   1.657   7.307  1.9719  0.9313 -1.4884
  124OSM    C9S13170   0.587   1.790   7.327 -0.5686  0.2027 -0.0241
  124OSM    H9S13171   0.547   1.885   7.284  0.5909  0.0832 -1.4456
  124OSM    H9T13172   0.584   1.807   7.437  3.2175 -0.6846  0.3525
  124OSM   C10S13173   0.484   1.686   7.281 -0.0738 -0.3092  0.2219
  124OSM   H10S13174   0.545   1.610   7.228 -2.4422 -2.6835  0.6393
  124OSM   H10T13175   0.406   1.734   7.218 -1.3342  0.4632  2.2448
  124OSM   C11S13176   0.409   1.614   7.388 -0.2883  1.0907  0.1540
  124OSM   H11S13177   0.468   1.559   7.465  0.7691  1.8866 -0.0633
  124OSM   H11T13178   0.347   1.542   7.332 -0.9340  0.4962  1.5746
  124OSM   C12S13179   0.317   1.708   7.470  0.2081 -0.1726 -0.0122
  124OSM   H12S13180   0.239   1.755   7.405 -1.8157  0.7405  2.8961
  124OSM   H12T13181   0.376   1.795   7.507 -1.6977  1.7954 -1.3077
  124OSM   C13S13182   0.270   1.632   7.595  0.2671  0.2558 -0.1683
  124OSM   H13S13183   0.357   1.623   7.663  0.8082 -2.2717 -1.1131
  124OSM   H13T13184   0.229   1.535   7.560  1.3326  0.2715 -1.5151
  124OSM   C14S13185   0.159   1.717   7.660 -0.5140  0.3981 -0.3916
  124OSM   H14S13186   0.077   1.716   7.585 -0.8970 -0.9203  0.0090
  124OSM   H14T13187   0.185   1.825   7.665  0.0754  0.2449 -0.0967
  124OSM   C15S13188   0.120   1.678   7.803  0.5261 -0.1760 -0.7425
  124OSM   H15S13189   0.060   1.585   7.804 -1.5866  1.1080  0.4472
  124OSM   H15T13190   0.046   1.755   7.835  0.6512 -0.8514  1.2772
  124OSM   C16S13191   0.227   1.674   7.916  0.0959  0.3563 -0.4393
  124OSM   H16S13192   0.284   1.768   7.901 -0.5066  1.0967  1.6941
  124OSM   H16T13193   0.294   1.587   7.898 -0.7624  0.0560 -2.5485
  124OSM   C17S13194   0.165   1.672   8.057  0.2776 -0.3887  0.2770
  124OSM   H17S13195   0.105   1.762   8.081 -0.2062 -0.9310  1.1785
  124OSM   H17T13196   0.245   1.670   8.134 -1.4926  0.7211  2.2504
  124OSM   C18S13197   0.084   1.553   8.083  0.7663  0.4029  0.6604
  124OSM   H18S13198   0.003   1.543   8.008 -1.0459  2.4475  2.2028
  124OSM   H18T13199   0.021   1.566   8.173 -2.0878  1.0729 -1.2955
  124OSM   H18U13200   0.140   1.458   8.093 -2.8365 -1.9348  0.5742
  124OSM    C1F13201   0.799   2.186   6.752  0.3469  0.8311 -0.1322
  124OSM     OF13202   0.699   2.212   6.684 -0.1389  1.0105  0.0687
  124OSM    C2F13203   0.872   2.294   6.817 -0.2628 -0.0286 -0.2299
  124OSM    H2F13204   0.869   2.385   6.753  1.5076  0.2023 -0.0253
  124OSM    H2G13205   0.980   2.272   6.832 -0.9146 -2.3619  1.5379
  124OSM    C3F13206   0.804   2.326   6.953  0.2539 -0.0756 -0.1455
  124OSM    H3F13207   0.839   2.253   7.028 -1.3194 -2.2379 -1.4034
  124OSM    H3G13208   0.694   2.318   6.969  0.4805 -0.7743  1.1233
  124OSM    C4F13209   0.832   2.463   7.008  0.2856  0.2358 -0.8135
  124OSM    H4F13210   0.787   2.537   6.939 -0.0816 -0.8181 -1.7276
  124OSM    H4G13211   0.943   2.477   7.007  0.3626  0.4701  2.1398
  124OSM    C5F13212   0.792   2.490   7.152  0.1857 -0.0557  0.7279
  124OSM    H5F13213   0.837   2.412   7.217  3.4433  0.1446 -1.0803
  124OSM    H5G13214   0.681   2.477   7.151 -0.0481  0.9136 -3.0555
  124OSM    C6F13215   0.847   2.628   7.198 -0.4121 -0.1197 -0.2317
  124OSM    H6F13216   0.825   2.718   7.137  0.9440  0.0485 -0.5174
  124OSM    H6G13217   0.958   2.620   7.196 -0.3094  0.7860  0.6332
  124OSM    C7F13218   0.808   2.651   7.346 -0.6586 -0.1029  0.0328
  124OSM    H7F13219   0.864   2.573   7.402  1.9193 -0.1059 -2.2938
  124OSM    H7G13220   0.699   2.641   7.365 -0.7982 -0.2851 -0.7997
  124OSM    C8F13221   0.852   2.791   7.392  0.6858 -0.6195  0.1952
  124OSM    H8F13222   0.952   2.819   7.350  0.4171  1.0572  0.5894
  124OSM    H8G13223   0.851   2.797   7.503 -1.9907 -1.8830  0.3036
  124OSM    C9F13224   0.760   2.906   7.355 -0.8981  0.0128 -0.2569
  124OSM    H9F13225   0.785   2.949   7.257 -1.1798  1.8391  0.4419
  124OSM   C10F13226   0.652   2.952   7.412 -0.1577 -0.0593  0.1673
  124OSM   H10F13227   0.596   3.037   7.369  0.6649  1.3084  1.6820
  124OSM   C11F13228   0.589   2.902   7.543 -0.4923 -0.2827  0.0526
  124OSM   H11F13229   0.626   2.799   7.558  0.4291 -0.6041 -3.4964
  124OSM   H11G13230   0.478   2.910   7.535 -0.3133  0.7465 -2.0622
  124OSM   C12F13231   0.634   3.000   7.656  1.4761 -1.0145  0.6246
  124OSM   H12F13232   0.604   3.101   7.622 -0.5317 -2.0493 -0.9008
  124OSM   H12G13233   0.744   2.992   7.659  1.4314 -2.0164  0.1467
  124OSM   C13F13234   0.566   2.954   7.785  0.5042 -0.3072  0.4834
  124OSM   H13F13235   0.567   2.843   7.799 -0.1360 -0.6101 -1.5935
  124OSM   H13G13236   0.463   2.995   7.786  1.4863  2.3253  0.4622
  124OSM   C14F13237   0.643   3.011   7.902  0.6414 -0.1471 -0.2288
  124OSM   H14F13238   0.635   3.121   7.910  0.6801 -0.1581 -0.0186
  124OSM   H14G13239   0.752   3.010   7.881  1.4702  4.0299  2.6162
  124OSM   C15F13240   0.619   2.945   8.039  0.1948 -0.3041 -0.2266
  124OSM   H15F13241   0.606   2.836   8.024  1.1275 -0.8083  2.1543
  124OSM   H15G13242   0.526   2.981   8.087  0.4344  2.1331 -1.4595
  124OSM   C16F13243   0.735   2.968   8.138 -0.1144 -0.5581  0.3832
  124OSM   H16F13244   0.773   3.072   8.128 -0.6113 -0.4583 -0.6378
  124OSM   H16G13245   0.824   2.906   8.113  0.9788  0.7757  0.8610
  124OSM   C17F13246   0.695   2.953   8.283  0.4185  0.2486 -0.2624
  124OSM   H17F13247   0.610   3.016   8.317 -1.6508 -1.6881 -1.4923
  124OSM   H17G13248   0.776   2.984   8.353  0.0004  0.7270  0.0151
  124OSM   C18F13249   0.662   2.812   8.337 -0.2220 -0.6029  0.5852
  124OSM   H18F13250   0.757   2.762   8.367 -0.7075 -1.8159  0.1440
  124OSM   H18G13251   0.612   2.748   8.262 -0.7270  1.1033 -0.5754
  124OSM   H18H13252   0.591   2.808   8.423 -1.6577 -0.1558 -0.5505
  125OSM      N13253   4.130   0.978   6.004  0.3813  0.6137 -0.0642
  125OSM    C1513254   4.209   1.103   6.024  0.2756 -0.1772  0.7842
  125OSM   H15A13255   4.182   1.179   5.951  1.4524 -0.0723  0.4317
  125OSM   H15B13256   4.315   1.086   6.008 -0.2778 -2.5658 -0.7583
  125OSM   H15C13257   4.191   1.132   6.126 -1.3284 -1.5543  0.9282
  125OSM    C1413258   3.980   1.003   6.028  0.7317 -0.1819 -0.7525
  125OSM   H14A13259   3.953   1.094   5.978  0.0623  1.5069  2.3993
  125OSM   H14B13260   3.971   1.024   6.134  3.5712  2.1634 -0.8481
  125OSM   H14C13261   3.914   0.922   6.001  1.6249 -1.4647  0.7060
  125OSM    C1313262   4.145   0.939   5.865 -0.9006  0.6892  0.0005
  125OSM   H13A13263   4.115   1.016   5.796 -1.0177 -1.5468 -2.6256
  125OSM   H13B13264   4.085   0.856   5.832 -0.4129  0.9946 -1.7751
  125OSM   H13C13265   4.250   0.927   5.844 -1.2732 -0.6811 -1.2572
  125OSM    C1213266   4.193   0.870   6.097 -0.2289  0.3295 -0.0716
  125OSM   H12A13267   4.285   0.834   6.053 -1.0721  0.6968 -2.2492
  125OSM   H12B13268   4.130   0.783   6.108 -0.2541  0.3476 -0.0711
  125OSM    C1113269   4.214   0.906   6.242 -0.8011 -0.2202  0.6841
  125OSM   H11A13270   4.274   0.998   6.261 -0.7720 -0.0532 -0.1735
  125OSM   H11B13271   4.270   0.824   6.291  2.0511  1.3797  0.3601
  125OSM      P13272   4.016   0.794   6.367  0.1148  0.0911  0.2293
  125OSM    O1313273   3.869   0.827   6.373 -0.5728 -0.1943 -0.3163
  125OSM    O1413274   4.040   0.669   6.284  0.8058  0.5279  0.1110
  125OSM    O1113275   4.079   0.788   6.513 -0.4951  0.1184 -0.1235
  125OSM    O1213276   4.080   0.920   6.293  0.4542 -0.0041  0.6592
  125OSM    C1S13277   4.077   0.897   6.603 -0.0849  0.3901  0.6389
  125OSM    H1S13278   3.994   0.887   6.677  0.1847 -0.1151  0.8769
  125OSM    H1T13279   4.054   0.993   6.552 -0.1313 -0.6812 -1.4691
  125OSM     NF13280   4.209   1.057   6.730 -0.2774 -1.1351 -0.1002
  125OSM    HNF13281   4.256   1.124   6.673 -0.9980 -0.6304 -0.1126
  125OSM    C2S13282   4.205   0.917   6.684  0.0530 -0.0470  0.4608
  125OSM    H2S13283   4.190   0.839   6.763 -4.6245 -1.6171 -1.5964
  125OSM    C3S13284   4.327   0.869   6.596  0.6822 -0.2043  0.1752
  125OSM    H3S13285   4.315   0.921   6.499  0.5096  1.2843  0.9639
  125OSM     O313286   4.323   0.730   6.580 -0.3030  0.1250 -0.7488
  125OSM    HO313287   4.230   0.707   6.587  0.0707 -1.1253  0.5147
  125OSM    C4S13288   4.449   0.909   6.662  0.1147  0.3345  0.0505
  125OSM    H4S13289   4.480   1.015   6.664 -2.4218  1.1201  0.4414
  125OSM    C5S13290   4.533   0.827   6.731 -0.3895  0.1174  0.7092
  125OSM    H5S13291   4.517   0.718   6.737  1.4444 -0.3499 -1.5842
  125OSM    C6S13292   4.660   0.869   6.797 -0.4029 -0.7059 -0.1747
  125OSM    H6S13293   4.685   0.971   6.762 -0.9858  0.1723  1.7829
  125OSM    H6T13294   4.741   0.798   6.768  1.3366  1.4194 -0.7169
  125OSM    C7S13295   4.655   0.877   6.953  0.1376 -1.1656 -0.2125
  125OSM    H7S13296   4.650   0.772   6.988  2.3232 -0.4413  2.7142
  125OSM    H7T13297   4.570   0.935   6.997  3.1589  1.2908  2.9165
  125OSM    C8S13298   4.781   0.931   7.018  0.2335 -0.4481  0.6391
  125OSM    H8S13299   4.801   1.040   7.004 -4.7484  0.7128  0.6578
  125OSM    H8T13300   4.872   0.878   6.983  1.3357  0.8549  1.4262
  125OSM    C9S13301   4.778   0.934   7.174  0.0241  0.6993 -0.0317
  125OSM    H9S13302   4.709   1.019   7.196  0.2533  1.3741 -1.7540
  125OSM    H9T13303   4.876   0.962   7.217 -0.3150 -1.1888  2.1355
  125OSM   C10S13304   4.738   0.796   7.229  0.4464 -0.7489 -0.2674
  125OSM   H10S13305   4.782   0.710   7.174 -1.7552 -1.1938 -1.4453
  125OSM   H10T13306   4.629   0.787   7.209  0.5836  1.5633 -2.6632
  125OSM   C11S13307   4.756   0.777   7.385  0.3114  0.7978 -0.7429
  125OSM   H11S13308   4.687   0.840   7.446 -2.1911 -2.5185  0.1593
  125OSM   H11T13309   4.858   0.802   7.419 -0.2321  0.9301  0.8766
  125OSM   C12S13310   4.734   0.629   7.425  0.7950 -0.0586 -0.2151
  125OSM   H12S13311   4.813   0.554   7.406  2.5155  1.6098  0.0863
  125OSM   H12T13312   4.654   0.595   7.356  1.8409 -2.2142 -0.4319
  125OSM   C13S13313   4.687   0.610   7.570  0.4077 -0.3538 -0.1899
  125OSM   H13S13314   4.602   0.540   7.579  1.0487 -1.1485 -0.1930
  125OSM   H13T13315   4.656   0.708   7.613  1.1641 -0.9393  1.8144
  125OSM   C14S13316   4.801   0.559   7.658 -0.3309 -0.4783 -0.5403
  125OSM   H14S13317   4.895   0.614   7.637 -0.0271 -0.7117  0.1648
  125OSM   H14T13318   4.816   0.451   7.637 -0.3548 -0.4458 -0.7221
  125OSM   C15S13319   4.772   0.557   7.807 -0.3098  0.7607  0.4375
  125OSM   H15S13320   4.682   0.495   7.827  1.1461 -0.8894  2.3897
  125OSM   H15T13321   4.759   0.661   7.845 -0.7271  0.5267  0.9523
  125OSM   C16S13322   4.886   0.482   7.886 -0.2242  0.1383 -0.3153
  125OSM   H16S13323   4.916   0.520   7.986  0.5619 -2.8876  0.7173
  125OSM   H16T13324   4.974   0.492   7.820  0.8595  0.2079  1.0978
  125OSM   C17S13325   4.859   0.332   7.901 -0.1438  0.3651 -0.2492
  125OSM   H17S13326   4.959   0.286   7.912  0.1700  1.1921  0.4140
  125OSM   H17T13327   4.829   0.300   7.798 -1.0371  1.0570 -0.2261
  125OSM   C18S13328   4.775   0.296   8.023  0.5633  0.4941  0.2527
  125OSM   H18S13329   4.739   0.191   8.032 -2.9247  1.7017  1.7960
  125OSM   H18T13330   4.683   0.357   8.014  0.8900  1.1949  1.4303
  125OSM   H18U13331   4.833   0.324   8.114  2.0079 -2.1700  0.2653
  125OSM    C1F13332   4.129   1.096   6.830  0.2571 -0.2202 -0.2668
  125OSM     OF13333   4.049   1.018   6.882  0.7259 -0.2662 -0.3670
  125OSM    C2F13334   4.131   1.247   6.866  0.0654  0.0696  0.4136
  125OSM    H2F13335   4.036   1.292   6.831  0.1398 -0.5729 -0.6591
  125OSM    H2G13336   4.215   1.291   6.808  0.6759 -1.1231  0.3670
  125OSM    C3F13337   4.127   1.264   7.022  0.0977  0.0042 -0.0008
  125OSM    H3F13338   4.036   1.206   7.048  0.6533 -1.8249 -1.8038
  125OSM    H3G13339   4.115   1.372   7.041  0.9162  0.3079 -1.0920
  125OSM    C4F13340   4.255   1.222   7.096  0.0150  0.6256 -0.0892
  125OSM    H4F13341   4.333   1.295   7.066 -0.4119  0.1507 -2.5165
  125OSM    H4G13342   4.280   1.119   7.065  0.4868  0.6639  0.1592
  125OSM    C5F13343   4.241   1.218   7.249 -0.3352 -0.3654  0.5045
  125OSM    H5F13344   4.167   1.136   7.260  0.3610 -1.2012 -0.8285
  125OSM    H5G13345   4.186   1.313   7.268  1.0802  0.5391  0.2387
  125OSM    C6F13346   4.364   1.201   7.347  0.2793 -0.2962  0.2006
  125OSM    H6F13347   4.447   1.257   7.301  0.5101 -2.1692 -1.8502
  125OSM    H6G13348   4.412   1.101   7.341  0.7418 -0.1576  1.3048
  125OSM    C7F13349   4.335   1.237   7.500 -0.0273 -0.2783 -0.2687
  125OSM    H7F13350   4.255   1.164   7.525  0.0042  0.0412  0.7950
  125OSM    H7G13351   4.308   1.345   7.512  1.3493  0.0445  0.0972
  125OSM    C8F13352   4.457   1.209   7.588  0.3434  0.4157 -0.2021
  125OSM    H8F13353   4.541   1.270   7.550 -2.1581  2.9572 -2.0229
  125OSM    H8G13354   4.476   1.101   7.571 -1.8440 -0.0784  0.1284
  125OSM    C9F13355   4.411   1.239   7.728  0.4748 -0.1150  0.3394
  125OSM    H9F13356   4.328   1.175   7.759  2.0064 -0.8756  3.2867
  125OSM   C10F13357   4.462   1.323   7.820  0.3554 -0.3917 -0.1687
  125OSM   H10F13358   4.421   1.319   7.922  0.6356 -0.1476 -0.0425
  125OSM   C11F13359   4.579   1.412   7.800 -0.2670  0.0409  0.4779
  125OSM   H11F13360   4.547   1.518   7.786  0.6231  0.5407  1.9952
  125OSM   H11G13361   4.637   1.377   7.713  1.4121 -2.6481  2.5247
  125OSM   C12F13362   4.663   1.423   7.927 -0.1619 -0.0830  0.2089
  125OSM   H12F13363   4.756   1.481   7.909 -1.3068  1.3940 -1.3101
  125OSM   H12G13364   4.694   1.321   7.958 -0.4159  0.0244  0.8264
  125OSM   C13F13365   4.584   1.484   8.043  0.1006  0.1155  0.0995
  125OSM   H13F13366   4.505   1.413   8.074 -1.2434  1.0955 -0.9426
  125OSM   H13G13367   4.535   1.579   8.010 -1.9322 -0.4220  1.4018
  125OSM   C14F13368   4.678   1.508   8.167 -0.1125  0.4149 -0.5134
  125OSM   H14F13369   4.777   1.554   8.146  1.2319 -1.2711  1.7412
  125OSM   H14G13370   4.708   1.404   8.192  2.8548  0.2647 -3.8210
  125OSM   C15F13371   4.617   1.565   8.293 -0.7164  0.0324  0.2893
  125OSM   H15F13372   4.512   1.529   8.292 -0.4845 -0.7049  0.9914
  125OSM   H15G13373   4.618   1.675   8.281 -0.3647  0.1219  1.0556
  125OSM   C16F13374   4.688   1.527   8.424  0.4123 -0.0097 -0.7707
  125OSM   H16F13375   4.793   1.557   8.402  0.8005 -1.2377 -0.6271
  125OSM   H16G13376   4.681   1.417   8.436  1.1246  0.0542  0.3857
  125OSM   C17F13377   4.646   1.615   8.545  0.5621 -0.4672  0.0601
  125OSM   H17F13378   4.536   1.602   8.557  0.0668  0.8843 -2.2395
  125OSM   H17G13379   4.656   1.724   8.528  0.2065 -0.3367  0.6488
  125OSM   C18F13380   4.719   1.571   8.666  0.4764 -0.5396 -0.6520
  125OSM   H18F13381   4.740   1.462   8.671 -0.8959 -0.7772  0.6373
  125OSM   H18G13382   4.661   1.599   8.756  0.2531  1.7278 -1.4503
  125OSM   H18H13383   4.823   1.610   8.668 -0.6261  2.6151 -0.5861
  126OSM      N13384   1.808   5.063   6.134  0.3291  0.5736  0.0580
  126OSM    C1513385   1.772   4.926   6.102  0.4780 -0.4993 -0.1854
  126OSM   H15A13386   1.734   4.867   6.184  1.1407  0.4423  0.8209
  126OSM   H15B13387   1.858   4.865   6.077  0.9715 -0.6420  1.6864
  126OSM   H15C13388   1.697   4.917   6.025 -0.3030  1.0738  0.3590
  126OSM    C1413389   1.859   5.129   6.005 -0.1790  0.1718 -0.5150
  126OSM   H14A13390   1.859   5.237   6.011 -1.9151  0.1528  0.5260
  126OSM   H14B13391   1.793   5.114   5.920  0.9678  0.0863 -1.4208
  126OSM   H14C13392   1.955   5.095   5.971  0.5855  1.0372  0.7179
  126OSM    C1313393   1.685   5.134   6.170 -0.0727  0.1923  1.1100
  126OSM   H13A13394   1.612   5.133   6.091  0.0510  1.0148  0.9856
  126OSM   H13B13395   1.691   5.241   6.182 -2.6757  0.2261  3.1300
  126OSM   H13C13396   1.632   5.097   6.257  0.5029 -0.9937  0.9848
  126OSM    C1213397   1.911   5.064   6.243 -0.6270  0.4936  0.1062
  126OSM   H12A13398   1.923   5.166   6.275  0.3938 -0.0153  1.4272
  126OSM   H12B13399   2.000   5.047   6.184 -2.0241  1.7424 -2.5869
  126OSM    C1113400   1.888   4.976   6.366 -0.3826 -0.3849  0.8768
  126OSM   H11A13401   1.973   4.998   6.434  0.0502  2.1714 -0.3705
  126OSM   H11B13402   1.882   4.868   6.339 -1.5131 -0.1973  0.3310
  126OSM      P13403   1.751   5.138   6.517  0.4204 -0.1874  0.2839
  126OSM    O1313404   1.841   5.251   6.476  0.2324  0.2055  0.2511
  126OSM    O1413405   1.605   5.166   6.529 -0.4422  0.2452  0.3777
  126OSM    O1113406   1.801   5.082   6.660  0.1417 -0.2720 -0.3741
  126OSM    O1213407   1.762   5.014   6.422 -0.8409  0.1595 -0.3881
  126OSM    C1S13408   1.760   4.948   6.696  1.0501  0.8143  0.5875
  126OSM    H1S13409   1.825   4.881   6.637  0.7512  1.8081 -0.9280
  126OSM    H1T13410   1.656   4.937   6.660  1.6410 -0.0637 -0.8888
  126OSM     NF13411   1.740   4.780   6.872 -0.6938 -0.0977 -0.2726
  126OSM    HNF13412   1.656   4.757   6.921  0.6933  0.4077  2.5787
  126OSM    C2S13413   1.761   4.926   6.846  0.4878  0.1578 -1.0995
  126OSM    H2S13414   1.862   4.954   6.882 -0.1010  1.3590 -0.2819
  126OSM    C3S13415   1.653   5.014   6.920  0.1410  0.6804  0.9128
  126OSM    H3S13416   1.554   4.974   6.889  1.0353 -0.5753 -0.4264
  126OSM     O313417   1.651   5.156   6.891 -0.4667  0.3419 -0.3968
  126OSM    HO313418   1.696   5.157   6.806 -0.4956 -0.1422 -0.4223
  126OSM    C4S13419   1.665   5.005   7.067 -0.2599 -0.0624 -0.0063
  126OSM    H4S13420   1.772   5.016   7.093  0.1076 -1.2841 -0.9064
  126OSM    C5S13421   1.580   4.944   7.143 -0.0126 -0.0455 -0.0838
  126OSM    H5S13422   1.487   4.901   7.105 -0.4263  1.2539 -0.5714
  126OSM    C6S13423   1.598   4.929   7.290  0.2383 -0.3929 -0.5600
  126OSM    H6S13424   1.509   4.963   7.348  1.2737  1.4801 -0.0153
  126OSM    H6T13425   1.682   4.988   7.332 -1.0677  0.1014  1.4856
  126OSM    C7S13426   1.631   4.781   7.316  0.0336  0.3824 -0.2931
  126OSM    H7S13427   1.715   4.737   7.260 -1.4379 -0.0479 -2.2667
  126OSM    H7T13428   1.543   4.716   7.297 -0.0938 -0.2735  2.1428
  126OSM    C8S13429   1.663   4.757   7.464  0.1449  0.8339  0.1883
  126OSM    H8S13430   1.571   4.747   7.525 -0.6314 -2.4051 -1.3217
  126OSM    H8T13431   1.733   4.830   7.513 -0.4720  1.2583  0.4514
  126OSM    C9S13432   1.722   4.615   7.482  0.4274  0.1230  0.2516
  126OSM    H9S13433   1.794   4.592   7.401 -0.4702 -1.7728 -0.0585
  126OSM    H9T13434   1.651   4.532   7.461 -2.6109  2.5815  0.1201
  126OSM   C10S13435   1.792   4.611   7.613  0.4821 -0.8209 -0.2416
  126OSM   H10S13436   1.863   4.698   7.619  1.3528 -1.1035 -3.9934
  126OSM   H10T13437   1.857   4.522   7.606  2.3064  0.4947 -1.0964
  126OSM   C11S13438   1.698   4.620   7.735 -0.7017 -0.8404 -0.3272
  126OSM   H11S13439   1.610   4.552   7.727 -1.2056 -0.3508  0.7453
  126OSM   H11T13440   1.667   4.725   7.752  1.9243  0.1792 -1.3188
  126OSM   C12S13441   1.768   4.561   7.861  0.4173 -0.0733  0.3241
  126OSM   H12S13442   1.864   4.618   7.864  1.1566 -1.2755  0.0601
  126OSM   H12T13443   1.790   4.457   7.829  1.4578  0.2363 -0.0071
  126OSM   C13S13444   1.692   4.567   7.992 -0.7197 -0.2286 -0.2200
  126OSM   H13S13445   1.613   4.490   7.980 -2.4484  0.9308  2.7129
  126OSM   H13T13446   1.647   4.666   8.012 -1.6924 -0.9330  1.2858
  126OSM   C14S13447   1.782   4.526   8.105  0.4276  0.3325  0.2522
  126OSM   H14S13448   1.875   4.583   8.087  0.8279 -0.0298  1.1420
  126OSM   H14T13449   1.809   4.419   8.096 -0.5548 -0.0119  1.2362
  126OSM   C15S13450   1.716   4.548   8.237  0.4264 -0.1623 -0.7149
  126OSM   H15S13451   1.620   4.492   8.243  0.6716 -0.4525  2.3010
  126OSM   H15T13452   1.671   4.647   8.260 -3.3790 -1.0999 -3.2598
  126OSM   C16S13453   1.800   4.500   8.360  0.0515  0.1633  0.8493
  126OSM   H16S13454   1.902   4.539   8.380  0.1386 -0.2552  1.2359
  126OSM   H16T13455   1.812   4.395   8.327 -1.2784 -0.2542  1.6168
  126OSM   C17S13456   1.722   4.512   8.494 -0.9519 -0.7110  0.3715
  126OSM   H17S13457   1.773   4.445   8.566  0.6035  0.4272  0.3756
  126OSM   H17T13458   1.619   4.478   8.471 -0.2337 -1.4680 -2.0543
  126OSM   C18S13459   1.724   4.653   8.565  0.3307 -0.3085  0.2962
  126OSM   H18S13460   1.665   4.646   8.659 -0.2198 -1.7371 -0.1309
  126OSM   H18T13461   1.667   4.720   8.497  1.8624 -0.1544 -0.9111
  126OSM   H18U13462   1.818   4.709   8.584  0.7147 -0.1210 -1.8624
  126OSM    C1F13463   1.833   4.684   6.839 -0.2044 -0.5437 -0.0461
  126OSM     OF13464   1.943   4.715   6.792 -0.5129  0.9715 -0.1817
  126OSM    C2F13465   1.805   4.548   6.870 -0.0002  0.9286  0.3366
  126OSM    H2F13466   1.877   4.491   6.808 -1.9931 -1.8849  0.3945
  126OSM    H2G13467   1.702   4.515   6.846 -0.4358 -0.9982  4.0812
  126OSM    C3F13468   1.833   4.528   7.017  0.6450  0.2529  0.1614
  126OSM    H3F13469   1.747   4.568   7.077 -0.1892 -1.2508  0.0130
  126OSM    H3G13470   1.923   4.580   7.057  2.5274 -1.7553 -1.2646
  126OSM    C4F13471   1.859   4.381   7.062 -0.4136  0.5566  0.4589
  126OSM    H4F13472   1.962   4.361   7.026 -0.1306  2.9639 -0.2639
  126OSM    H4G13473   1.787   4.310   7.017 -1.9814  2.5739 -0.3688
  126OSM    C5F13474   1.861   4.369   7.211  0.0204  0.3417  0.1195
  126OSM    H5F13475   1.761   4.386   7.256  1.0393  3.1091  1.5609
  126OSM    H5G13476   1.933   4.445   7.248  0.7289 -0.8017  1.1436
  126OSM    C6F13477   1.919   4.232   7.254 -0.2649  0.5211  0.4529
  126OSM    H6F13478   1.997   4.196   7.183 -0.5851  1.5616 -0.4508
  126OSM    H6G13479   1.841   4.154   7.247  0.8517 -0.5243 -1.4360
  126OSM    C7F13480   1.977   4.232   7.397  0.3482  0.0935 -0.1044
  126OSM    H7F13481   1.902   4.271   7.468  1.5734  1.7440  0.3358
  126OSM    H7G13482   2.067   4.295   7.410 -1.4738  3.1505 -1.2865
  126OSM    C8F13483   2.024   4.088   7.437 -0.4064  0.1550  1.0123
  126OSM    H8F13484   2.084   4.058   7.350  0.7153  3.3100  0.5525
  126OSM    H8G13485   1.928   4.032   7.445 -1.5439  1.8751  0.1740
  126OSM    C9F13486   2.094   4.058   7.570  0.5739 -0.7200 -0.3268
  126OSM    H9F13487   2.166   3.975   7.572  1.2048 -0.1903 -0.7636
  126OSM   C10F13488   2.096   4.135   7.681  0.2134 -0.4260  0.0335
  126OSM   H10F13489   2.154   4.094   7.764  0.7874 -0.2269 -0.2580
  126OSM   C11F13490   2.039   4.269   7.714 -0.9267  0.0707 -0.1781
  126OSM   H11F13491   1.929   4.269   7.701 -1.6671  2.2454  4.2547
  126OSM   H11G13492   2.080   4.337   7.636  3.7057 -1.7699  0.3309
  126OSM   C12F13493   2.080   4.311   7.864 -0.4600  0.1089 -0.4465
  126OSM   H12F13494   2.062   4.419   7.883  1.9632  0.9335 -2.3039
  126OSM   H12G13495   2.190   4.317   7.857 -0.2150  1.9410  3.0781
  126OSM   C13F13496   2.056   4.227   7.986  0.6261  0.4914 -0.0275
  126OSM   H13F13497   2.090   4.122   7.972  0.6659  0.6968 -1.6555
  126OSM   H13G13498   1.948   4.213   8.006  0.5312 -0.9875 -1.3604
  126OSM   C14F13499   2.118   4.291   8.109  0.0802 -0.7015 -0.0390
  126OSM   H14F13500   2.071   4.390   8.129  1.0282 -0.3256  0.3670
  126OSM   H14G13501   2.222   4.316   8.079 -0.2726 -0.6067 -1.2378
  126OSM   C15F13502   2.119   4.206   8.244  0.4470 -0.7136 -0.4813
  126OSM   H15F13503   2.201   4.132   8.241  1.3665  0.3038 -1.5444
  126OSM   H15G13504   2.020   4.160   8.266  0.0912 -0.1441 -0.8589
  126OSM   C16F13505   2.122   4.296   8.372  0.5096 -0.2017  0.9968
  126OSM   H16F13506   2.032   4.359   8.382 -0.3205 -0.9686 -1.1623
  126OSM   H16G13507   2.200   4.372   8.351 -1.7753  1.5264 -2.0053
  126OSM   C17F13508   2.164   4.224   8.503 -0.1568  0.4324 -1.0892
  126OSM   H17F13509   2.258   4.173   8.471  0.0816  1.3277 -1.8765
  126OSM   H17G13510   2.091   4.145   8.530  0.1250  0.2092 -0.9824
  126OSM   C18F13511   2.200   4.311   8.624  0.2874  0.7251  0.0848
  126OSM   H18F13512   2.297   4.360   8.600  0.2533  0.1549 -1.3369
  126OSM   H18G13513   2.209   4.260   8.722 -1.0395  0.2190 -0.0398
  126OSM   H18H13514   2.129   4.397   8.630  0.8605  1.1595  0.8595
  127OSM      N13515   5.752   5.143   6.486  0.0034 -0.9904 -0.2041
  127OSM    C1513516   5.754   5.286   6.433  0.4517  0.4656 -0.2942
  127OSM   H15A13517   5.818   5.349   6.493  0.8575  0.3962 -0.6530
  127OSM   H15B13518   5.655   5.324   6.450 -0.1858 -2.0265  2.3390
  127OSM   H15C13519   5.781   5.282   6.328 -1.0751 -0.3477 -0.6853
  127OSM    C1413520   5.893   5.106   6.523 -0.1429  0.2386  0.1776
  127OSM   H14A13521   5.931   5.160   6.608 -0.2059  0.7850 -0.1381
  127OSM   H14B13522   5.953   5.133   6.437 -1.2441 -1.1121 -1.0721
  127OSM   H14C13523   5.896   5.002   6.550  0.3804 -0.0177 -0.8045
  127OSM    C1313524   5.663   5.149   6.603  0.1704  0.1852 -0.3377
  127OSM   H13A13525   5.699   5.213   6.682  0.4622 -1.0650  0.5693
  127OSM   H13B13526   5.635   5.047   6.628 -2.2715 -0.3864 -4.4148
  127OSM   H13C13527   5.569   5.197   6.577  1.0121  1.7825 -0.5500
  127OSM    C1213528   5.700   5.051   6.375 -0.0795  0.3632  0.0032
  127OSM   H12A13529   5.704   4.951   6.416 -1.4398 -0.9624 -2.8855
  127OSM   H12B13530   5.771   5.048   6.293 -1.6668  1.8374 -1.4856
  127OSM    C1113531   5.556   5.054   6.316  0.0991 -0.6423 -0.8609
  127OSM   H11A13532   5.540   4.978   6.236  1.3471 -0.5575 -1.2132
  127OSM   H11B13533   5.540   5.147   6.258  1.6331  0.2317  0.0468
  127OSM      P13534   5.332   5.141   6.423  0.2166  0.4279 -0.0734
  127OSM    O1313535   5.365   5.281   6.455 -0.1393 -0.0601  0.6970
  127OSM    O1413536   5.247   5.120   6.300  0.2807 -0.1390 -0.6303
  127OSM    O1113537   5.243   5.086   6.541 -0.0134  0.2261  0.1050
  127OSM    O1213538   5.458   5.049   6.420  0.6643  0.0923 -0.3430
  127OSM    C1S13539   5.307   5.019   6.656 -0.5974 -0.2060  0.2780
  127OSM    H1S13540   5.407   5.065   6.671 -0.6315  0.1430 -0.5588
  127OSM    H1T13541   5.316   4.908   6.654  0.2826 -0.1484 -2.3719
  127OSM     NF13542   5.321   4.986   6.907  0.0285  0.6185 -0.1106
  127OSM    HNF13543   5.295   4.902   6.955 -0.5617  1.1276  0.4826
  127OSM    C2S13544   5.234   5.027   6.798 -0.8546 -0.7162 -0.4962
  127OSM    H2S13545   5.207   5.133   6.816 -1.7478 -0.8639 -0.9105
  127OSM    C3S13546   5.094   4.952   6.783 -0.2137 -0.4133 -0.6724
  127OSM    H3S13547   5.110   4.843   6.770 -3.7682 -1.0871 -0.3662
  127OSM     O313548   5.012   4.986   6.674 -0.3518  0.2854  0.0137
  127OSM    HO313549   5.065   5.030   6.607 -1.9294  0.4089 -1.2177
  127OSM    C4S13550   5.017   4.964   6.917 -0.1341  0.3365 -0.6223
  127OSM    H4S13551   5.037   4.879   6.983 -1.5491  1.6853  1.6731
  127OSM    C5S13552   4.928   5.055   6.965 -0.3229  0.2366  0.6388
  127OSM    H5S13553   4.884   5.133   6.902 -1.1291  0.0080  0.9068
  127OSM    C6S13554   4.862   5.040   7.104 -0.2197 -0.1301  0.5151
  127OSM    H6S13555   4.800   4.949   7.107  2.9160 -2.4382  0.4692
  127OSM    H6T13556   4.789   5.124   7.102 -2.3226 -1.8808 -0.2553
  127OSM    C7S13557   4.944   5.034   7.237 -0.5679  0.1737 -0.5708
  127OSM    H7S13558   4.977   5.138   7.256  0.6441 -0.6132  2.1478
  127OSM    H7T13559   5.038   4.977   7.222 -0.8942 -1.2308  2.0821
  127OSM    C8S13560   4.868   4.984   7.354 -0.6563 -0.0249  0.3714
  127OSM    H8S13561   4.927   4.990   7.448 -2.5484  1.0425  1.5591
  127OSM    H8T13562   4.849   4.877   7.329 -3.1560  0.3027  0.6426
  127OSM    C9S13563   4.726   5.033   7.382 -0.4537 -0.2652 -0.1760
  127OSM    H9S13564   4.660   5.006   7.297 -0.3261 -1.4055  0.0638
  127OSM    H9T13565   4.743   5.142   7.389  0.0024 -0.3669  0.4967
  127OSM   C10S13566   4.669   4.984   7.515 -0.1538 -0.0762 -0.0461
  127OSM   H10S13567   4.584   5.054   7.532  0.6057  1.5868 -2.4312
  127OSM   H10T13568   4.746   5.002   7.593  0.9202 -0.5258 -0.9670
  127OSM   C11S13569   4.620   4.840   7.510 -0.5335  0.4665 -0.4518
  127OSM   H11S13570   4.571   4.809   7.605 -2.2072 -0.1354 -1.4658
  127OSM   H11T13571   4.709   4.774   7.518  0.3550  1.7675  1.1922
  127OSM   C12S13572   4.532   4.797   7.393  0.5416  0.1480 -0.2430
  127OSM   H12S13573   4.511   4.689   7.409 -1.1821  0.4186 -0.4154
  127OSM   H12T13574   4.593   4.811   7.301  2.3612 -1.1030  0.7351
  127OSM   C13S13575   4.398   4.867   7.390 -0.0688 -0.5003 -0.2818
  127OSM   H13S13576   4.426   4.974   7.385 -0.6809 -0.1916  1.7593
  127OSM   H13T13577   4.343   4.846   7.484 -0.6620  1.2396 -0.2101
  127OSM   C14S13578   4.308   4.808   7.276  0.0252 -0.1657  0.1103
  127OSM   H14S13579   4.213   4.864   7.268  1.2435  2.6073  2.8838
  127OSM   H14T13580   4.297   4.707   7.320  0.2813 -0.2492 -0.0173
  127OSM   C15S13581   4.383   4.809   7.144 -0.3416  0.4541  0.6833
  127OSM   H15S13582   4.474   4.745   7.138 -0.0251  1.0090 -2.5067
  127OSM   H15T13583   4.404   4.913   7.110 -1.1979  0.5179  0.3360
  127OSM   C16S13584   4.295   4.758   7.031  0.1779 -0.3300 -0.9906
  127OSM   H16S13585   4.203   4.818   7.044  1.1933  0.8340  1.2464
  127OSM   H16T13586   4.264   4.654   7.056  1.3876 -0.7574 -1.1805
  127OSM   C17S13587   4.368   4.761   6.903 -1.1699 -0.1491  0.4602
  127OSM   H17S13588   4.407   4.863   6.881 -0.4343 -0.5098  0.0832
  127OSM   H17T13589   4.293   4.745   6.823  1.6039  2.0929 -2.9201
  127OSM   C18S13590   4.484   4.666   6.884  0.2791  0.4545  0.4225
  127OSM   H18S13591   4.499   4.645   6.776  1.8510 -0.1238  0.7279
  127OSM   H18T13592   4.465   4.571   6.939 -2.9892  1.1404  0.6805
  127OSM   H18U13593   4.576   4.718   6.918 -0.3466  0.2406  2.5921
  127OSM    C1F13594   5.415   5.063   6.952  0.5676 -0.2798 -0.7906
  127OSM     OF13595   5.425   5.175   6.908 -0.4005 -0.5946 -0.4685
  127OSM    C2F13596   5.511   5.007   7.051 -0.5126  0.3196  0.3084
  127OSM    H2F13597   5.587   5.084   7.075  0.1404 -0.1883 -0.1118
  127OSM    H2G13598   5.555   4.918   7.002  0.6852  2.1722 -2.2090
  127OSM    C3F13599   5.432   4.978   7.183  0.2485 -1.0467 -0.0351
  127OSM    H3F13600   5.336   4.925   7.163  0.5720 -1.7067  0.1480
  127OSM    H3G13601   5.399   5.078   7.218  2.4475 -0.1318 -0.3925
  127OSM    C4F13602   5.520   4.912   7.290  0.0469 -0.0296 -0.3049
  127OSM    H4F13603   5.623   4.955   7.291  0.3629 -0.7572 -0.1532
  127OSM    H4G13604   5.547   4.807   7.263  2.1889  0.2745  0.4448
  127OSM    C5F13605   5.454   4.911   7.429 -0.0471  0.1319 -0.2582
  127OSM    H5F13606   5.375   4.834   7.419 -0.1839  0.2195  0.1318
  127OSM    H5G13607   5.403   5.007   7.455  1.2940  0.2844  2.0599
  127OSM    C6F13608   5.549   4.876   7.545 -0.1785 -0.0133 -0.0510
  127OSM    H6F13609   5.606   4.968   7.569  2.3335 -1.0992 -1.4688
  127OSM    H6G13610   5.617   4.803   7.495  0.4301  2.4737 -3.1720
  127OSM    C7F13611   5.479   4.830   7.671  0.5546  0.7263  0.1070
  127OSM    H7F13612   5.546   4.769   7.736  0.5655  1.6846  1.0295
  127OSM    H7G13613   5.400   4.761   7.635  0.5125  1.4064 -1.1587
  127OSM    C8F13614   5.415   4.950   7.741 -0.2474 -0.1922  0.3660
  127OSM    H8F13615   5.323   4.932   7.801 -0.3862  0.0699  0.2347
  127OSM    H8G13616   5.389   5.029   7.667  1.6484 -0.8194 -1.0631
  127OSM    C9F13617   5.512   5.022   7.837 -0.8390 -0.0618  0.5866
  127OSM    H9F13618   5.618   5.011   7.808 -0.2740  0.0205  2.4774
  127OSM   C10F13619   5.487   5.073   7.957 -0.1662  0.3406 -0.6718
  127OSM   H10F13620   5.572   5.119   8.010  0.5134 -0.6461 -0.8919
  127OSM   C11F13621   5.357   5.077   8.033 -0.2168 -0.7812  0.3406
  127OSM   H11F13622   5.272   5.064   7.962  1.8729  0.2804 -2.5216
  127OSM   H11G13623   5.326   5.170   8.085 -4.2797 -0.8875 -1.5201
  127OSM   C12F13624   5.355   4.968   8.134 -0.3303 -0.1295  0.4794
  127OSM   H12F13625   5.440   4.968   8.206  0.2670 -0.2120 -0.2176
  127OSM   H12G13626   5.354   4.871   8.081  2.2971 -0.3641  0.7522
  127OSM   C13F13627   5.216   4.983   8.210  0.1678  0.1681  0.4599
  127OSM   H13F13628   5.142   4.998   8.129  1.3759 -0.4974 -0.8105
  127OSM   H13G13629   5.221   5.076   8.271  1.1859 -0.0065  0.6577
  127OSM   C14F13630   5.188   4.868   8.297  0.1216  0.4564  0.1290
  127OSM   H14F13631   5.111   4.904   8.369  0.9719  2.3737  0.1535
  127OSM   H14G13632   5.283   4.844   8.350  1.6322  2.4328 -1.5155
  127OSM   C15F13633   5.140   4.752   8.214  0.2318  0.5369 -0.0028
  127OSM   H15F13634   5.221   4.730   8.141 -0.0407  2.7469 -1.0446
  127OSM   H15G13635   5.046   4.761   8.156  0.7983  0.7638 -0.9166
  127OSM   C16F13636   5.132   4.628   8.309  0.1774  0.5052 -0.5321
  127OSM   H16F13637   5.035   4.628   8.363  0.7115  0.0049  0.4494
  127OSM   H16G13638   5.212   4.629   8.386 -2.2113  0.9897  2.1236
  127OSM   C17F13639   5.134   4.499   8.231 -0.2401 -0.5374  0.4507
  127OSM   H17F13640   5.235   4.485   8.186 -0.5905  0.7369 -0.8074
  127OSM   H17G13641   5.067   4.503   8.143 -1.9505 -0.1496  1.7219
  127OSM   C18F13642   5.106   4.362   8.309  0.6084 -0.1077 -1.3250
  127OSM   H18F13643   5.128   4.281   8.236  0.3818  1.2709 -3.0049
  127OSM   H18G13644   5.003   4.354   8.349  0.0241 -0.0977 -2.7752
  127OSM   H18H13645   5.180   4.349   8.391 -1.9363 -0.3351  1.0849
  128OSM      N13646   0.418   2.946   6.083 -0.2295 -0.4970 -0.2758
  128OSM    C1513647   0.372   2.820   6.032  0.2286 -0.1395  0.2689
  128OSM   H15A13648   0.410   2.737   6.090 -0.7871 -0.0579  1.0955
  128OSM   H15B13649   0.423   2.808   5.938 -0.1809  1.9022 -0.2608
  128OSM   H15C13650   0.265   2.815   6.017  0.4792  0.3409 -1.8960
  128OSM    C1413651   0.561   2.937   6.107  0.4060 -0.1461 -0.0130
  128OSM   H14A13652   0.619   2.926   6.017  1.6371  1.8745  0.4746
  128OSM   H14B13653   0.592   2.852   6.167 -1.6586  0.1340  1.5633
  128OSM   H14C13654   0.597   3.025   6.160  2.6317 -0.5309 -0.7639
  128OSM    C1313655   0.395   3.043   5.970  0.3420 -0.0036  0.4879
  128OSM   H13A13656   0.292   3.075   5.965 -0.6287 -2.8290  0.4909
  128OSM   H13B13657   0.422   3.010   5.871 -1.3263  0.9345 -0.3286
  128OSM   H13C13658   0.444   3.136   5.993 -1.0717  1.8734 -3.2412
  128OSM    C1213659   0.342   2.987   6.212  0.0966  1.1018  0.3950
  128OSM   H12A13660   0.367   3.091   6.230 -3.5303  2.0883  0.4642
  128OSM   H12B13661   0.381   2.936   6.299 -1.4761 -1.8514 -0.5072
  128OSM    C1113662   0.190   2.983   6.222 -0.3052  0.6157  0.7089
  128OSM   H11A13663   0.152   3.006   6.323 -1.5720 -0.5174  0.5234
  128OSM   H11B13664   0.144   2.882   6.212  1.2040 -0.0834  0.4955
  128OSM      P13665   0.135   3.230   6.166 -0.2362  0.1967 -0.2987
  128OSM    O1313666   0.269   3.280   6.199 -0.1166  0.7131  0.9357
  128OSM    O1413667   0.063   3.305   6.063  0.4712  0.0787  0.1620
  128OSM    O1113668   0.045   3.234   6.294 -0.0159 -0.3937 -0.4152
  128OSM    O1213669   0.145   3.075   6.128  0.6159 -0.0643 -0.3308
  128OSM    C1S13670   0.052   3.349   6.379 -0.6377  0.0149 -0.6594
  128OSM    H1S13671  -0.047   3.397   6.367 -0.2990  0.9896  0.3358
  128OSM    H1T13672   0.137   3.419   6.365  0.2925 -0.8843  0.3417
  128OSM     NF13673  -0.018   3.394   6.606 -0.4805 -0.4389 -0.4037
  128OSM    HNF13674   0.022   3.479   6.640  1.4613 -1.0499 -1.0024
  128OSM    C2S13675   0.063   3.305   6.528  0.4565  0.2177  0.3930
  128OSM    H2S13676   0.013   3.206   6.536  1.4311 -0.1864  2.0633
  128OSM    C3S13677   0.215   3.292   6.573  0.1928 -0.0966 -0.4017
  128OSM    H3S13678   0.263   3.391   6.562  1.0966 -0.5281 -0.4184
  128OSM     O313679   0.281   3.209   6.474 -0.0425  0.0519  0.0157
  128OSM    HO313680   0.239   3.250   6.398 -0.6314  3.4988  1.9430
  128OSM    C4S13681   0.223   3.232   6.707 -0.4555 -0.2513  0.0305
  128OSM    H4S13682   0.208   3.302   6.791  0.7576 -0.9747  0.8899
  128OSM    C5S13683   0.256   3.104   6.740  0.4619  0.1959 -0.0923
  128OSM    H5S13684   0.264   3.030   6.659 -3.1398 -0.6528  0.1682
  128OSM    C6S13685   0.266   3.053   6.881  0.5359 -0.6714  0.8866
  128OSM    H6S13686   0.362   2.998   6.892  0.3899 -1.4090 -1.1251
  128OSM    H6T13687   0.180   2.985   6.902 -0.6805  0.5446  0.0534
  128OSM    C7S13688   0.271   3.159   6.989 -0.8133  0.2728  0.7972
  128OSM    H7S13689   0.186   3.229   6.978  0.1680  1.5594  1.1710
  128OSM    H7T13690   0.360   3.225   6.991 -0.4136 -0.2476  0.5783
  128OSM    C8S13691   0.275   3.089   7.126  0.2732 -0.6015 -0.3912
  128OSM    H8S13692   0.353   3.009   7.133 -1.6755 -2.5761 -0.1429
  128OSM    H8T13693   0.181   3.033   7.147 -0.1149  0.3132  0.3932
  128OSM    C9S13694   0.311   3.186   7.243  0.2306  0.7635  0.1524
  128OSM    H9S13695   0.244   3.274   7.242 -2.7024 -1.3409 -0.0327
  128OSM    H9T13696   0.413   3.232   7.239  0.6011 -0.1047 -1.8368
  128OSM   C10S13697   0.296   3.104   7.377 -0.4252 -0.4179 -0.7200
  128OSM   H10S13698   0.356   3.010   7.369 -0.5660 -0.7482  1.4152
  128OSM   H10T13699   0.189   3.079   7.386 -0.4888  0.3287  0.8648
  128OSM   C11S13700   0.353   3.188   7.490  0.5432  0.5050  0.2757
  128OSM   H11S13701   0.450   3.238   7.466  0.9428  0.4675  1.7069
  128OSM   H11T13702   0.376   3.128   7.581 -1.0680 -0.4997  0.0558
  128OSM   C12S13703   0.244   3.290   7.524  0.6313  0.4621 -1.1088
  128OSM   H12S13704   0.150   3.235   7.546  0.2039  1.1583 -1.1621
  128OSM   H12T13705   0.218   3.360   7.441  1.7946  2.9277  0.4617
  128OSM   C13S13706   0.290   3.371   7.647  0.1444 -0.4260 -0.0750
  128OSM   H13S13707   0.234   3.463   7.670  1.9785  0.3923  1.3912
  128OSM   H13T13708   0.392   3.408   7.623  0.5659 -1.2099  0.4703
  128OSM   C14S13709   0.296   3.293   7.775 -0.6008 -0.2445 -0.3621
  128OSM   H14S13710   0.386   3.229   7.765  0.1076  0.4254  1.2896
  128OSM   H14T13711   0.209   3.224   7.786  0.2881 -1.5478 -1.2582
  128OSM   C15S13712   0.314   3.380   7.902 -0.5188  0.1445 -0.0006
  128OSM   H15S13713   0.228   3.449   7.888 -0.1776  0.6238  0.2498
  128OSM   H15T13714   0.401   3.447   7.887 -0.8080  0.5126 -0.0530
  128OSM   C16S13715   0.317   3.304   8.028  0.8301  0.3942  0.1394
  128OSM   H16S13716   0.413   3.252   8.048 -0.8093 -2.3386  1.5232
  128OSM   H16T13717   0.233   3.232   8.017  1.2261 -0.0217 -0.1797
  128OSM   C17S13718   0.291   3.390   8.152 -0.0464 -0.0844 -0.0026
  128OSM   H17S13719   0.188   3.428   8.135 -0.7699 -0.6961  2.6294
  128OSM   H17T13720   0.350   3.485   8.153 -1.7518  1.0147  0.5945
  128OSM   C18S13721   0.306   3.318   8.283 -0.2261  0.0984  0.1280
  128OSM   H18S13722   0.239   3.230   8.290  0.1948 -0.4143 -1.7780
  128OSM   H18T13723   0.288   3.385   8.370 -1.0211  0.5791 -0.3936
  128OSM   H18U13724   0.409   3.278   8.294 -0.3981 -0.3264  0.1729
  128OSM    C1F13725  -0.150   3.381   6.613  0.5218  0.2483 -0.8865
  128OSM     OF13726  -0.210   3.297   6.547 -0.8287  0.3196  0.0872
  128OSM    C2F13727  -0.222   3.487   6.700  0.1357  0.1126  0.1553
  128OSM    H2F13728  -0.309   3.529   6.644  1.0634 -0.2906 -1.6816
  128OSM    H2G13729  -0.156   3.570   6.733 -0.4266  1.1466 -1.2341
  128OSM    C3F13730  -0.264   3.430   6.838  0.0586  0.0646  0.5079
  128OSM    H3F13731  -0.199   3.357   6.891 -1.9937 -1.2535  1.3545
  128OSM    H3G13732  -0.353   3.369   6.812  0.7454 -0.2769 -1.1723
  128OSM    C4F13733  -0.305   3.533   6.944  1.4389 -0.1385  0.8351
  128OSM    H4F13734  -0.396   3.580   6.903 -0.8379 -2.3997  2.9731
  128OSM    H4G13735  -0.217   3.600   6.959  1.1314  1.0786 -2.0527
  128OSM    C5F13736  -0.359   3.476   7.079  0.5719 -0.3717 -0.3090
  128OSM    H5F13737  -0.407   3.376   7.075  0.1501 -0.1419 -0.9675
  128OSM    H5G13738  -0.418   3.554   7.131  1.0263  0.7097 -1.3727
  128OSM    C6F13739  -0.247   3.457   7.182 -0.5445  0.0327  0.0709
  128OSM    H6F13740  -0.194   3.552   7.206  1.8149 -1.3489  0.6912
  128OSM    H6G13741  -0.162   3.395   7.145  1.4652  1.7686  1.5094
  128OSM    C7F13742  -0.301   3.391   7.313  0.1603 -0.3990  0.3729
  128OSM    H7F13743  -0.353   3.296   7.287 -0.6245 -0.6203  2.6070
  128OSM    H7G13744  -0.372   3.461   7.362 -0.7114 -0.9643 -0.0542
  128OSM    C8F13745  -0.192   3.345   7.410  0.3399  0.8553  0.4239
  128OSM    H8F13746  -0.158   3.436   7.464  2.4028 -0.2663  1.1309
  128OSM    H8G13747  -0.112   3.295   7.351  0.5219 -0.3643  1.6491
  128OSM    C9F13748  -0.247   3.242   7.500 -0.5091 -0.1542 -0.2516
  128OSM    H9F13749  -0.252   3.141   7.458  1.2122 -1.5463  2.5665
  128OSM   C10F13750  -0.302   3.268   7.621 -0.9456 -0.8851 -0.2048
  128OSM   H10F13751  -0.365   3.190   7.667  0.5593 -1.0036  1.7745
  128OSM   C11F13752  -0.317   3.392   7.701 -0.3892 -0.9571 -0.3033
  128OSM   H11F13753  -0.423   3.425   7.708 -0.2379 -0.3403 -0.8865
  128OSM   H11G13754  -0.254   3.474   7.662 -1.0900  1.1058  2.5919
  128OSM   C12F13755  -0.255   3.371   7.848  0.5950 -0.4788  0.1389
  128OSM   H12F13756  -0.148   3.351   7.825  0.8616 -0.6268  1.4118
  128OSM   H12G13757  -0.306   3.280   7.888 -0.8558 -0.6449 -1.9649
  128OSM   C13F13758  -0.266   3.492   7.949  0.1026  0.2473  0.9825
  128OSM   H13F13759  -0.364   3.491   8.001  0.9137  0.8217  2.5889
  128OSM   H13G13760  -0.267   3.593   7.902  0.9191 -0.1617  0.0696
  128OSM   C14F13761  -0.174   3.479   8.067 -0.6763 -0.1435 -0.2348
  128OSM   H14F13762  -0.069   3.495   8.034 -0.1766 -2.0827  0.2873
  128OSM   H14G13763  -0.185   3.374   8.102 -0.1683 -0.7718 -1.8435
  128OSM   C15F13764  -0.205   3.587   8.182  0.1224  0.0808 -0.2511
  128OSM   H15F13765  -0.301   3.557   8.230  0.2709  0.0541  0.0361
  128OSM   H15G13766  -0.216   3.689   8.139  1.4524  1.0326  1.5256
  128OSM   C16F13767  -0.109   3.583   8.302  0.8097  0.2962  0.4717
  128OSM   H16F13768  -0.155   3.652   8.376 -1.6838 -2.5125  1.7738
  128OSM   H16G13769  -0.009   3.629   8.286  1.9515 -1.7304  1.3654
  128OSM   C17F13770  -0.098   3.459   8.380 -0.2462 -0.2484 -0.0164
  128OSM   H17F13771  -0.087   3.379   8.304 -1.9644  0.3070 -0.9073
  128OSM   H17G13772  -0.196   3.445   8.431 -0.5171  1.4264 -0.0202
  128OSM   C18F13773   0.016   3.463   8.479 -0.5609 -0.0724 -0.0977
  128OSM   H18F13774   0.110   3.488   8.425  0.4290 -2.8983  0.1628
  128OSM   H18G13775   0.027   3.360   8.520 -1.7767 -0.3664 -0.4602
  128OSM   H18H13776  -0.003   3.522   8.571  0.2233 -1.5064  1.0370
  129OSM      N13777   5.987   2.894   6.109  0.1061 -0.5984 -0.7565
  129OSM    C1513778   6.071   3.000   6.051  0.2098  0.1756  0.0655
  129OSM   H15A13779   6.045   3.097   6.089  1.5616  0.1079  1.2416
  129OSM   H15B13780   6.049   3.006   5.945  0.1154  2.3254  0.1613
  129OSM   H15C13781   6.177   2.983   6.062  0.0297 -1.0691  0.0981
  129OSM    C1413782   5.848   2.938   6.074 -0.4799  0.5009  0.7063
  129OSM   H14A13783   5.773   2.861   6.090  1.7718 -1.5038  2.3698
  129OSM   H14B13784   5.847   2.953   5.967 -1.3443  0.4834  0.7071
  129OSM   H14C13785   5.828   3.031   6.125 -0.2845  1.9994 -1.8023
  129OSM    C1313786   6.030   2.762   6.046  0.3637 -0.0774  0.0116
  129OSM   H13A13787   6.037   2.774   5.939  0.2049  0.9228  0.1029
  129OSM   H13B13788   5.954   2.688   6.067  0.0231  0.0306 -0.8031
  129OSM   H13C13789   6.129   2.730   6.073  0.9276  0.2397 -1.5866
  129OSM    C1213790   6.007   2.878   6.257 -0.0082 -0.0372  0.0822
  129OSM   H12A13791   6.110   2.847   6.265 -0.0648 -0.3933 -0.4781
  129OSM   H12B13792   5.954   2.789   6.289  1.0653 -0.1023  1.7635
  129OSM    C1113793   5.984   2.998   6.353  0.2912  0.7522 -0.2071
  129OSM   H11A13794   6.012   2.962   6.454  1.7858  1.2551 -0.4136
  129OSM   H11B13795   5.873   3.005   6.352  0.3590  2.0373  0.0599
  129OSM      P13796   6.174   3.176   6.407 -0.0983  0.0927  0.0610
  129OSM    O1313797   6.289   3.086   6.401  0.1859 -0.1481 -0.1610
  129OSM    O1413798   6.196   3.309   6.348  0.2894  0.0646  0.3847
  129OSM    O1113799   6.114   3.189   6.550 -0.3185  0.3592  0.4323
  129OSM    O1213800   6.056   3.114   6.319  0.1750 -0.2055 -0.2293
  129OSM    C1S13801   5.984   3.229   6.581  0.4675  0.5437  0.2165
  129OSM    H1S13802   5.919   3.139   6.577  0.1137  0.8302 -0.9743
  129OSM    H1T13803   5.942   3.294   6.501 -2.0079 -1.2568 -0.0566
  129OSM     NF13804   5.821   3.343   6.740  0.2249 -0.2134  0.5805
  129OSM    HNF13805   5.794   3.438   6.729  1.3235 -0.0302 -0.8609
  129OSM    C2S13806   5.968   3.308   6.716  0.1441  0.1303 -0.2025
  129OSM    H2S13807   6.004   3.238   6.794  0.1152  1.3597  0.9543
  129OSM    C3S13808   6.056   3.432   6.719  0.6249  1.0589 -0.3254
  129OSM    H3S13809   6.034   3.513   6.646  1.2820  1.2380 -0.3274
  129OSM     O313810   6.191   3.399   6.694 -0.2031  0.2104  0.1869
  129OSM    HO313811   6.187   3.308   6.664  1.8130 -0.6396  2.2104
  129OSM    C4S13812   6.041   3.502   6.860  0.8137  0.2569 -0.0255
  129OSM    H4S13813   5.987   3.598   6.871  1.4157  0.6150 -0.1048
  129OSM    C5S13814   6.085   3.453   6.980 -0.0970  0.0843  0.4410
  129OSM    H5S13815   6.117   3.348   6.978  0.1410  0.1619 -0.5921
  129OSM    C6S13816   6.089   3.523   7.113 -0.3594  0.5255  0.6456
  129OSM    H6S13817   5.991   3.574   7.124  0.1757  2.3883 -2.2625
  129OSM    H6T13818   6.158   3.609   7.113 -2.2404  2.1057  0.3371
  129OSM    C7S13819   6.113   3.451   7.245  0.6016  0.3411 -0.3099
  129OSM    H7S13820   6.208   3.392   7.247  0.5154  0.1777  2.5515
  129OSM    H7T13821   6.032   3.375   7.254  2.0902 -1.5229 -1.5776
  129OSM    C8S13822   6.110   3.550   7.363 -1.0070  1.0633  0.1548
  129OSM    H8S13823   6.006   3.586   7.372 -0.8901  1.1157  1.5167
  129OSM    H8T13824   6.173   3.636   7.331  1.1636 -0.7261 -0.6542
  129OSM    C9S13825   6.153   3.484   7.498  0.4386  0.8472 -0.0339
  129OSM    H9S13826   6.185   3.560   7.573 -0.0186  0.6588  0.3561
  129OSM    H9T13827   6.234   3.412   7.477  0.0479 -0.0044  1.2724
  129OSM   C10S13828   6.033   3.408   7.560  0.9152  0.0134  1.0122
  129OSM   H10S13829   6.009   3.314   7.507  1.5057 -0.9475  2.3902
  129OSM   H10T13830   5.945   3.476   7.554 -0.8012 -2.0183  1.9368
  129OSM   C11S13831   6.060   3.371   7.708 -0.7567  0.8254  0.3791
  129OSM   H11S13832   6.155   3.313   7.706 -1.4524 -0.3962  1.2998
  129OSM   H11T13833   5.985   3.293   7.732  1.7045 -1.5069  0.9661
  129OSM   C12S13834   6.061   3.478   7.807 -0.0002 -0.3405  0.5105
  129OSM   H12S13835   5.959   3.522   7.815  0.3252  0.1189  3.3009
  129OSM   H12T13836   6.124   3.560   7.767 -0.2967 -1.3619 -2.2325
  129OSM   C13S13837   6.093   3.438   7.950 -0.9889  0.4255  0.1623
  129OSM   H13S13838   6.199   3.404   7.949 -1.5198 -1.4891  1.8690
  129OSM   H13T13839   6.041   3.344   7.980 -0.3758 -0.0887 -0.3501
  129OSM   C14S13840   6.067   3.541   8.056 -0.5505  0.4624  0.3242
  129OSM   H14S13841   5.961   3.574   8.044 -0.8947  0.5276  2.9016
  129OSM   H14T13842   6.131   3.630   8.036 -1.6982  1.1576 -0.4016
  129OSM   C15S13843   6.077   3.482   8.200 -0.1825 -0.2122  0.3546
  129OSM   H15S13844   6.035   3.379   8.198  1.6692 -1.0130  0.5883
  129OSM   H15T13845   6.026   3.544   8.277 -0.1135  0.8556 -0.4464
  129OSM   C16S13846   6.227   3.472   8.259  0.3707  0.8176 -0.0588
  129OSM   H16S13847   6.273   3.572   8.273 -1.4026  1.1995  5.4086
  129OSM   H16T13848   6.273   3.422   8.171  0.7359  0.6723  0.2111
  129OSM   C17S13849   6.235   3.396   8.390  0.2524 -0.3358  0.1178
  129OSM   H17S13850   6.333   3.346   8.406 -0.9626 -2.4656  1.4417
  129OSM   H17T13851   6.158   3.316   8.384 -2.1278  1.6809  1.5883
  129OSM   C18S13852   6.191   3.484   8.515  0.0591 -0.2391 -0.0687
  129OSM   H18S13853   6.090   3.523   8.495  1.0805  2.6288 -0.0467
  129OSM   H18T13854   6.262   3.570   8.519  0.2823 -0.4659  1.2900
  129OSM   H18U13855   6.192   3.428   8.611 -2.7857 -0.6999 -0.2430
  129OSM    C1F13856   5.729   3.254   6.773 -0.2155  0.4998  0.3186
  129OSM     OF13857   5.742   3.130   6.764 -0.1851 -0.2602 -0.7171
  129OSM    C2F13858   5.587   3.299   6.799 -0.0446  0.8883 -0.2595
  129OSM    H2F13859   5.529   3.274   6.707 -1.5508 -0.9366  1.0997
  129OSM    H2G13860   5.582   3.409   6.803  0.4817  0.8770  0.9521
  129OSM    C3F13861   5.508   3.236   6.921 -0.1493  0.2358  0.1015
  129OSM    H3F13862   5.551   3.142   6.963  1.2497  0.9494  0.3369
  129OSM    H3G13863   5.416   3.200   6.871  0.7345 -1.4569 -0.4079
  129OSM    C4F13864   5.474   3.329   7.036 -0.1916 -0.1987  0.5175
  129OSM    H4F13865   5.420   3.417   6.996  0.9227 -0.2880 -1.2513
  129OSM    H4G13866   5.566   3.362   7.089  0.5400 -1.8760  0.3395
  129OSM    C5F13867   5.369   3.265   7.133 -0.6884  0.6539 -0.1645
  129OSM    H5F13868   5.420   3.175   7.175  1.8980  1.6626 -0.9636
  129OSM    H5G13869   5.283   3.224   7.075  1.1386 -1.2558 -1.7090
  129OSM    C6F13870   5.304   3.357   7.237 -0.6493  0.0928 -0.7363
  129OSM    H6F13871   5.239   3.433   7.189 -1.1559  0.5315  0.6091
  129OSM    H6G13872   5.382   3.413   7.292 -0.2448  0.3968 -1.5990
  129OSM    C7F13873   5.217   3.285   7.347 -0.2785 -0.0856 -0.0416
  129OSM    H7F13874   5.280   3.232   7.422  0.2769  3.3045  2.1038
  129OSM    H7G13875   5.144   3.220   7.294 -2.6585  1.8900  0.6339
  129OSM    C8F13876   5.143   3.391   7.433  0.4126  0.3736 -0.8316
  129OSM    H8F13877   5.107   3.469   7.362  0.3742  0.4840 -0.6908
  129OSM    H8G13878   5.203   3.443   7.510 -0.6633 -1.3524  1.2883
  129OSM    C9F13879   5.023   3.331   7.503 -0.8191 -0.4434 -0.3448
  129OSM    H9F13880   4.931   3.332   7.443 -0.8950  2.1550 -0.2628
  129OSM   C10F13881   5.022   3.261   7.617 -0.0371  0.9047  0.1274
  129OSM   H10F13882   4.923   3.236   7.656 -0.4597 -1.0284 -1.9974
  129OSM   C11F13883   5.138   3.222   7.699  0.6888 -0.1769 -0.8231
  129OSM   H11F13884   5.227   3.271   7.655 -1.6117  2.2692 -3.2083
  129OSM   H11G13885   5.139   3.112   7.686 -0.6988 -0.1283 -1.5715
  129OSM   C12F13886   5.128   3.232   7.853  0.4966 -0.3197 -0.4477
  129OSM   H12F13887   5.033   3.186   7.888  1.2304 -3.1979 -1.9787
  129OSM   H12G13888   5.137   3.340   7.880 -0.2066 -0.0007 -1.4123
  129OSM   C13F13889   5.247   3.162   7.916  0.4017 -0.1114 -0.5331
  129OSM   H13F13890   5.336   3.214   7.875  0.1866 -0.4535 -1.4710
  129OSM   H13G13891   5.258   3.058   7.881 -0.1381 -0.2104 -0.4088
  129OSM   C14F13892   5.254   3.192   8.070 -0.2539 -0.1975  0.3825
  129OSM   H14F13893   5.153   3.162   8.104  0.8676 -0.5142  3.7359
  129OSM   H14G13894   5.274   3.299   8.093  0.5151 -0.2652  0.0908
  129OSM   C15F13895   5.351   3.100   8.144 -0.8205  0.1840 -0.3192
  129OSM   H15F13896   5.458   3.118   8.121 -1.1415  1.9148 -0.5561
  129OSM   H15G13897   5.334   2.991   8.128 -0.8860  0.3454 -1.4039
  129OSM   C16F13898   5.348   3.110   8.298  1.0289 -0.4403  0.3465
  129OSM   H16F13899   5.340   3.218   8.324 -2.3490  0.5765 -3.7975
  129OSM   H16G13900   5.438   3.071   8.350  1.5101 -0.2688 -0.3402
  129OSM   C17F13901   5.231   3.032   8.359 -0.9286 -0.2817  0.9166
  129OSM   H17F13902   5.218   2.945   8.292 -1.5894  1.5409 -1.4383
  129OSM   H17G13903   5.137   3.088   8.343 -1.4755 -1.4650 -0.1154
  129OSM   C18F13904   5.243   2.982   8.505  0.1685 -0.1741  0.4737
  129OSM   H18F13905   5.312   2.894   8.505 -0.1751 -0.4476  0.0512
  129OSM   H18G13906   5.148   2.936   8.539 -0.6791  1.7113  0.8035
  129OSM   H18H13907   5.273   3.066   8.571 -2.7878  2.1507 -0.9157
  130OSM      N13908   5.126   0.540   6.138  0.4265  0.3875 -0.2256
  130OSM    C1513909   5.096   0.481   6.273  0.3149 -0.3651  0.0362
  130OSM   H15A13910   4.996   0.440   6.268 -0.0309  0.6032 -2.4558
  130OSM   H15B13911   5.119   0.553   6.350  0.2961 -0.4427  0.1145
  130OSM   H15C13912   5.164   0.397   6.273  0.4924 -0.2583 -1.6582
  130OSM    C1413913   5.110   0.432   6.032 -0.1113 -0.1644 -0.3084
  130OSM   H14A13914   5.173   0.346   6.049 -0.1839 -0.0203  0.8004
  130OSM   H14B13915   5.149   0.467   5.938  1.2923  3.9964  1.5759
  130OSM   H14C13916   5.015   0.382   6.022 -0.7166  0.1134  2.9985
  130OSM    C1313917   5.030   0.651   6.111 -0.1422 -0.0064 -0.7077
  130OSM   H13A13918   5.053   0.700   6.018  1.2849 -1.4911 -1.1838
  130OSM   H13B13919   5.032   0.725   6.189  1.7220  0.0145 -0.7297
  130OSM   H13C13920   4.933   0.606   6.095  0.6058 -1.6187 -0.8646
  130OSM    C1213921   5.264   0.603   6.134 -0.2280 -0.4495  0.0958
  130OSM   H12A13922   5.334   0.526   6.161  0.7749  0.1059 -0.8826
  130OSM   H12B13923   5.277   0.680   6.209  0.9580 -1.9500  1.5162
  130OSM    C1113924   5.313   0.663   5.996 -1.2401 -0.3532 -0.3895
  130OSM   H11A13925   5.320   0.585   5.917 -1.4998 -0.2101 -0.5561
  130OSM   H11B13926   5.417   0.698   6.010 -1.7044  0.0920  2.8943
  130OSM      P13927   5.294   0.924   5.948 -0.0166  0.0494 -0.2022
  130OSM    O1313928   5.420   0.927   5.875  0.0626 -0.0543  0.0893
  130OSM    O1413929   5.183   1.020   5.910 -0.5165  0.0979  0.1352
  130OSM    O1113930   5.329   0.949   6.100 -0.1338  0.1882 -0.8264
  130OSM    O1213931   5.231   0.776   5.948  0.3904 -0.3989 -0.3043
  130OSM    C1S13932   5.229   0.957   6.205 -0.4218  0.7850 -0.4751
  130OSM    H1S13933   5.186   0.855   6.211  1.6559 -0.1830 -0.9640
  130OSM    H1T13934   5.143   1.021   6.176  0.0530  0.8967 -1.7049
  130OSM     NF13935   5.178   0.950   6.443  0.0445 -0.4014 -0.0502
  130OSM    HNF13936   5.114   1.023   6.466 -0.0837 -0.2464 -0.8886
  130OSM    C2S13937   5.282   0.989   6.344 -0.2229  0.2979 -0.2960
  130OSM    H2S13938   5.371   0.927   6.368 -0.2486  0.6014  0.6320
  130OSM    C3S13939   5.333   1.137   6.348  0.0972 -0.0608  0.1830
  130OSM    H3S13940   5.249   1.208   6.334  1.1887  1.5551  1.5434
  130OSM     O313941   5.430   1.166   6.249 -0.1417 -0.5675  0.1847
  130OSM    HO313942   5.437   1.087   6.194  1.9219 -2.1031  2.4524
  130OSM    C4S13943   5.394   1.160   6.481 -0.2252  0.4821 -0.9013
  130OSM    H4S13944   5.500   1.134   6.487 -0.3919  0.0871  0.5748
  130OSM    C5S13945   5.343   1.213   6.592 -0.2157  0.3285 -0.6394
  130OSM    H5S13946   5.235   1.235   6.602 -0.6855 -2.4864  1.6500
  130OSM    C6S13947   5.422   1.234   6.715  0.0631  0.3943  0.0531
  130OSM    H6S13948   5.415   1.341   6.743  0.3600  0.6123 -0.6881
  130OSM    H6T13949   5.532   1.216   6.707  0.0785  0.3093  0.4353
  130OSM    C7S13950   5.388   1.155   6.844  0.8198  0.4640 -0.0616
  130OSM    H7S13951   5.444   1.196   6.931  1.3686 -0.3854 -0.0073
  130OSM    H7T13952   5.430   1.056   6.818 -0.3784 -0.2301  0.5716
  130OSM    C8S13953   5.237   1.151   6.877  0.1251  0.3598 -0.0806
  130OSM    H8S13954   5.180   1.127   6.785  1.4638  0.3747 -0.9302
  130OSM    H8T13955   5.204   1.255   6.897 -0.9736 -0.0263  0.2298
  130OSM    C9S13956   5.181   1.057   6.983  0.1504 -0.2883  1.0131
  130OSM    H9S13957   5.257   0.991   7.031 -1.8889 -1.3967  2.9446
  130OSM    H9T13958   5.098   1.007   6.929 -1.4013  3.5606 -0.5417
  130OSM   C10S13959   5.104   1.115   7.101 -0.0632  0.1723 -0.5205
  130OSM   H10S13960   5.083   1.036   7.176 -0.1564  0.6714 -0.0200
  130OSM   H10T13961   5.004   1.157   7.075  0.3719  0.7521 -1.3150
  130OSM   C11S13962   5.178   1.223   7.181 -0.6107  0.1480 -0.0842
  130OSM   H11S13963   5.103   1.256   7.256 -1.3107  0.1319 -0.7654
  130OSM   H11T13964   5.180   1.318   7.122  2.0872 -0.3091 -0.8567
  130OSM   C12S13965   5.315   1.187   7.235 -0.1305 -0.2040  0.7436
  130OSM   H12S13966   5.391   1.234   7.170 -1.4601  1.9248  0.6055
  130OSM   H12T13967   5.333   1.078   7.225 -0.4238 -0.2573  0.7661
  130OSM   C13S13968   5.337   1.251   7.377  0.1967 -0.0536  0.0182
  130OSM   H13S13969   5.250   1.244   7.446 -0.8581 -2.3715 -1.3939
  130OSM   H13T13970   5.358   1.359   7.364 -1.8233  0.1123 -2.5437
  130OSM   C14S13971   5.455   1.183   7.446 -0.5930 -0.8574 -0.1820
  130OSM   H14S13972   5.543   1.175   7.378 -0.9805  0.4157 -0.8655
  130OSM   H14T13973   5.433   1.076   7.463 -0.4346 -0.9150 -0.3372
  130OSM   C15S13974   5.484   1.244   7.586 -0.1737 -0.2377  0.6944
  130OSM   H15S13975   5.466   1.354   7.583 -1.8827 -0.3407  3.4794
  130OSM   H15T13976   5.591   1.222   7.604 -0.3033 -1.8485 -0.2825
  130OSM   C16S13977   5.396   1.197   7.701  0.3604 -0.0924  0.2330
  130OSM   H16S13978   5.374   1.089   7.692 -0.2036  0.0390 -0.0181
  130OSM   H16T13979   5.298   1.250   7.705  0.1694 -0.4018 -0.2964
  130OSM   C17S13980   5.470   1.210   7.838 -0.5771  0.2052 -0.1428
  130OSM   H17S13981   5.478   1.317   7.864  0.7649  0.0179  0.3259
  130OSM   H17T13982   5.571   1.162   7.833 -0.7618 -0.1588 -0.4790
  130OSM   C18S13983   5.397   1.143   7.956  0.6885  0.0251  0.3767
  130OSM   H18S13984   5.296   1.186   7.972  0.7081 -0.2581  1.2895
  130OSM   H18T13985   5.446   1.170   8.052  0.6719  0.0565  0.3757
  130OSM   H18U13986   5.363   1.039   7.943 -2.0343  0.9852 -0.8389
  130OSM    C1F13987   5.147   0.821   6.480  0.4366  0.0634 -0.2575
  130OSM     OF13988   5.215   0.725   6.454  0.0539  0.4156  0.0255
  130OSM    C2F13989   5.016   0.809   6.546 -0.1772  0.6645 -0.8250
  130OSM    H2F13990   4.944   0.771   6.470 -1.4179 -2.8136  1.8244
  130OSM    H2G13991   4.981   0.897   6.604 -1.1525 -1.8935  2.7575
  130OSM    C3F13992   5.026   0.685   6.642 -0.0157  0.1250 -0.8718
  130OSM    H3F13993   5.056   0.591   6.590  1.1771 -0.5938  0.9856
  130OSM    H3G13994   4.931   0.666   6.696  0.4526 -1.2187 -0.4539
  130OSM    C4F13995   5.136   0.699   6.749 -0.5644 -0.2248  0.4302
  130OSM    H4F13996   5.119   0.804   6.783  4.0361  1.4619 -1.6311
  130OSM    H4G13997   5.240   0.699   6.710 -0.2183 -1.4357  1.3065
  130OSM    C5F13998   5.113   0.603   6.866 -0.0275  0.4006  0.4859
  130OSM    H5F13999   5.125   0.502   6.823  0.7691  0.4086  0.6850
  130OSM    H5G14000   5.006   0.608   6.898 -0.2262 -1.2539  0.1755
  130OSM    C6F14001   5.211   0.631   6.984 -0.4153 -0.4930 -0.4344
  130OSM    H6F14002   5.216   0.742   6.987  0.2440 -0.5124 -0.5593
  130OSM    H6G14003   5.312   0.588   6.965 -0.3283 -1.3801  1.7798
  130OSM    C7F14004   5.171   0.589   7.118  0.9473  0.3070  0.0962
  130OSM    H7F14005   5.171   0.478   7.116 -0.8626  0.0654  3.9902
  130OSM    H7G14006   5.066   0.612   7.148  0.9250 -0.6419  0.7850
  130OSM    C8F14007   5.269   0.626   7.237  0.0496  0.6529  0.2621
  130OSM    H8F14008   5.376   0.615   7.212 -0.4259 -0.3360 -1.4842
  130OSM    H8G14009   5.249   0.558   7.322  0.2478  3.0923  2.3994
  130OSM    C9F14010   5.230   0.766   7.285  0.6984 -1.9171 -0.6704
  130OSM    H9F14011   5.152   0.832   7.244  0.6925 -0.6949  1.1985
  130OSM   C10F14012   5.287   0.817   7.400  0.6126 -0.6816 -0.1465
  130OSM   H10F14013   5.251   0.913   7.440 -0.7674 -1.3219  0.1782
  130OSM   C11F14014   5.374   0.741   7.504 -0.2880 -0.0411  0.0276
  130OSM   H11F14015   5.455   0.810   7.536  0.9768 -1.9840  1.2317
  130OSM   H11G14016   5.435   0.657   7.464  0.6832  0.9704 -0.6491
  130OSM   C12F14017   5.308   0.679   7.626 -0.8088 -0.5755  0.3403
  130OSM   H12F14018   5.226   0.609   7.602  0.8317 -1.5115 -3.2345
  130OSM   H12G14019   5.272   0.763   7.690 -0.7173  0.8616 -1.4028
  130OSM   C13F14020   5.421   0.608   7.702 -0.5050 -0.2763 -0.2092
  130OSM   H13F14021   5.476   0.691   7.751 -0.2607 -0.5773  0.0258
  130OSM   H13G14022   5.495   0.557   7.637 -0.8061 -1.5800  0.4435
  130OSM   C14F14023   5.389   0.498   7.808 -0.1772  0.2035  0.7994
  130OSM   H14F14024   5.487   0.482   7.859 -0.3092 -2.7585  0.2836
  130OSM   H14G14025   5.359   0.409   7.749  1.6903  0.6239 -0.9095
  130OSM   C15F14026   5.267   0.527   7.893  0.2132 -0.1156  0.2867
  130OSM   H15F14027   5.259   0.446   7.969  1.2195  0.5691  1.1574
  130OSM   H15G14028   5.174   0.530   7.832 -0.0114  1.4220  0.6796
  130OSM   C16F14029   5.281   0.660   7.978  0.2610 -0.1868 -0.4272
  130OSM   H16F14030   5.288   0.752   7.916 -1.9168 -0.8718 -1.8338
  130OSM   H16G14031   5.375   0.653   8.037 -0.2184 -1.2178  0.2577
  130OSM   C17F14032   5.165   0.679   8.078  0.3127  1.1720  0.1804
  130OSM   H17F14033   5.172   0.584   8.135  0.8596 -1.0656 -3.2719
  130OSM   H17G14034   5.072   0.670   8.017  1.4041 -1.4276 -1.2546
  130OSM   C18F14035   5.170   0.796   8.173 -0.0558  0.0737  0.4373
  130OSM   H18F14036   5.141   0.888   8.117 -0.6340 -0.3266  0.0711
  130OSM   H18G14037   5.276   0.806   8.204  0.7010 -1.9424 -1.2507
  130OSM   H18H14038   5.100   0.786   8.258  0.8726 -0.2904  1.1825
  131OSM      N14039   5.538   6.615   5.897  0.1426  0.0239  0.4661
  131OSM    C1514040   5.538   6.620   5.744 -0.3550  0.3154 -0.6293
  131OSM   H15A14041   5.592   6.709   5.715 -1.4010  1.5595  1.0685
  131OSM   H15B14042   5.434   6.619   5.714  0.0648 -0.9796 -2.1474
  131OSM   H15C14043   5.584   6.529   5.708 -1.3343  0.1730 -1.5591
  131OSM    C1414044   5.441   6.510   5.939  0.2982  0.4035 -0.1231
  131OSM   H14A14045   5.446   6.488   6.045 -5.0589 -1.0399  0.1370
  131OSM   H14B14046   5.476   6.420   5.892 -0.4753 -1.6684  2.9149
  131OSM   H14C14047   5.338   6.523   5.908 -0.3851 -4.2108 -0.5679
  131OSM    C1314048   5.685   6.578   5.925  0.5669 -0.0020 -0.2818
  131OSM   H13A14049   5.698   6.538   6.025 -3.8768 -1.9700 -0.2767
  131OSM   H13B14050   5.757   6.655   5.901  2.0291 -1.2097  0.0650
  131OSM   H13C14051   5.713   6.493   5.865 -0.0352 -0.9445  0.7395
  131OSM    C1214052   5.502   6.753   5.957 -0.2832 -0.3473  0.1111
  131OSM   H12A14053   5.566   6.826   5.911 -0.0807 -1.5813 -1.6471
  131OSM   H12B14054   5.532   6.755   6.061 -0.4433 -3.3302  0.2943
  131OSM    C1114055   5.360   6.798   5.943 -0.2071 -0.9492  0.1615
  131OSM   H11A14056   5.292   6.720   5.983 -1.6248 -0.0086 -0.3552
  131OSM   H11B14057   5.327   6.815   5.839 -2.5906  3.2218  1.3723
  131OSM      P14058   5.364   6.959   6.151 -0.1539  0.1950  0.1274
  131OSM    O1314059   5.447   7.084   6.162  0.1666  0.2229  0.9457
  131OSM    O1414060   5.227   6.963   6.203  0.3634 -0.3997 -0.5151
  131OSM    O1114061   5.451   6.844   6.214  0.0237  0.2053 -0.2773
  131OSM    O1214062   5.353   6.930   6.003  0.4375 -0.2247 -0.5594
  131OSM    C1S14063   5.496   6.834   6.349  0.2527  0.4676 -0.1849
  131OSM    H1S14064   5.517   6.936   6.388 -2.5797  0.5159  1.4771
  131OSM    H1T14065   5.591   6.776   6.355  0.9039  1.5690  0.4774
  131OSM     NF14066   5.413   6.833   6.579  0.0444  0.4981 -0.4497
  131OSM    HNF14067   5.471   6.777   6.637 -0.2960 -0.1472 -0.7255
  131OSM    C2S14068   5.388   6.775   6.447 -0.4775 -0.0220  1.1814
  131OSM    H2S14069   5.291   6.814   6.410 -0.1402 -1.6177 -1.7060
  131OSM    C3S14070   5.391   6.619   6.441 -0.2070  0.3846  0.6067
  131OSM    H3S14071   5.498   6.591   6.449 -0.3837 -1.0162 -1.1005
  131OSM     O314072   5.332   6.567   6.320 -0.3402  0.1923 -0.2067
  131OSM    HO314073   5.308   6.648   6.274 -1.3516 -0.3219 -0.5853
  131OSM    C4S14074   5.314   6.564   6.561 -0.5447 -0.3359  1.1255
  131OSM    H4S14075   5.381   6.557   6.649 -0.5933  0.6153  1.2416
  131OSM    C5S14076   5.185   6.526   6.569 -0.0092  0.0796 -0.1376
  131OSM    H5S14077   5.122   6.529   6.479 -0.3576 -2.3512 -0.0598
  131OSM    C6S14078   5.124   6.469   6.696  0.7076 -0.7568 -0.0424
  131OSM    H6S14079   5.096   6.362   6.690 -0.5137 -0.5241  1.0721
  131OSM    H6T14080   5.024   6.517   6.703  1.2313  0.6662 -1.5974
  131OSM    C7S14081   5.192   6.499   6.828  0.6667 -0.5023 -0.0165
  131OSM    H7S14082   5.201   6.610   6.828 -4.3192  0.1882 -2.1902
  131OSM    H7T14083   5.294   6.457   6.836  0.3488 -1.3903 -0.5377
  131OSM    C8S14084   5.116   6.448   6.947  0.0973 -0.1168  0.4144
  131OSM    H8S14085   5.081   6.343   6.937 -1.6367  0.5089 -0.4359
  131OSM    H8T14086   5.027   6.511   6.965  0.4744  1.1313 -1.7101
  131OSM    C9S14087   5.191   6.458   7.081  0.5829  0.5642  0.7397
  131OSM    H9S14088   5.228   6.563   7.082  1.5607  0.2317  0.8700
  131OSM    H9T14089   5.291   6.410   7.085  2.5722  4.2519 -0.2029
  131OSM   C10S14090   5.115   6.433   7.207 -0.7637  0.1757 -0.2033
  131OSM   H10S14091   5.062   6.336   7.208 -0.6162  0.0928  0.8127
  131OSM   H10T14092   5.036   6.511   7.214 -3.0098 -1.8938 -1.0308
  131OSM   C11S14093   5.210   6.442   7.336  1.0569 -0.0139  0.3763
  131OSM   H11S14094   5.265   6.538   7.344 -0.2634  1.0976 -2.2639
  131OSM   H11T14095   5.279   6.356   7.348 -0.6524 -1.0121  5.7411
  131OSM   C12S14096   5.133   6.432   7.473  0.0810  0.2171  0.9494
  131OSM   H12S14097   5.085   6.332   7.469 -0.4777  0.4607  1.5066
  131OSM   H12T14098   5.057   6.513   7.468  1.2966  1.3143 -1.0513
  131OSM   C13S14099   5.229   6.443   7.583 -0.2739  0.1139 -0.6923
  131OSM   H13S14100   5.289   6.532   7.553 -0.4573 -0.6802 -3.6918
  131OSM   H13T14101   5.291   6.351   7.586 -0.8273 -0.2539 -0.1309
  131OSM   C14S14102   5.170   6.470   7.725  0.5261 -0.1851 -0.8535
  131OSM   H14S14103   5.082   6.403   7.741 -0.2200  1.0300  0.3984
  131OSM   H14T14104   5.123   6.568   7.701 -2.2001 -1.2868 -0.4372
  131OSM   C15S14105   5.260   6.450   7.843 -0.1446  0.5065 -0.6396
  131OSM   H15S14106   5.358   6.497   7.819  0.0252 -0.3622 -1.7113
  131OSM   H15T14107   5.277   6.341   7.849 -2.2589  0.0561 -1.7487
  131OSM   C16S14108   5.203   6.508   7.978 -0.1809 -0.1010  0.8922
  131OSM   H16S14109   5.103   6.460   7.991  0.1995 -1.8934 -1.8921
  131OSM   H16T14110   5.187   6.618   7.970 -0.1462 -0.1836 -0.6894
  131OSM   C17S14111   5.291   6.472   8.097  0.1035  0.3002  0.2508
  131OSM   H17S14112   5.394   6.512   8.080  1.0093 -1.5294  1.1574
  131OSM   H17T14113   5.300   6.361   8.102  1.6325  0.2279 -2.2838
  131OSM   C18S14114   5.234   6.531   8.223 -0.2711  0.0411 -0.4775
  131OSM   H18S14115   5.211   6.638   8.206  2.7943  0.5142 -2.2047
  131OSM   H18T14116   5.311   6.525   8.303 -0.1658  1.6071 -0.4243
  131OSM   H18U14117   5.146   6.475   8.264  0.0668 -2.0608 -2.4095
  131OSM    C1F14118   5.388   6.960   6.624  0.4370 -0.5321  0.2240
  131OSM     OF14119   5.340   7.040   6.542 -0.3589 -0.0699 -0.0210
  131OSM    C2F14120   5.427   6.991   6.766  0.2731 -0.2496  0.5782
  131OSM    H2F14121   5.533   6.960   6.778  0.2962 -0.3635  0.1182
  131OSM    H2G14122   5.370   6.928   6.838  2.1593  0.1603  2.5400
  131OSM    C3F14123   5.409   7.139   6.800  0.0535 -0.7817 -0.0454
  131OSM    H3F14124   5.302   7.170   6.795 -0.4971 -2.5801 -0.2541
  131OSM    H3G14125   5.465   7.209   6.734 -0.6259  1.6505  1.8317
  131OSM    C4F14126   5.469   7.178   6.942 -0.1106  0.2733  0.0081
  131OSM    H4F14127   5.410   7.128   7.022 -1.5654  2.7389  0.5889
  131OSM    H4G14128   5.453   7.285   6.964  0.4178  0.1790  0.8890
  131OSM    C5F14129   5.621   7.158   6.957 -0.5417 -0.5018 -0.2953
  131OSM    H5F14130   5.673   7.246   6.914 -0.8767  0.4972  1.2750
  131OSM    H5G14131   5.644   7.060   6.909 -0.3374 -0.0039 -1.2215
  131OSM    C6F14132   5.669   7.143   7.104 -0.5232 -0.0285 -1.2005
  131OSM    H6F14133   5.775   7.112   7.091  0.0402  0.5227  1.5996
  131OSM    H6G14134   5.616   7.062   7.157 -2.3885  2.9252  1.8244
  131OSM    C7F14135   5.650   7.267   7.197  0.6519  0.5317  0.5613
  131OSM    H7F14136   5.553   7.318   7.179  1.1164  1.2498  0.0393
  131OSM    H7G14137   5.732   7.341   7.191  0.1633  0.9923 -1.1757
  131OSM    C8F14138   5.644   7.214   7.344 -0.0915  0.1745 -0.0752
  131OSM    H8F14139   5.571   7.130   7.337  0.5033 -0.2657 -1.1031
  131OSM    H8G14140   5.601   7.301   7.397  1.6843  0.8530  0.3293
  131OSM    C9F14141   5.779   7.181   7.413  0.1861 -0.1988  1.2890
  131OSM    H9F14142   5.860   7.236   7.362 -0.1819 -0.8841 -0.0972
  131OSM   C10F14143   5.807   7.099   7.518 -0.5787  0.0788 -0.2708
  131OSM   H10F14144   5.913   7.090   7.545 -1.0671 -1.4098  1.2878
  131OSM   C11F14145   5.710   7.013   7.601 -0.4243  0.1136  0.3208
  131OSM   H11F14146   5.738   6.906   7.597 -1.7399 -0.2090 -1.4076
  131OSM   H11G14147   5.605   7.017   7.566 -0.0945  1.5214 -0.5905
  131OSM   C12F14148   5.715   7.055   7.750 -0.2849 -0.6942  0.5812
  131OSM   H12F14149   5.627   7.014   7.805 -0.8793 -0.2436 -0.0109
  131OSM   H12G14150   5.694   7.164   7.747 -0.5927 -0.7445 -2.2064
  131OSM   C13F14151   5.841   7.023   7.833  0.3169 -0.5050  0.0025
  131OSM   H13F14152   5.929   7.075   7.791  1.1538 -1.8702  0.0061
  131OSM   H13G14153   5.870   6.916   7.834 -0.0037 -0.5939 -0.2166
  131OSM   C14F14154   5.823   7.070   7.980 -0.0963 -0.6443 -0.4256
  131OSM   H14F14155   5.720   7.047   8.015  0.2997 -0.5351  0.8970
  131OSM   H14G14156   5.825   7.181   7.989  0.5287 -0.7515  1.1776
  131OSM   C15F14157   5.938   7.018   8.072 -0.0427 -0.8518  1.2529
  131OSM   H15F14158   5.945   7.078   8.165 -2.4012  0.0280  0.9497
  131OSM   H15G14159   6.039   7.036   8.030  0.0671 -0.6612  1.5972
  131OSM   C16F14160   5.932   6.871   8.113 -0.2459 -0.3400  0.2929
  131OSM   H16F14161   6.020   6.843   8.173 -0.8270 -0.2267  1.2139
  131OSM   H16G14162   5.921   6.810   8.020 -0.1631 -0.4423  0.3509
  131OSM   C17F14163   5.808   6.839   8.207  0.2737  0.2034  0.0065
  131OSM   H17F14164   5.713   6.866   8.156  0.4429 -0.9351 -0.9424
  131OSM   H17G14165   5.808   6.898   8.302 -1.6851 -0.1258  0.2687
  131OSM   C18F14166   5.789   6.689   8.234  0.0896 -0.1174  0.3005
  131OSM   H18F14167   5.860   6.636   8.302 -0.4618 -0.4198  0.6427
  131OSM   H18G14168   5.783   6.627   8.142 -1.0706 -1.0942  0.9997
  131OSM   H18H14169   5.693   6.678   8.290  0.4520 -0.0808  0.9462
  132OSM      N14170   2.348   5.219   6.060  0.1199  0.4739 -0.0646
  132OSM    C1514171   2.210   5.165   6.063 -0.0844 -0.3534  0.9881
  132OSM   H15A14172   2.142   5.235   6.016 -0.1961  0.7744  2.7442
  132OSM   H15B14173   2.171   5.155   6.163  1.1049 -0.8151  1.4246
  132OSM   H15C14174   2.202   5.071   6.011  0.5207  0.9400 -1.6524
  132OSM    C1414175   2.392   5.235   5.920 -0.2020 -0.2652  0.0259
  132OSM   H14A14176   2.334   5.298   5.855  1.1862  0.2959 -0.7141
  132OSM   H14B14177   2.395   5.141   5.868  1.2403 -0.7619  0.9560
  132OSM   H14C14178   2.494   5.270   5.909 -0.1151 -0.5657 -0.1333
  132OSM    C1314179   2.364   5.350   6.128 -0.2695  0.4253 -0.4365
  132OSM   H13A14180   2.465   5.383   6.107  0.4753 -0.4150  1.5452
  132OSM   H13B14181   2.354   5.348   6.235  1.3014 -0.7753 -0.2767
  132OSM   H13C14182   2.291   5.419   6.088 -0.0299  0.7440 -0.3282
  132OSM    C1214183   2.445   5.119   6.127 -0.1818 -0.0064  0.0018
  132OSM   H12A14184   2.544   5.159   6.116 -0.0362  0.2289  1.8917
  132OSM   H12B14185   2.439   5.024   6.075 -0.0073 -0.0293  0.0244
  132OSM    C1114186   2.425   5.087   6.277 -0.4219  0.1179 -0.7144
  132OSM   H11A14187   2.441   5.169   6.351  0.4745  0.7666 -1.6101
  132OSM   H11B14188   2.505   5.012   6.294  0.3998  1.2065  0.3744
  132OSM      P14189   2.265   4.878   6.281 -0.2096  0.0144 -0.2350
  132OSM    O1314190   2.156   4.830   6.367 -0.6617  0.4226  0.1120
  132OSM    O1414191   2.262   4.848   6.138 -0.8678  0.3974 -0.4572
  132OSM    O1114192   2.396   4.810   6.336  0.2101 -0.3679  0.2748
  132OSM    O1214193   2.295   5.037   6.304 -0.4412  0.9367 -0.4119
  132OSM    C1S14194   2.448   4.826   6.466  0.3247  0.5709 -0.1266
  132OSM    H1S14195   2.397   4.912   6.514  1.6909  1.4886 -0.2802
  132OSM    H1T14196   2.555   4.854   6.465  0.8486 -1.3291 -0.7146
  132OSM     NF14197   2.540   4.704   6.663 -0.2917 -0.1695 -0.0481
  132OSM    HNF14198   2.632   4.676   6.637 -1.5483 -1.6155 -3.4564
  132OSM    C2S14199   2.438   4.700   6.557 -0.1296 -0.5600  0.3310
  132OSM    H2S14200   2.341   4.703   6.609 -0.8301  1.0085 -0.9972
  132OSM    C3S14201   2.451   4.568   6.472  0.3859  0.1773  0.5792
  132OSM    H3S14202   2.555   4.571   6.432  0.2670  0.7651  0.2946
  132OSM     O314203   2.354   4.552   6.363 -0.5231 -0.7171 -0.1214
  132OSM    HO314204   2.324   4.643   6.362 -0.6415 -0.7036  1.5538
  132OSM    C4S14205   2.430   4.454   6.570 -0.5282  0.6069 -0.1795
  132OSM    H4S14206   2.515   4.427   6.633 -0.1070 -0.0862 -1.0233
  132OSM    C5S14207   2.314   4.385   6.595 -0.0092 -1.3229  0.0158
  132OSM    H5S14208   2.230   4.426   6.537  0.3523 -0.4930  0.0613
  132OSM    C6S14209   2.288   4.266   6.695 -0.3913  0.0137  0.8993
  132OSM    H6S14210   2.378   4.227   6.746 -0.6183 -0.2012  1.1438
  132OSM    H6T14211   2.242   4.177   6.645 -2.1387  1.0780  0.5294
  132OSM    C7S14212   2.202   4.319   6.809 -0.1206  0.8088  0.4018
  132OSM    H7S14213   2.168   4.232   6.868 -1.4515  0.3709 -0.9278
  132OSM    H7T14214   2.111   4.366   6.766  0.9854  1.9763 -0.7795
  132OSM    C8S14215   2.280   4.415   6.898 -0.2669 -0.0179  0.5819
  132OSM    H8S14216   2.314   4.490   6.824 -1.1889 -2.4391 -2.4965
  132OSM    H8T14217   2.366   4.366   6.948  0.0048  0.2878  0.4151
  132OSM    C9S14218   2.207   4.490   7.011  0.0423 -0.2798 -0.2014
  132OSM    H9S14219   2.102   4.492   6.977  0.1980 -2.9371 -1.1315
  132OSM    H9T14220   2.248   4.593   7.006  1.6795 -0.9611 -2.1311
  132OSM   C10S14221   2.222   4.416   7.147 -0.3536 -0.3195 -0.0270
  132OSM   H10S14222   2.187   4.313   7.128  0.3757 -0.4914 -0.4282
  132OSM   H10T14223   2.146   4.454   7.219  1.1377  1.7838  0.5344
  132OSM   C11S14224   2.361   4.427   7.210 -0.7552 -0.3904  0.1389
  132OSM   H11S14225   2.386   4.535   7.212  1.3280 -0.8107 -0.1493
  132OSM   H11T14226   2.446   4.389   7.148  0.7602  2.2934  0.4252
  132OSM   C12S14227   2.368   4.371   7.353  0.6682  0.0963  0.2006
  132OSM   H12S14228   2.354   4.261   7.343 -0.2132  0.3362 -1.6377
  132OSM   H12T14229   2.277   4.414   7.399 -0.9102 -0.5289 -2.1859
  132OSM   C13S14230   2.497   4.420   7.420 -0.7393 -0.7713 -0.2721
  132OSM   H13S14231   2.514   4.528   7.401 -2.4944 -1.0385 -4.1452
  132OSM   H13T14232   2.593   4.371   7.393 -0.4074  0.1832 -0.8804
  132OSM   C14S14233   2.491   4.402   7.579  0.4061  0.3271  0.2011
  132OSM   H14S14234   2.414   4.475   7.612 -0.3085 -0.2652 -0.1082
  132OSM   H14T14235   2.595   4.420   7.614  0.2863  0.8211  0.3011
  132OSM   C15S14236   2.443   4.265   7.623 -0.5610 -0.1337 -0.4210
  132OSM   H15S14237   2.497   4.186   7.567  1.0056 -0.0207  0.8594
  132OSM   H15T14238   2.336   4.259   7.591 -0.6069 -0.3103 -0.2385
  132OSM   C16S14239   2.470   4.250   7.766  1.0388 -0.0963 -0.7346
  132OSM   H16S14240   2.390   4.309   7.817  0.5744 -1.1997 -0.1406
  132OSM   H16T14241   2.573   4.288   7.786  0.4347 -0.2553  3.9638
  132OSM   C17S14242   2.473   4.099   7.809 -0.0564  0.4063 -0.8840
  132OSM   H17S14243   2.562   4.047   7.768 -0.5426 -0.1711 -1.2310
  132OSM   H17T14244   2.377   4.058   7.770 -0.2989  0.3296 -0.2173
  132OSM   C18S14245   2.477   4.083   7.964  0.3447  0.0727 -0.2701
  132OSM   H18S14246   2.384   4.125   8.009  0.0229 -0.9576  0.0634
  132OSM   H18T14247   2.572   4.128   7.998  0.1460 -0.3293  0.8761
  132OSM   H18U14248   2.486   3.975   7.992 -0.6540  0.7125  2.9240
  132OSM    C1F14249   2.537   4.790   6.767  0.2882 -0.0974  0.3277
  132OSM     OF14250   2.446   4.871   6.771 -0.2376  0.2739  1.1394
  132OSM    C2F14251   2.637   4.774   6.876  0.1574 -0.6809 -0.3643
  132OSM    H2F14252   2.701   4.864   6.882 -0.8130 -0.0825  1.9735
  132OSM    H2G14253   2.691   4.679   6.854 -0.9462 -1.2713 -0.6441
  132OSM    C3F14254   2.567   4.765   7.014 -0.2075  0.2281 -0.0626
  132OSM    H3F14255   2.519   4.665   7.023  0.5252 -0.0687  0.7552
  132OSM    H3G14256   2.485   4.839   7.009 -0.4565  0.1367  1.8777
  132OSM    C4F14257   2.673   4.800   7.124 -0.5664 -0.0189 -0.2341
  132OSM    H4F14258   2.711   4.899   7.093  0.6879 -0.7017 -0.9398
  132OSM    H4G14259   2.755   4.726   7.118 -1.9689 -1.6363 -0.2619
  132OSM    C5F14260   2.607   4.795   7.261 -0.7530 -0.3183  0.1546
  132OSM    H5F14261   2.574   4.689   7.255  1.2113 -0.8953 -1.3431
  132OSM    H5G14262   2.529   4.874   7.271 -2.0775 -1.5010 -0.4548
  132OSM    C6F14263   2.719   4.822   7.370  0.8324 -0.2954  0.0473
  132OSM    H6F14264   2.744   4.930   7.361 -1.8453  0.2873 -1.3178
  132OSM    H6G14265   2.814   4.766   7.353  0.9859 -0.1777  0.5182
  132OSM    C7F14266   2.666   4.802   7.516  0.1664 -0.4135 -0.3923
  132OSM    H7F14267   2.588   4.724   7.516 -2.0640  1.6884 -0.6555
  132OSM    H7G14268   2.611   4.892   7.551 -0.0695 -0.8881  0.4802
  132OSM    C8F14269   2.784   4.756   7.603  0.3951 -0.6940 -0.1645
  132OSM    H8F14270   2.829   4.669   7.552  0.4774 -1.6736  1.4950
  132OSM    H8G14271   2.732   4.711   7.691  0.6468  0.6401  0.6952
  132OSM    C9F14272   2.872   4.876   7.651 -0.7874  0.2648 -0.3437
  132OSM    H9F14273   2.885   4.955   7.575 -1.4478  0.5083 -0.2104
  132OSM   C10F14274   2.920   4.899   7.775  0.1920 -0.6347 -0.2948
  132OSM   H10F14275   2.969   4.995   7.798 -1.9752  0.7814 -1.3233
  132OSM   C11F14276   2.899   4.809   7.897 -0.3754  0.0724  0.3402
  132OSM   H11F14277   2.998   4.786   7.941 -0.3918 -1.4057 -0.3172
  132OSM   H11G14278   2.860   4.711   7.861  0.1977 -0.3018  0.7257
  132OSM   C12F14279   2.784   4.853   7.982  0.9854 -0.2908 -0.6283
  132OSM   H12F14280   2.688   4.853   7.926  0.1535  0.0769  0.7324
  132OSM   H12G14281   2.798   4.958   8.016  1.4149 -0.0436 -1.5342
  132OSM   C13F14282   2.768   4.774   8.118 -0.0689 -1.3107 -0.7279
  132OSM   H13F14283   2.688   4.835   8.167  0.5640  0.2537 -1.5630
  132OSM   H13G14284   2.865   4.777   8.173 -0.8157  1.1192  0.6191
  132OSM   C14F14285   2.736   4.627   8.094  0.8928  0.3064  0.0966
  132OSM   H14F14286   2.821   4.563   8.062  0.2182 -0.8452  0.5293
  132OSM   H14G14287   2.664   4.617   8.009 -0.4783  1.2725  1.0958
  132OSM   C15F14288   2.684   4.553   8.220 -0.5891  0.0628  0.4568
  132OSM   H15F14289   2.621   4.624   8.278  0.9767  3.7251 -1.9412
  132OSM   H15G14290   2.772   4.521   8.280  0.9865  0.3212 -1.5907
  132OSM   C16F14291   2.614   4.422   8.184 -0.1966 -0.3458 -0.5159
  132OSM   H16F14292   2.682   4.361   8.120  0.0115 -2.1395  1.3442
  132OSM   H16G14293   2.522   4.445   8.127 -1.9807 -0.3947  2.1838
  132OSM   C17F14294   2.572   4.332   8.298 -0.0229 -0.1117 -0.1802
  132OSM   H17F14295   2.658   4.266   8.321 -0.6371 -0.3890  1.4599
  132OSM   H17G14296   2.495   4.259   8.266 -1.6848  1.3432  0.3124
  132OSM   C18F14297   2.518   4.407   8.424  0.9957 -0.2522  0.4379
  132OSM   H18F14298   2.445   4.484   8.389  0.0321 -2.0377 -1.7416
  132OSM   H18G14299   2.600   4.457   8.479 -0.5768  1.2526  1.4940
  132OSM   H18H14300   2.470   4.329   8.487  2.0121 -0.9296  0.3882
  133SAPE     N14301   2.785   3.058  10.766  0.2987  0.1465  0.3316
  133SAPE   HN114302   2.809   3.138  10.704 -0.2090 -0.2878 -0.4345
  133SAPE   HN214303   2.769   2.975  10.707  0.2035  0.1070  0.4128
  133SAPE   HN314304   2.694   3.080  10.811  0.6374 -1.2245  1.7701
  133SAPE   C1214305   2.895   3.036  10.861 -0.1130  0.3490 -0.5133
  133SAPE  H12A14306   2.883   2.941  10.917 -0.0979  1.0885  0.7579
  133SAPE  H12B14307   2.895   3.126  10.925  0.0392  0.5443 -0.7855
  133SAPE   C1114308   3.035   3.019  10.788  0.0430 -0.4451  0.5039
  133SAPE  H11A14309   3.113   3.023  10.867  0.0934  0.1978  0.4240
  133SAPE  H11B14310   3.048   3.106  10.721  2.9386 -0.6191  0.7342
  133SAPE     P14311   3.172   2.819  10.698  0.2248 -0.0888  0.1867
  133SAPE   O1314312   3.201   2.775  10.839 -0.1593  0.1217 -0.4608
  133SAPE   O1414313   3.151   2.709  10.602  0.0895  0.0219 -0.5572
  133SAPE   O1214314   3.030   2.897  10.712 -0.2060  0.3154  0.5662
  133SAPE   O1114315   3.277   2.924  10.649  0.3659  0.1424  0.2815
  133SAPE    C114316   3.243   3.024  10.555  0.1749 -0.4249  0.2347
  133SAPE    HA14317   3.149   3.001  10.501 -0.1212  0.7938  0.2129
  133SAPE    HB14318   3.243   3.127  10.597  1.2551 -1.0091  1.7404
  133SAPE    C214319   3.349   3.023  10.440 -0.2098  0.0152  0.4971
  133SAPE    HS14320   3.307   3.089  10.361  0.2899 -0.4599 -0.1762
  133SAPE   O2114321   3.369   2.892  10.392 -0.2685  0.3088 -0.0935
  133SAPE   C2114322   3.279   2.853  10.298 -0.8554 -0.2526  0.0707
  133SAPE   O2214323   3.196   2.925  10.246  0.1580 -0.0179 -0.0074
  133SAPE   C2214324   3.282   2.706  10.277 -0.0200 -0.2515 -0.2195
  133SAPE   H2R14325   3.374   2.660  10.320  0.5026  1.1542  0.2094
  133SAPE   H2S14326   3.199   2.668  10.341  0.6747 -0.2906  0.6817
  133SAPE    C314327   3.490   3.056  10.486 -0.0679  0.2146 -0.3088
  133SAPE    HX14328   3.517   2.980  10.563 -1.4386  0.6891  0.6899
  133SAPE    HY14329   3.488   3.153  10.541  1.9518  0.9289 -1.4053
  133SAPE   O3114330   3.586   3.055  10.382  0.0208  0.2656  0.3299
  133SAPE   C3114331   3.570   3.157  10.302  0.3417  0.6087  0.2276
  133SAPE   O3214332   3.487   3.242  10.308  0.0360  0.2765  0.7057
  133SAPE   C3214333   3.675   3.140  10.198 -0.4807 -0.6674 -0.4237
  133SAPE   H2X14334   3.771   3.115  10.249  0.0365  1.3911 -0.2969
  133SAPE   H2Y14335   3.689   3.239  10.150 -0.1986  0.0808  1.1399
  133SAPE   C2314336   3.249   2.655  10.130 -0.7764 -0.1821  0.1031
  133SAPE   H3R14337   3.169   2.717  10.085 -1.1121 -1.4485 -1.0681
  133SAPE   H3S14338   3.228   2.547  10.126  0.7557 -0.5816  1.3819
  133SAPE   C2414339   3.376   2.669  10.039  0.2957  0.2563 -0.5118
  133SAPE   H4R14340   3.464   2.630  10.095  0.7441  2.6745  0.5910
  133SAPE   H4S14341   3.390   2.778  10.020 -1.7626  0.4417 -1.1948
  133SAPE   C2514342   3.357   2.586   9.916 -0.0740  0.2888 -0.7999
  133SAPE   H5R14343   3.357   2.479   9.938 -1.1112  0.6953  1.4061
  133SAPE   C2614344   3.331   2.632   9.797 -0.0093  0.0189 -0.3874
  133SAPE   H6R14345   3.330   2.563   9.711  0.4409  0.1350 -0.4856
  133SAPE   C2714346   3.303   2.775   9.761 -0.0872  0.0224 -0.0331
  133SAPE   H7R14347   3.400   2.811   9.721  0.1769 -0.5277  0.0999
  133SAPE   H7S14348   3.273   2.824   9.856 -2.5361 -0.5653 -0.4369
  133SAPE   C2814349   3.193   2.795   9.659 -0.2121  0.0682  0.1095
  133SAPE   H8R14350   3.115   2.856   9.705 -0.7050 -0.7103  0.3241
  133SAPE   C2914351   3.182   2.748   9.529 -0.0755  0.0964  0.3685
  133SAPE   H9R14352   3.102   2.787   9.464  0.2192  0.6347  0.3244
  133SAPE  C21014353   3.283   2.663   9.448  0.4792 -0.1372  1.0376
  133SAPE  H10R14354   3.219   2.583   9.404 -1.2850  1.9445 -0.4179
  133SAPE  H10S14355   3.366   2.619   9.507  2.6064  1.6465 -0.4545
  133SAPE  C21114356   3.357   2.745   9.343  0.3403  0.4954 -0.3570
  133SAPE  H11R14357   3.436   2.805   9.391  2.5251 -1.7528 -0.9429
  133SAPE  C21214358   3.330   2.756   9.213  0.0880  0.7752 -0.5039
  133SAPE  H12R14359   3.375   2.834   9.150  1.0840 -0.0312 -0.8277
  133SAPE  C21314360   3.226   2.673   9.151  0.2535  0.5127  0.4665
  133SAPE  H13R14361   3.220   2.567   9.184  1.0144  0.3277  0.0329
  133SAPE  H13S14362   3.255   2.671   9.044 -2.3722 -0.2157 -0.2968
  133SAPE  C21414363   3.082   2.734   9.150 -0.1525  0.4429 -0.1491
  133SAPE  H14R14364   3.031   2.724   9.247  1.8699 -2.0507  0.7370
  133SAPE  C21514365   3.008   2.796   9.050 -0.5252 -0.0714 -0.2025
  133SAPE  H15R14366   2.914   2.841   9.083  0.6614  0.7605  2.3811
  133SAPE  C21614367   3.058   2.817   8.916 -0.7398 -0.2681  0.3291
  133SAPE  H16R14368   3.169   2.808   8.916 -0.6982  0.0629  1.7630
  133SAPE  H16S14369   3.037   2.924   8.893 -1.1950 -0.6109 -0.9697
  133SAPE  C21714370   3.002   2.731   8.810  0.0192 -0.1062 -0.4070
  133SAPE  H17R14371   2.892   2.737   8.818 -0.0620 -2.6233  1.5030
  133SAPE  H17S14372   3.034   2.626   8.826 -3.1818 -1.3414 -1.2953
  133SAPE  C21814373   3.046   2.780   8.669 -0.0683 -0.4636 -0.7614
  133SAPE  H18R14374   3.155   2.765   8.658 -0.2598 -2.3413 -0.4940
  133SAPE  H18S14375   3.024   2.887   8.649  2.6128  0.3530  0.2756
  133SAPE  C21914376   2.975   2.688   8.563  0.8198  0.2793  0.5551
  133SAPE  H19R14377   2.966   2.584   8.601  1.2280  0.3071  0.7288
  133SAPE  H19S14378   3.041   2.690   8.474 -2.4303  1.1660 -2.0465
  133SAPE  C22014379   2.842   2.724   8.510  0.4103 -1.2660  0.5394
  133SAPE  H20R14380   2.820   2.674   8.413  0.8569  0.3996 -0.4724
  133SAPE  H20S14381   2.832   2.834   8.501  2.9277 -0.9072  1.3823
  133SAPE  H20T14382   2.763   2.689   8.580  1.3750 -2.7056  0.9503
  133SAPE   C3314383   3.655   3.035  10.087  0.0420 -0.0688 -0.1831
  133SAPE   H3X14384   3.650   2.930  10.121  0.3209  0.0605  0.2716
  133SAPE   H3Y14385   3.746   3.038  10.023 -0.9231 -1.8993 -1.7413
  133SAPE   C3414386   3.533   3.068   9.991 -0.1508 -0.2555 -0.3973
  133SAPE   H4X14387   3.533   3.178  10.005  1.3480 -0.2117 -0.5944
  133SAPE   H4Y14388   3.436   3.032  10.033  0.3997  1.0217  2.1388
  133SAPE   C3514389   3.549   3.027   9.846  0.2741  0.4430 -0.5573
  133SAPE   H5X14390   3.535   2.918   9.832  2.0293  0.0383  0.5664
  133SAPE   H5Y14391   3.655   3.041   9.817  0.4546  0.7877  0.2412
  133SAPE   C3614392   3.457   3.115   9.752  0.0324 -0.4241  0.1234
  133SAPE   H6X14393   3.483   3.223   9.763  2.1602 -0.3727 -3.5358
  133SAPE   H6Y14394   3.351   3.097   9.779 -0.3157  1.0758 -0.1582
  133SAPE   C3714395   3.491   3.073   9.608 -0.3554  0.1889  0.1902
  133SAPE   H7X14396   3.448   2.973   9.586  1.0289 -0.2039 -0.8708
  133SAPE   H7Y14397   3.602   3.069   9.599 -0.2744 -0.3936  1.2530
  133SAPE   C3814398   3.421   3.165   9.509  0.5669 -0.2166 -0.0840
  133SAPE   H8X14399   3.480   3.258   9.499  0.3750  0.2449  2.5519
  133SAPE   H8Y14400   3.319   3.184   9.548 -0.4810 -1.8658 -1.8314
  133SAPE   C3914401   3.394   3.101   9.369  0.2866  0.4859 -0.1100
  133SAPE   H9X14402   3.323   3.016   9.380  1.0225 -0.3315 -1.3581
  133SAPE   H9Y14403   3.489   3.056   9.333 -0.4040 -1.0412 -0.1284
  133SAPE  C31014404   3.329   3.192   9.269 -0.3179 -0.0242 -0.1670
  133SAPE  H10X14405   3.402   3.275   9.259  0.7078 -0.7466  0.9516
  133SAPE  H10Y14406   3.235   3.238   9.306  0.5737  1.8770 -0.1706
  133SAPE  C31114407   3.303   3.128   9.131  0.1736 -0.7455 -0.1874
  133SAPE  H11X14408   3.225   3.050   9.145  0.3724 -0.9286 -0.0897
  133SAPE  H11Y14409   3.398   3.077   9.104  0.5331  0.6634 -1.7709
  133SAPE  C31214410   3.265   3.233   9.017  0.0768 -0.5547 -0.0350
  133SAPE  H12X14411   3.344   3.311   9.019  0.6997 -1.1711  1.0969
  133SAPE  H12Y14412   3.171   3.271   9.062  1.2192 -0.7667  2.7787
  133SAPE  C31314413   3.247   3.171   8.879 -0.1283  0.0929 -0.2509
  133SAPE  H13X14414   3.178   3.084   8.887 -1.9566  1.5546  0.7538
  133SAPE  H13Y14415   3.345   3.121   8.869 -0.6046 -1.0122  0.3624
  133SAPE  C31414416   3.204   3.276   8.768 -0.6217  0.6176 -0.4613
  133SAPE  H14X14417   3.277   3.360   8.764 -1.7945  1.6366 -1.5374
  133SAPE  H14Y14418   3.108   3.326   8.794 -0.4242  1.8116 -1.8825
  133SAPE  C31514419   3.196   3.211   8.624 -0.4373 -0.6456 -0.6044
  133SAPE  H15X14420   3.174   3.277   8.537 -1.5292  0.6859  0.6175
  133SAPE  H15Y14421   3.114   3.137   8.631 -0.4235 -0.6233 -0.1896
  133SAPE  C31614422   3.326   3.134   8.595 -0.4239  0.1106 -0.1418
  133SAPE  H16X14423   3.322   3.038   8.652  1.6444 -0.5923 -1.0669
  133SAPE  H16Y14424   3.419   3.180   8.636  0.4018 -0.0457 -1.7483
  133SAPE  C31714425   3.336   3.104   8.447  0.3743 -0.0537 -0.0180
  133SAPE  H17X14426   3.378   3.193   8.394 -1.0892  1.0842  0.6514
  133SAPE  H17Y14427   3.234   3.081   8.409  0.1321  0.0841  0.5351
  133SAPE  C31814428   3.435   2.995   8.429  0.0979 -0.4976  0.0284
  133SAPE  H18X14429   3.525   3.029   8.486 -0.6980 -0.8531  1.5691
  133SAPE  H18Y14430   3.452   2.990   8.320 -0.2010 -0.9570  0.0024
  133SAPE  H18Z14431   3.398   2.899   8.470 -1.3522  0.0920  0.1541
  134SAPE     N14432   5.527   0.530  10.539 -0.9060 -0.2012  0.6419
  134SAPE   HN114433   5.469   0.616  10.542 -4.7525 -2.5121 -0.0097
  134SAPE   HN214434   5.509   0.494  10.635 -0.9206 -0.2637  0.6163
  134SAPE   HN314435   5.629   0.548  10.544 -0.3842 -3.0660  2.6202
  134SAPE   C1214436   5.482   0.425  10.441  0.6709 -0.2539  0.4808
  134SAPE  H12A14437   5.484   0.483  10.346 -0.4307 -0.7297  0.1531
  134SAPE  H12B14438   5.373   0.407  10.454  0.4735  0.7093  0.2595
  134SAPE   C1114439   5.567   0.300  10.419  0.2509  0.5641 -0.2328
  134SAPE  H11A14440   5.519   0.246  10.334 -0.8574  0.9084  0.1478
  134SAPE  H11B14441   5.556   0.231  10.505  3.2414 -1.1416 -1.0838
  134SAPE     P14442   5.809   0.334  10.498  0.4354  0.2578  0.1580
  134SAPE   O1314443   5.777   0.442  10.592  0.0932 -0.3245  0.4745
  134SAPE   O1414444   5.823   0.201  10.564  0.1878  0.1224 -0.3240
  134SAPE   O1214445   5.700   0.320  10.386  0.2768  0.1849  0.0202
  134SAPE   O1114446   5.937   0.382  10.420 -0.0369  0.0351  0.2112
  134SAPE    C114447   5.977   0.522  10.428 -0.2535 -0.3076 -0.1855
  134SAPE    HA14448   5.968   0.561  10.532 -1.1714  0.1342 -0.4231
  134SAPE    HB14449   6.086   0.529  10.405 -0.4224  1.7568 -0.5506
  134SAPE    C214450   5.887   0.612  10.344  0.2056  0.2132 -0.2456
  134SAPE    HS14451   5.785   0.603  10.389  0.9353  0.7606  1.5876
  134SAPE   O2114452   5.892   0.567  10.207  0.0218  0.0443  0.8733
  134SAPE   C2114453   5.782   0.537  10.149  0.2096 -0.6057 -1.0414
  134SAPE   O2214454   5.668   0.556  10.195 -0.2545 -0.1853 -0.0784
  134SAPE   C2214455   5.811   0.453  10.020  0.4266 -1.0133 -0.4805
  134SAPE   H2R14456   5.830   0.522   9.935 -0.8303  3.3517  2.4393
  134SAPE   H2S14457   5.914   0.415  10.035 -0.0828 -1.5676  2.0542
  134SAPE    C314458   5.937   0.761  10.357 -0.6136  0.7701  0.5919
  134SAPE    HX14459   6.040   0.758  10.317 -0.1541  0.3994  1.7496
  134SAPE    HY14460   5.951   0.791  10.463  0.4779  0.8288  0.4392
  134SAPE   O3114461   5.863   0.853  10.269 -0.9922 -0.4626  0.0154
  134SAPE   C3114462   5.750   0.889  10.319  0.1491  0.2896 -0.4135
  134SAPE   O3214463   5.702   0.845  10.423  0.5725  0.0658  0.0903
  134SAPE   C3214464   5.680   0.999  10.234  0.1622  0.1368 -0.9427
  134SAPE   H2X14465   5.754   1.072  10.196  1.9431 -1.6756 -1.1298
  134SAPE   H2Y14466   5.616   1.057  10.304  1.4122 -0.2899  0.6177
  134SAPE   C2314467   5.686   0.360   9.993 -1.0917  0.3710 -0.4177
  134SAPE   H3R14468   5.598   0.423  10.016  0.1618  1.2527  2.4256
  134SAPE   H3S14469   5.674   0.288  10.077  1.0777  2.2829  1.6551
  134SAPE   C2414470   5.681   0.295   9.861  0.4524 -0.3731  0.3066
  134SAPE   H4R14471   5.673   0.379   9.789  0.5705 -0.8485 -0.2769
  134SAPE   H4S14472   5.581   0.247   9.854  0.9214 -1.3479  0.1347
  134SAPE   C2514473   5.795   0.195   9.826  0.1990  0.6012 -0.8719
  134SAPE   H5R14474   5.827   0.132   9.911 -0.9608  1.2539  0.0787
  134SAPE   C2614475   5.859   0.196   9.707 -0.3885  0.4417 -0.7455
  134SAPE   H6R14476   5.942   0.124   9.700 -0.1175  0.6427  0.2831
  134SAPE   C2714477   5.828   0.266   9.581 -1.2174 -0.3049  0.5482
  134SAPE   H7R14478   5.916   0.303   9.523 -1.1223  0.6099  1.2410
  134SAPE   H7S14479   5.773   0.359   9.606 -0.7499  0.7632 -2.1026
  134SAPE   C2814480   5.747   0.172   9.497 -0.1846  0.0348  0.2788
  134SAPE   H8R14481   5.648   0.150   9.539 -1.3479  3.0178 -0.6488
  134SAPE   C2914482   5.789   0.106   9.384  1.1962 -0.0125 -0.1202
  134SAPE   H9R14483   5.720   0.038   9.330  3.1378  0.0927 -2.9953
  134SAPE  C21014484   5.926   0.108   9.314  0.5718  1.2381 -0.2168
  134SAPE  H10R14485   5.969   0.006   9.321  1.1629  1.5238  0.4669
  134SAPE  H10S14486   6.001   0.163   9.375  2.1533  1.2523 -2.0694
  134SAPE  C21114487   5.932   0.172   9.186  0.7830  0.9405  0.0592
  134SAPE  H11R14488   5.899   0.277   9.193  1.8100  1.1376  4.7741
  134SAPE  C21214489   5.958   0.109   9.068  0.0320 -0.9937  0.4210
  134SAPE  H12R14490   5.940   0.168   8.977  1.3430  1.2247  1.5322
  134SAPE  C21314491   5.985  -0.033   9.035 -0.3762  0.2549  0.1656
  134SAPE  H13R14492   6.027  -0.080   9.127  0.4457  0.0748 -0.2925
  134SAPE  H13S14493   6.077  -0.041   8.973 -0.1491 -1.5612  0.6761
  134SAPE  C21414494   5.870  -0.116   8.979 -0.9960 -0.2233 -0.7645
  134SAPE  H14R14495   5.789  -0.128   9.052  0.4489  0.1710  0.9997
  134SAPE  C21514496   5.870  -0.180   8.862  0.5560 -0.1788 -0.1982
  134SAPE  H15R14497   5.783  -0.234   8.821 -1.8958  4.4520 -1.7931
  134SAPE  C21614498   5.977  -0.172   8.753 -0.3702  0.6514 -0.1627
  134SAPE  H16R14499   6.080  -0.168   8.795 -1.8111  1.8805  3.7062
  134SAPE  H16S14500   5.971  -0.071   8.707  0.4401  1.6412  1.7753
  134SAPE  C21714501   5.972  -0.285   8.647  0.1063  0.2579 -0.5651
  134SAPE  H17R14502   6.032  -0.247   8.562  1.1031  1.3370  0.5960
  134SAPE  H17S14503   5.865  -0.282   8.616  0.5783  1.1058 -2.2232
  134SAPE  C21814504   6.017  -0.426   8.700 -0.5653  0.0165  0.2191
  134SAPE  H18R14505   5.951  -0.455   8.785 -1.3103  0.2845 -0.2538
  134SAPE  H18S14506   6.113  -0.419   8.754 -1.0637 -2.2424  1.5281
  134SAPE  C21914507   6.008  -0.537   8.599 -0.8176  0.7525  0.3128
  134SAPE  H19R14508   6.094  -0.526   8.529 -0.4182  2.2450  0.9867
  134SAPE  H19S14509   5.917  -0.512   8.541  1.2344  2.0191 -2.6245
  134SAPE  C22014510   5.995  -0.676   8.661 -0.1927  0.2811 -0.1181
  134SAPE  H20R14511   6.005  -0.748   8.577  1.0451  1.1171 -0.7205
  134SAPE  H20S14512   5.899  -0.678   8.716  1.5422 -1.7411  3.2462
  134SAPE  H20T14513   6.072  -0.692   8.740  0.4893  2.0881 -0.3680
  134SAPE   C3314514   5.603   0.936  10.124  0.5935  0.2809  0.3979
  134SAPE   H3X14515   5.540   1.016  10.079 -0.2143 -0.1791  0.6838
  134SAPE   H3Y14516   5.538   0.850  10.153 -1.0138  0.4480 -2.2949
  134SAPE   C3414517   5.702   0.876  10.022  0.1407 -0.0932 -0.1399
  134SAPE   H4X14518   5.750   0.785  10.066 -0.8146 -1.0175 -0.9612
  134SAPE   H4Y14519   5.781   0.951  10.000 -0.0562 -0.1471 -1.0581
  134SAPE   C3514520   5.618   0.843   9.905 -0.6984 -0.0396  0.2007
  134SAPE   H5X14521   5.586   0.939   9.860  0.8464  0.6881  0.5654
  134SAPE   H5Y14522   5.526   0.786   9.928 -0.3760 -0.4137  0.5897
  134SAPE   C3614523   5.691   0.756   9.799  0.0433  0.8256 -1.0264
  134SAPE   H6X14524   5.728   0.664   9.849 -0.3903  1.6351  0.8817
  134SAPE   H6Y14525   5.779   0.815   9.765  0.6322 -0.7015 -2.2636
  134SAPE   C3714526   5.613   0.725   9.672  0.3678 -0.4495  0.8704
  134SAPE   H7X14527   5.579   0.823   9.632  0.3907 -0.4195  0.9240
  134SAPE   H7Y14528   5.522   0.666   9.698  0.2376 -0.7431 -0.1876
  134SAPE   C3814529   5.681   0.646   9.555 -0.9963 -0.0352 -0.1978
  134SAPE   H8X14530   5.703   0.542   9.588 -0.1813  0.4427  0.8358
  134SAPE   H8Y14531   5.779   0.694   9.536 -1.2681  1.1318  1.1702
  134SAPE   C3914532   5.584   0.639   9.429  0.2731 -0.4936 -0.4664
  134SAPE   H9X14533   5.590   0.738   9.379 -2.3547 -1.1939 -2.3982
  134SAPE   H9Y14534   5.478   0.627   9.462  0.6102  2.2239  2.0794
  134SAPE  C31014535   5.640   0.542   9.324  0.3020 -0.3223  0.2801
  134SAPE  H10X14536   5.639   0.438   9.363  0.4934 -0.6380 -0.5371
  134SAPE  H10Y14537   5.740   0.575   9.287  0.8306  0.6289  2.4265
  134SAPE  C31114538   5.560   0.552   9.196 -0.2652  0.3606  0.3312
  134SAPE  H11X14539   5.552   0.660   9.173  2.1070  0.7487  1.0348
  134SAPE  H11Y14540   5.453   0.524   9.205 -0.6736  0.9082 -2.0951
  134SAPE  C31214541   5.622   0.482   9.074  0.0331  0.3711 -0.0120
  134SAPE  H12X14542   5.663   0.383   9.104  1.2922  0.4739 -1.2697
  134SAPE  H12Y14543   5.708   0.536   9.028 -0.7193  0.4329 -1.3961
  134SAPE  C31314544   5.515   0.457   8.962  0.1816 -0.4795  0.0317
  134SAPE  H13X14545   5.423   0.409   9.001 -0.6272 -1.1383 -2.5227
  134SAPE  H13Y14546   5.573   0.389   8.895 -0.7143  0.1812 -1.4397
  134SAPE  C31414547   5.487   0.586   8.895  0.8757 -0.6928  0.5184
  134SAPE  H14X14548   5.581   0.645   8.895  1.7561 -1.9049 -2.8669
  134SAPE  H14Y14549   5.410   0.645   8.950  1.2130  0.9016 -0.6461
  134SAPE  C31514550   5.454   0.576   8.741  0.5641 -0.0583 -0.6690
  134SAPE  H15X14551   5.530   0.509   8.695  1.4081  0.7088 -0.4261
  134SAPE  H15Y14552   5.482   0.678   8.709 -2.3985  0.7768 -0.8332
  134SAPE  C31614553   5.315   0.529   8.716 -0.0942 -0.1511 -0.3462
  134SAPE  H16X14554   5.247   0.591   8.777 -0.5751 -1.0280  0.0378
  134SAPE  H16Y14555   5.315   0.430   8.768  0.7584  0.0178 -0.0243
  134SAPE  C31714556   5.272   0.491   8.571 -0.0423 -0.3426  0.0126
  134SAPE  H17X14557   5.162   0.492   8.561  0.0805 -1.2807 -1.7321
  134SAPE  H17Y14558   5.304   0.386   8.559 -2.8433 -1.2664 -0.0398
  134SAPE  C31814559   5.328   0.587   8.470 -0.2117 -0.1435  0.9133
  134SAPE  H18X14560   5.437   0.593   8.450 -0.1397 -1.5955  0.7148
  134SAPE  H18Y14561   5.295   0.688   8.502  0.2115  0.3355 -0.1130
  134SAPE  H18Z14562   5.282   0.561   8.372 -0.1201  3.2052 -0.1215
  135SAPE     N14563   3.685   1.603  10.829 -0.5233 -0.4409  0.1028
  135SAPE   HN114564   3.683   1.699  10.788  1.3509 -0.3099  0.2459
  135SAPE   HN214565   3.592   1.590  10.873 -0.2849  0.9877  1.0871
  135SAPE   HN314566   3.756   1.601  10.905 -1.3230  1.9702  1.0021
  135SAPE   C1214567   3.711   1.504  10.720  0.0363 -0.1403 -0.9940
  135SAPE  H12A14568   3.685   1.408  10.770 -2.9666 -0.8211 -3.5570
  135SAPE  H12B14569   3.819   1.506  10.694  0.2305 -2.1564 -0.5625
  135SAPE   C1114570   3.629   1.530  10.595 -0.5544 -0.2175  0.6065
  135SAPE  H11A14571   3.652   1.445  10.527 -1.4203  2.3979 -3.3124
  135SAPE  H11B14572   3.650   1.629  10.549  1.4754 -0.7500  0.2990
  135SAPE     P14573   3.377   1.437  10.556 -0.3043 -0.2776  0.5200
  135SAPE   O1314574   3.425   1.302  10.520  0.6266 -0.0599  0.4305
  135SAPE   O1414575   3.253   1.429  10.631  0.3671 -0.6440  0.4719
  135SAPE   O1214576   3.491   1.523  10.628  0.1412  0.0347  0.4149
  135SAPE   O1114577   3.348   1.515  10.419 -0.5623  0.4544 -0.3462
  135SAPE    C114578   3.327   1.654  10.425 -0.2854  0.0073  0.2203
  135SAPE    HA14579   3.271   1.690  10.514 -1.4479 -0.9497 -0.1062
  135SAPE    HB14580   3.422   1.711  10.426  0.0274 -0.4729 -0.6673
  135SAPE    C214581   3.254   1.712  10.308  0.2204  0.9229 -0.6137
  135SAPE    HS14582   3.222   1.816  10.333 -2.4458 -0.1349  0.8299
  135SAPE   O2114583   3.141   1.634  10.279 -0.2875  0.6027 -0.0846
  135SAPE   C2114584   3.049   1.626  10.377 -0.1003  0.4259  0.1900
  135SAPE   O2214585   3.044   1.697  10.472 -0.6095  0.2181  0.0869
  135SAPE   C2214586   2.945   1.516  10.341 -0.3565 -0.2690  0.3116
  135SAPE   H2R14587   2.998   1.434  10.289 -1.9374 -0.5471 -0.9557
  135SAPE   H2S14588   2.906   1.483  10.440 -1.7663  1.7897  0.5015
  135SAPE    C314589   3.336   1.711  10.180 -0.7714  0.5567  0.0875
  135SAPE    HX14590   3.395   1.620  10.156  1.8948  2.1002  0.3198
  135SAPE    HY14591   3.421   1.780  10.204  1.2703 -2.0096  0.6727
  135SAPE   O3114592   3.263   1.766  10.075  0.2579 -0.2942  0.2598
  135SAPE   C3114593   3.243   1.684   9.978 -0.0095  0.0202 -0.2822
  135SAPE   O3214594   3.286   1.567   9.967 -0.5972 -0.2763 -0.1829
  135SAPE   C3214595   3.141   1.739   9.881  0.0524  0.1698  0.9795
  135SAPE   H2X14596   3.171   1.846   9.886  1.5498  0.0052 -2.1265
  135SAPE   H2Y14597   3.039   1.727   9.923  0.2938  0.0160  1.5348
  135SAPE   C2314598   2.821   1.571  10.267  0.2761 -0.1881 -1.0004
  135SAPE   H3R14599   2.768   1.648  10.325  0.7477  0.3951 -1.3293
  135SAPE   H3S14600   2.753   1.483  10.258 -1.0372  0.7144 -0.1462
  135SAPE   C2414601   2.846   1.609  10.123 -0.3688 -0.3093 -0.1317
  135SAPE   H4R14602   2.903   1.526  10.077  0.8202  0.3504  0.1063
  135SAPE   H4S14603   2.926   1.686  10.125  0.2402 -0.9433  0.5692
  135SAPE   C2514604   2.721   1.657  10.061 -0.3563  0.0918  0.6765
  135SAPE   H5R14605   2.706   1.765  10.076  1.9625  0.3973  1.2130
  135SAPE   C2614606   2.657   1.595   9.954 -0.6187  0.5032 -0.8427
  135SAPE   H6R14607   2.558   1.638   9.934 -0.1599  1.4621 -1.1489
  135SAPE   C2714608   2.694   1.455   9.899  0.1323 -0.3459  0.2420
  135SAPE   H7R14609   2.600   1.398   9.882 -0.9948  0.8475  2.0698
  135SAPE   H7S14610   2.753   1.402   9.977  2.6780  1.0072 -0.6350
  135SAPE   C2814611   2.778   1.485   9.780  0.3689 -0.2766  0.0324
  135SAPE   H8R14612   2.879   1.499   9.822  0.4349 -1.9632  0.4974
  135SAPE   C2914613   2.756   1.494   9.651  0.0664  0.6518 -0.3769
  135SAPE   H9R14614   2.839   1.532   9.590  0.2689  1.4606  0.3795
  135SAPE  C21014615   2.627   1.472   9.579 -0.3571  0.5867  0.8280
  135SAPE  H10R14616   2.598   1.560   9.517  0.2214  0.4922  0.4165
  135SAPE  H10S14617   2.539   1.442   9.639  0.9214 -1.2916  1.8801
  135SAPE  C21114618   2.657   1.356   9.481 -0.4346  0.6025  0.3844
  135SAPE  H11R14619   2.628   1.259   9.525 -0.8017  1.0094  1.0486
  135SAPE  C21214620   2.714   1.358   9.354 -0.2456 -0.4326 -0.2954
  135SAPE  H12R14621   2.723   1.262   9.302  0.9787 -0.6993  0.3862
  135SAPE  C21314622   2.764   1.483   9.285 -0.7314  0.3406 -0.0344
  135SAPE  H13R14623   2.847   1.522   9.348 -0.3621  0.7597 -0.7732
  135SAPE  H13S14624   2.683   1.559   9.289 -2.1332 -1.1076  0.6615
  135SAPE  C21414625   2.816   1.458   9.144 -0.9608  0.2124 -0.8944
  135SAPE  H14R14626   2.752   1.491   9.061 -0.6559 -1.5646 -1.8797
  135SAPE  C21514627   2.923   1.384   9.103  0.5148  0.7452  0.6090
  135SAPE  H15R14628   2.929   1.347   9.000  0.8157 -1.3117  1.3203
  135SAPE  C21614629   3.013   1.307   9.199  0.2702 -0.4465  0.0954
  135SAPE  H16R14630   3.023   1.198   9.179  0.3838 -0.0045 -2.6828
  135SAPE  H16S14631   2.977   1.319   9.303  2.5666 -0.7390  0.9651
  135SAPE  C21714632   3.152   1.353   9.197 -0.0918 -0.2372  0.4832
  135SAPE  H17R14633   3.144   1.456   9.236 -0.4444  1.0468 -2.6721
  135SAPE  H17S14634   3.184   1.368   9.091 -0.7314 -0.4980  0.2495
  135SAPE  C21814635   3.253   1.272   9.282  0.7069  0.2019 -0.4619
  135SAPE  H18R14636   3.350   1.323   9.269  0.5475  0.4950 -0.5020
  135SAPE  H18S14637   3.261   1.169   9.240  0.8719  0.5435 -1.2684
  135SAPE  C21914638   3.208   1.267   9.430 -0.4206  0.7019 -0.8374
  135SAPE  H19R14639   3.291   1.223   9.490 -1.2852  2.8851  2.2592
  135SAPE  H19S14640   3.126   1.195   9.449  1.1919 -0.4601  2.4822
  135SAPE  C22014641   3.180   1.392   9.511 -0.2614 -0.2085  1.2654
  135SAPE  H20R14642   3.139   1.381   9.614  0.7219 -0.8765  1.5975
  135SAPE  H20S14643   3.103   1.449   9.454  0.3433 -0.4344  0.2059
  135SAPE  H20T14644   3.266   1.463   9.515  0.5222 -0.9872 -0.6818
  135SAPE   C3314645   3.153   1.678   9.736  0.2190  0.4322 -0.2441
  135SAPE   H3X14646   3.075   1.601   9.717  1.0280 -0.0339 -1.8453
  135SAPE   H3Y14647   3.250   1.627   9.718 -0.0046 -0.4749  0.9523
  135SAPE   C3414648   3.137   1.789   9.626 -0.0648 -0.0188  0.6460
  135SAPE   H4X14649   3.219   1.864   9.619  1.2832 -1.5813 -1.1301
  135SAPE   H4Y14650   3.051   1.854   9.654  1.2804  2.0800  0.1458
  135SAPE   C3514651   3.127   1.738   9.481  0.3691  0.3865 -0.4139
  135SAPE   H5X14652   3.043   1.666   9.473  1.4373 -0.6736 -3.8298
  135SAPE   H5Y14653   3.212   1.675   9.447  0.3597 -0.3306  0.8214
  135SAPE   C3614654   3.105   1.853   9.373 -0.2004  0.4472 -0.3742
  135SAPE   H6X14655   3.184   1.929   9.387 -0.6315  0.4465  2.7708
  135SAPE   H6Y14656   3.002   1.893   9.382 -0.0431  0.5603  1.1143
  135SAPE   C3714657   3.102   1.790   9.230 -0.4045  0.3851 -0.1089
  135SAPE   H7X14658   3.078   1.862   9.148  2.1001  1.1055 -0.2996
  135SAPE   H7Y14659   3.030   1.706   9.231  0.4533 -0.4439 -2.3248
  135SAPE   C3814660   3.240   1.737   9.182 -0.1222  0.4812  0.5319
  135SAPE   H8X14661   3.289   1.678   9.262 -0.3175 -0.1559  0.1864
  135SAPE   H8Y14662   3.306   1.825   9.166 -2.0774  1.8393 -0.4525
  135SAPE   C3914663   3.241   1.674   9.044  0.2485  0.2873  0.1220
  135SAPE   H9X14664   3.203   1.751   8.974 -1.6455 -0.0691  0.6887
  135SAPE   H9Y14665   3.160   1.597   9.047  0.0056  0.5675  2.3500
  135SAPE  C31014666   3.376   1.621   8.995  0.0444  0.2186  0.4825
  135SAPE  H10X14667   3.393   1.525   9.047  3.0876  0.6254  0.3906
  135SAPE  H10Y14668   3.455   1.695   9.019 -0.1353  0.3105  0.8000
  135SAPE  C31114669   3.373   1.589   8.846  0.3635  0.3626  0.3417
  135SAPE  H11X14670   3.480   1.599   8.818  0.9148 -1.7855  1.4702
  135SAPE  H11Y14671   3.315   1.669   8.794 -0.5368  0.9489  2.1610
  135SAPE  C31214672   3.327   1.445   8.813  0.6304 -0.0866 -0.2770
  135SAPE  H12X14673   3.310   1.453   8.703  1.3856 -0.1265 -0.4037
  135SAPE  H12Y14674   3.227   1.434   8.859 -0.1729  3.7498 -0.7398
  135SAPE  C31314675   3.436   1.342   8.831  0.5807  0.0961 -0.3890
  135SAPE  H13X14676   3.437   1.317   8.940 -3.0678  2.7673  0.4606
  135SAPE  H13Y14677   3.532   1.398   8.828 -0.4296  2.0947  1.5667
  135SAPE  C31414678   3.426   1.206   8.758 -0.9905 -0.5187 -0.6124
  135SAPE  H14X14679   3.330   1.157   8.785 -1.3348  0.0492 -0.7701
  135SAPE  H14Y14680   3.499   1.138   8.807 -0.7666  1.2344  1.6989
  135SAPE  C31514681   3.435   1.214   8.604 -0.1753  0.2066 -0.4088
  135SAPE  H15X14682   3.540   1.245   8.589  0.6045  0.4773  4.1569
  135SAPE  H15Y14683   3.364   1.290   8.563  0.1241 -0.4714 -2.2998
  135SAPE  C31614684   3.389   1.080   8.542  0.3413  0.1542  0.0239
  135SAPE  H16X14685   3.289   1.047   8.579  0.6840 -0.9396 -0.0073
  135SAPE  H16Y14686   3.466   1.011   8.581 -2.7510 -3.0515  1.0040
  135SAPE  C31714687   3.386   1.059   8.390 -0.1220  0.3352  0.2265
  135SAPE  H17X14688   3.388   0.950   8.366 -1.5668 -0.0393  1.6833
  135SAPE  H17Y14689   3.480   1.099   8.345 -0.7516  1.2757 -0.2926
  135SAPE  C31814690   3.265   1.129   8.330 -0.0764  0.4026  0.0489
  135SAPE  H18X14691   3.266   1.131   8.219 -1.6593  2.3305  0.0134
  135SAPE  H18Y14692   3.256   1.236   8.357  3.1727  1.1678 -1.4667
  135SAPE  H18Z14693   3.169   1.078   8.352 -0.2545  0.1652 -1.2082
  136SAPE     N14694   0.776   0.376  10.584  0.4549 -0.8041 -0.2058
  136SAPE   HN114695   0.759   0.418  10.491 -1.5674 -0.8477  0.0965
  136SAPE   HN214696   0.876   0.393  10.609  0.0925  0.7101  0.2594
  136SAPE   HN314697   0.752   0.275  10.580 -1.1418 -0.5175  1.2196
  136SAPE   C1214698   0.694   0.451  10.682  0.2789 -0.1802 -0.3452
  136SAPE  H12A14699   0.611   0.494  10.622 -0.3724 -3.1317 -1.7889
  136SAPE  H12B14700   0.763   0.531  10.714  1.4778 -1.2432 -0.1994
  136SAPE   C1114701   0.642   0.361  10.799  0.4689 -0.0976 -0.1556
  136SAPE  H11A14702   0.587   0.275  10.754  1.3140 -1.2184  0.8940
  136SAPE  H11B14703   0.569   0.421  10.858  0.9455  1.4392 -1.0613
  136SAPE     P14704   0.732   0.198  10.977  0.0307  0.1693 -0.0930
  136SAPE   O1314705   0.860   0.165  11.042  0.1436 -0.0361 -0.3829
  136SAPE   O1414706   0.622   0.225  11.073  0.0300 -0.4594  0.3260
  136SAPE   O1214707   0.751   0.322  10.881 -0.6463 -0.0600 -0.3287
  136SAPE   O1114708   0.693   0.075  10.881  0.0959  0.7152  0.1120
  136SAPE    C114709   0.628  -0.041  10.936  0.4604 -0.4791 -0.1285
  136SAPE    HA14710   0.693  -0.117  10.984 -1.2556 -0.9472  1.6059
  136SAPE    HB14711   0.558  -0.010  11.017 -0.5748 -0.2088 -1.1005
  136SAPE    C214712   0.543  -0.109  10.826  0.2331  0.0133 -0.3588
  136SAPE    HS14713   0.508  -0.204  10.873 -0.7371  0.6373  0.2113
  136SAPE   O2114714   0.629  -0.126  10.711 -0.3147  0.6111  0.5234
  136SAPE   C2114715   0.692  -0.239  10.707  0.1781 -0.0199  0.4948
  136SAPE   O2214716   0.690  -0.332  10.788  0.1629  0.2508  0.6301
  136SAPE   C2214717   0.776  -0.236  10.581 -0.6149  0.9244 -0.0971
  136SAPE   H2R14718   0.857  -0.161  10.589  0.0373  0.0240  2.9416
  136SAPE   H2S14719   0.823  -0.334  10.602 -1.9387  0.2963  0.0054
  136SAPE    C314720   0.416  -0.033  10.790 -0.0951  0.1100  0.2232
  136SAPE    HX14721   0.454   0.069  10.770  2.6512 -1.1097 -1.4658
  136SAPE    HY14722   0.353  -0.032  10.881 -0.5979 -1.8944 -0.0523
  136SAPE   O3114723   0.337  -0.083  10.684  0.4267  0.5202 -0.1069
  136SAPE   C3114724   0.362  -0.024  10.567 -0.2289 -0.9444  0.6129
  136SAPE   O3214725   0.460   0.048  10.545 -0.0151 -0.1958  0.1441
  136SAPE   C3214726   0.258  -0.080  10.466  0.2014  0.1712  0.4782
  136SAPE   H2X14727   0.157  -0.073  10.511  0.1580 -1.9510  0.8016
  136SAPE   H2Y14728   0.278  -0.189  10.463 -2.1034 -0.2792 -0.6156
  136SAPE   C2314729   0.699  -0.222  10.448  0.7250 -0.1863 -0.3428
  136SAPE   H3R14730   0.686  -0.113  10.429 -1.6342 -0.7317 -2.5214
  136SAPE   H3S14731   0.595  -0.260  10.456 -0.0559  1.9506  0.4733
  136SAPE   C2414732   0.760  -0.289  10.324  0.0309 -0.0706 -0.3046
  136SAPE   H4R14733   0.675  -0.296  10.253 -0.7029 -1.3762  0.6511
  136SAPE   H4S14734   0.764  -0.397  10.351 -0.8983  0.1001  0.5928
  136SAPE   C2514735   0.894  -0.231  10.283  0.3649 -0.0417  0.3409
  136SAPE   H5R14736   0.919  -0.128  10.316 -0.6367  0.2668  0.1473
  136SAPE   C2614737   0.983  -0.297  10.212  0.1976 -0.1319  0.3902
  136SAPE   H6R14738   1.075  -0.250  10.174  1.1824 -1.5596  0.9579
  136SAPE   C2714739   0.955  -0.438  10.152  0.5534 -0.7393 -0.0878
  136SAPE   H7R14740   0.912  -0.406  10.054  0.3856  3.4569  1.1675
  136SAPE   H7S14741   0.874  -0.489  10.208  1.2447 -0.9689  0.7275
  136SAPE   C2814742   1.075  -0.524  10.145  0.1396 -0.3820 -0.4731
  136SAPE   H8R14743   1.108  -0.565  10.242 -1.6372 -1.5595 -0.3201
  136SAPE   C2914744   1.151  -0.557  10.035  0.7897 -0.2640 -0.7272
  136SAPE   H9R14745   1.243  -0.616  10.047  0.4912 -0.7081 -0.5878
  136SAPE  C21014746   1.127  -0.517   9.892  0.2901 -0.1444 -0.1917
  136SAPE  H10R14747   1.031  -0.560   9.853 -0.7336 -1.7755  3.6313
  136SAPE  H10S14748   1.213  -0.561   9.837  2.5802  0.4530  2.6980
  136SAPE  C21114749   1.135  -0.367   9.863 -0.6096  0.6752 -0.5476
  136SAPE  H11R14750   1.136  -0.312   9.958 -3.2951 -0.8526  0.4787
  136SAPE  C21214751   1.144  -0.308   9.741 -0.7447 -0.3505 -0.0709
  136SAPE  H12R14752   1.134  -0.199   9.733  1.7263 -0.1354 -1.2503
  136SAPE  C21314753   1.153  -0.365   9.604  0.1626  0.3018  0.2144
  136SAPE  H13R14754   1.095  -0.295   9.539 -0.7452 -1.5839 -1.1048
  136SAPE  H13S14755   1.100  -0.461   9.587  1.2133 -0.2869  0.1833
  136SAPE  C21414756   1.296  -0.378   9.544  1.0788 -0.1220  0.4403
  136SAPE  H14R14757   1.373  -0.342   9.614 -0.6388  1.5332  1.5714
  136SAPE  C21514758   1.325  -0.426   9.423 -0.5585 -0.2418  0.3374
  136SAPE  H15R14759   1.432  -0.433   9.400 -0.6410  0.2934 -0.2116
  136SAPE  C21614760   1.235  -0.475   9.312 -0.1168  0.3222  0.5129
  136SAPE  H16R14761   1.279  -0.424   9.224  0.2572 -0.7989  0.0342
  136SAPE  H16S14762   1.130  -0.441   9.328 -0.3695 -0.2699  0.1097
  136SAPE  C21714763   1.215  -0.623   9.278  0.4289  1.1819 -0.0103
  136SAPE  H17R14764   1.169  -0.674   9.365  0.2217 -0.8796 -1.2399
  136SAPE  H17S14765   1.309  -0.674   9.248 -0.8807 -0.0060 -2.4873
  136SAPE  C21814766   1.114  -0.638   9.164 -0.0016  0.2030 -1.3255
  136SAPE  H18R14767   1.171  -0.597   9.078  1.1106  0.7897 -0.3345
  136SAPE  H18S14768   1.017  -0.589   9.184 -0.3727  0.4519 -3.4810
  136SAPE  C21914769   1.078  -0.786   9.148  0.3309 -0.0553  0.2776
  136SAPE  H19R14770   1.030  -0.818   9.243 -2.3892 -0.1046 -1.0304
  136SAPE  H19S14771   1.179  -0.833   9.144  1.3488  1.9359  1.1296
  136SAPE  C22014772   0.986  -0.819   9.031  0.7418  0.4935  1.1560
  136SAPE  H20R14773   1.048  -0.833   8.939  0.4213  0.5728  0.9235
  136SAPE  H20S14774   0.910  -0.740   9.013 -0.8663 -1.0244  0.9340
  136SAPE  H20T14775   0.929  -0.915   9.038  1.9969 -0.3787  0.1297
  136SAPE   C3314776   0.277  -0.020  10.324  0.2625  0.0642  0.3462
  136SAPE   H3X14777   0.277   0.089  10.341  1.0420 -0.0244  0.9673
  136SAPE   H3Y14778   0.182  -0.047  10.272  0.6503 -0.8256  0.0667
  136SAPE   C3414779   0.386  -0.078  10.243  0.2598  1.3935  0.2700
  136SAPE   H4X14780   0.396  -0.189  10.235  0.8120  1.5776 -3.8490
  136SAPE   H4Y14781   0.478  -0.055  10.301 -0.7685  0.5639  2.2931
  136SAPE   C3514782   0.397  -0.018  10.100 -0.0666 -0.0665 -0.2534
  136SAPE   H5X14783   0.393   0.093  10.105 -0.5791 -0.0255 -1.2083
  136SAPE   H5Y14784   0.303  -0.053  10.053  1.6185 -2.3888 -2.1329
  136SAPE   C3614785   0.517  -0.069  10.025 -0.7548  0.5986  0.1334
  136SAPE   H6X14786   0.520  -0.180  10.020  2.0895  0.6378 -3.1639
  136SAPE   H6Y14787   0.610  -0.041  10.078 -1.0741 -1.3248  1.8572
  136SAPE   C3714788   0.498  -0.017   9.881  0.1655 -0.3714 -0.2822
  136SAPE   H7X14789   0.503   0.093   9.892 -0.3093 -0.3364 -0.3855
  136SAPE   H7Y14790   0.404  -0.051   9.834 -0.6207 -0.7352  1.4595
  136SAPE   C3814791   0.617  -0.055   9.783 -0.4807 -0.0883  0.3102
  136SAPE   H8X14792   0.648  -0.162   9.780  0.9330  0.2814  0.9598
  136SAPE   H8Y14793   0.709  -0.014   9.829  0.8844 -1.8401 -0.6998
  136SAPE   C3914794   0.601  -0.007   9.641 -0.5624 -1.0282 -0.1780
  136SAPE   H9X14795   0.512  -0.051   9.591 -0.7023  0.4632 -1.3311
  136SAPE   H9Y14796   0.679  -0.055   9.578 -0.1904 -2.9242  1.6559
  136SAPE  C31014797   0.571   0.148   9.607 -0.2471  1.0079 -0.0085
  136SAPE  H10X14798   0.650   0.214   9.649  0.4101  0.6116 -0.5881
  136SAPE  H10Y14799   0.480   0.164   9.668  0.4270 -1.3528  1.7623
  136SAPE  C31114800   0.544   0.168   9.460 -0.4580  0.0671  0.5252
  136SAPE  H11X14801   0.494   0.266   9.446 -0.5110 -0.1083 -0.6803
  136SAPE  H11Y14802   0.467   0.094   9.430 -0.5451  0.0392  0.8208
  136SAPE  C31214803   0.672   0.157   9.372  0.3159 -0.1565 -1.0613
  136SAPE  H12X14804   0.735   0.073   9.410  3.7030  2.3564 -0.6864
  136SAPE  H12Y14805   0.733   0.248   9.385 -0.0245 -0.1134  0.4081
  136SAPE  C31314806   0.640   0.133   9.227  0.3045 -0.2452  0.1541
  136SAPE  H13X14807   0.555   0.199   9.199 -0.6773 -0.9873  1.2818
  136SAPE  H13Y14808   0.580   0.039   9.225  1.0134 -0.7340  0.9793
  136SAPE  C31414809   0.743   0.120   9.116 -0.0896  0.1207  0.5714
  136SAPE  H14X14810   0.686   0.078   9.031  3.0772  0.4338 -1.8748
  136SAPE  H14Y14811   0.823   0.045   9.130 -0.4240 -0.6373 -1.3160
  136SAPE  C31514812   0.807   0.258   9.080 -0.4492  0.0834 -0.6109
  136SAPE  H15X14813   0.888   0.270   9.155 -1.2024  0.8104  0.1036
  136SAPE  H15Y14814   0.737   0.343   9.098 -0.1799 -0.1493  1.9024
  136SAPE  C31614815   0.873   0.252   8.936  0.7242  0.0075 -0.5493
  136SAPE  H16X14816   0.892   0.360   8.916  0.5466  0.9903  3.6327
  136SAPE  H16Y14817   0.790   0.232   8.865 -0.0883 -0.4510  0.5073
  136SAPE  C31714818   0.998   0.160   8.916 -0.1005  0.2012 -0.0270
  136SAPE  H17X14819   0.968   0.058   8.949 -2.6780  0.7168 -0.6415
  136SAPE  H17Y14820   1.080   0.200   8.980  0.2832  1.7378 -1.4110
  136SAPE  C31814821   1.046   0.164   8.773 -0.5646  0.2658  1.2719
  136SAPE  H18X14822   0.983   0.101   8.707  2.4013 -2.1062  0.5038
  136SAPE  H18Y14823   1.153   0.136   8.757 -0.9237  0.2543 -1.6915
  136SAPE  H18Z14824   1.043   0.269   8.734 -0.1897 -0.3789 -0.6227
  137SAPE     N14825   5.762   1.609  11.358 -0.6830 -0.2258 -0.4189
  137SAPE   HN114826   5.796   1.699  11.319 -0.1852 -0.1005  0.2774
  137SAPE   HN214827   5.672   1.626  11.406  0.5093  0.6857  1.6463
  137SAPE   HN314828   5.830   1.578  11.430 -2.7735 -0.3306  1.6191
  137SAPE   C1214829   5.755   1.514  11.244  0.1092  0.4838  0.0063
  137SAPE  H12A14830   5.649   1.512  11.212  0.0297  0.9228  0.2275
  137SAPE  H12B14831   5.775   1.411  11.281 -0.2309 -0.0742 -1.2938
  137SAPE   C1114832   5.869   1.550  11.150 -0.3596  0.8323 -0.0630
  137SAPE  H11A14833   5.878   1.470  11.072  0.8355  1.4488 -0.5909
  137SAPE  H11B14834   5.961   1.543  11.212 -0.6879 -1.9739  0.2658
  137SAPE     P14835   5.970   1.739  11.000 -0.4132  0.1326  0.3564
  137SAPE   O1314836   5.943   1.880  10.958  0.4037 -0.1401  0.2359
  137SAPE   O1414837   6.097   1.701  11.065 -0.1621  0.1508 -0.2546
  137SAPE   O1214838   5.852   1.681  11.091  0.4584 -0.5049 -0.1356
  137SAPE   O1114839   5.959   1.645  10.867 -0.6716 -0.5758  0.0642
  137SAPE    C114840   6.009   1.680  10.741 -0.0503 -0.4605  0.3233
  137SAPE    HA14841   6.086   1.759  10.754  0.5444 -0.1526 -3.8398
  137SAPE    HB14842   6.060   1.588  10.706  1.0773 -0.7927  2.6464
  137SAPE    C214843   5.903   1.733  10.644  1.1019  0.3955 -0.2691
  137SAPE    HS14844   5.856   1.822  10.692  1.8383 -1.5078  4.5925
  137SAPE   O2114845   5.804   1.627  10.621  0.5248 -0.1121  0.0505
  137SAPE   C2114846   5.698   1.683  10.558  0.3010  1.0846 -0.4764
  137SAPE   O2214847   5.701   1.801  10.522  0.5480  0.1523 -0.1525
  137SAPE   C2214848   5.586   1.583  10.550  0.0152  0.0190  0.0347
  137SAPE   H2R14849   5.633   1.483  10.564 -0.5549 -0.0505  1.6872
  137SAPE   H2S14850   5.507   1.606  10.625  0.6106  0.1020  0.6472
  137SAPE    C314851   5.981   1.759  10.511 -0.9188 -0.1069  0.4602
  137SAPE    HX14852   5.923   1.802  10.427  1.5240 -0.8408 -1.7349
  137SAPE    HY14853   6.013   1.658  10.477  1.9541  0.3352  1.5175
  137SAPE   O3114854   6.099   1.844  10.534 -0.4004 -0.3674 -0.2398
  137SAPE   C3114855   6.072   1.971  10.543  0.0950 -0.0201  0.3228
  137SAPE   O3214856   5.965   2.023  10.528 -0.0668 -0.1706 -0.0695
  137SAPE   C3214857   6.199   2.043  10.574 -0.0538 -0.6285  0.5369
  137SAPE   H2X14858   6.286   2.013  10.512  0.9118  2.1494  0.3706
  137SAPE   H2Y14859   6.225   2.023  10.681  2.4946  2.4874  0.6632
  137SAPE   C2314860   5.521   1.587  10.407  0.2616  0.0580 -0.3297
  137SAPE   H3R14861   5.528   1.690  10.365  0.5189  1.0450  1.9591
  137SAPE   H3S14862   5.417   1.548  10.413  0.2852  0.1372  0.9863
  137SAPE   C2414863   5.577   1.491  10.301 -0.5678  0.2905  0.7831
  137SAPE   H4R14864   5.502   1.485  10.219 -0.2757  0.5257  0.4963
  137SAPE   H4S14865   5.579   1.385  10.334 -0.0719 -0.4209 -1.3848
  137SAPE   C2514866   5.719   1.516  10.254 -0.1538 -0.7647 -0.1942
  137SAPE   H5R14867   5.786   1.430  10.268  1.2875  0.3632  0.0679
  137SAPE   C2614868   5.776   1.632  10.207  0.1713  0.2046  0.2103
  137SAPE   H6R14869   5.883   1.635  10.183  0.1417 -0.3618 -0.0111
  137SAPE   C2714870   5.710   1.762  10.189  0.1454  0.1649  0.0759
  137SAPE   H7R14871   5.722   1.827  10.278  1.5750  1.7975 -1.2507
  137SAPE   H7S14872   5.599   1.756  10.190  0.1083  0.0870  2.3910
  137SAPE   C2814873   5.762   1.838  10.065  0.1786  0.3244 -0.4057
  137SAPE   H8R14874   5.787   1.943  10.087 -0.4233  0.0223  2.0095
  137SAPE   C2914875   5.746   1.803   9.935 -0.0074 -0.0085  0.0480
  137SAPE   H9R14876   5.799   1.871   9.866  1.2494  0.2665  1.2502
  137SAPE  C21014877   5.691   1.675   9.870  0.5283 -0.0353  1.5807
  137SAPE  H10R14878   5.609   1.704   9.801  0.5395 -1.0138  1.1351
  137SAPE  H10S14879   5.648   1.612   9.951 -0.8138 -0.9665  0.2057
  137SAPE  C21114880   5.809   1.617   9.798 -1.2668 -0.5448  0.0556
  137SAPE  H11R14881   5.893   1.601   9.868 -0.9121 -0.7730 -0.4209
  137SAPE  C21214882   5.826   1.569   9.675  0.3259  0.2455 -0.0992
  137SAPE  H12R14883   5.928   1.532   9.656  0.5098  0.0820  1.0991
  137SAPE  C21314884   5.719   1.561   9.565  0.5123 -0.5441 -0.2615
  137SAPE  H13R14885   5.628   1.599   9.616  1.1690  0.5303  0.1419
  137SAPE  H13S14886   5.696   1.454   9.545 -1.6484 -0.5927  2.0038
  137SAPE  C21414887   5.742   1.633   9.434  0.0022 -0.5531 -1.0113
  137SAPE  H14R14888   5.820   1.711   9.437  0.6520 -1.2040  1.1921
  137SAPE  C21514889   5.686   1.610   9.313 -0.5251 -0.5388 -0.8070
  137SAPE  H15R14890   5.715   1.676   9.230 -3.0178  1.9985  0.1532
  137SAPE  C21614891   5.581   1.511   9.284 -0.3212  0.3897 -0.1205
  137SAPE  H16R14892   5.492   1.557   9.238 -0.2985  0.1640 -0.3914
  137SAPE  H16S14893   5.531   1.488   9.381  1.6444  2.2135  1.4253
  137SAPE  C21714894   5.631   1.379   9.208 -0.0988 -0.5016  0.3854
  137SAPE  H17R14895   5.549   1.306   9.222 -1.2365  0.2125 -1.9902
  137SAPE  H17S14896   5.724   1.349   9.260  1.6413  4.4097  0.6466
  137SAPE  C21814897   5.656   1.401   9.057 -0.1178  0.6854 -0.0657
  137SAPE  H18R14898   5.734   1.481   9.057  1.3576 -0.6819 -0.5450
  137SAPE  H18S14899   5.563   1.443   9.014 -0.0431  1.7898  0.8093
  137SAPE  C21914900   5.715   1.277   8.984  0.2343  0.1216 -0.1812
  137SAPE  H19R14901   5.635   1.200   8.984  1.4925 -1.2543  1.7040
  137SAPE  H19S14902   5.806   1.236   9.032  1.2395  0.8719 -1.3819
  137SAPE  C22014903   5.738   1.314   8.839 -0.0707 -0.3887 -0.1822
  137SAPE  H20R14904   5.823   1.383   8.820 -3.1737  3.6488 -0.6845
  137SAPE  H20S14905   5.650   1.360   8.789  0.0229  1.3472  1.1443
  137SAPE  H20T14906   5.750   1.227   8.772  0.9891 -2.6166  2.6923
  137SAPE   C3314907   6.183   2.198  10.554  0.2939  0.0661  0.1581
  137SAPE   H3X14908   6.278   2.247  10.585  0.6210  2.2698 -3.7369
  137SAPE   H3Y14909   6.099   2.251  10.604 -0.4337 -2.1356  1.3729
  137SAPE   C3414910   6.163   2.235  10.406 -1.0216 -0.5656  0.2304
  137SAPE   H4X14911   6.126   2.335  10.376  0.1906 -0.9394 -2.8670
  137SAPE   H4Y14912   6.088   2.166  10.361 -1.3565 -2.0232  2.8098
  137SAPE   C3514913   6.286   2.204  10.319 -0.3526 -0.8286 -0.3336
  137SAPE   H5X14914   6.295   2.095  10.302 -1.4353 -0.9574 -0.1083
  137SAPE   H5Y14915   6.372   2.238  10.381 -1.2313  0.9690 -0.0413
  137SAPE   C3614916   6.280   2.276  10.184  0.1061  0.9488 -0.1792
  137SAPE   H6X14917   6.302   2.382  10.211 -1.1360  0.7984  1.5782
  137SAPE   H6Y14918   6.183   2.260  10.134 -0.9133 -1.2773  2.2602
  137SAPE   C3714919   6.393   2.221  10.094 -0.2879 -0.0451 -0.2491
  137SAPE   H7X14920   6.416   2.114  10.116  2.3469  0.1843 -1.4479
  137SAPE   H7Y14921   6.483   2.275  10.129  0.0745 -1.1007  0.5022
  137SAPE   C3814922   6.366   2.256   9.955  0.1980 -0.9492 -1.0746
  137SAPE   H8X14923   6.358   2.367   9.950  1.2266 -0.9237 -4.2632
  137SAPE   H8Y14924   6.263   2.225   9.926 -0.8019  1.8948 -0.9749
  137SAPE   C3914925   6.475   2.219   9.859 -0.3799 -0.0367  0.1478
  137SAPE   H9X14926   6.495   2.110   9.860 -1.2304 -0.2359 -1.2143
  137SAPE   H9Y14927   6.561   2.280   9.893  0.8866 -0.7245 -1.6972
  137SAPE  C31014928   6.445   2.264   9.715 -0.7343 -0.7604 -0.4389
  137SAPE  H10X14929   6.433   2.374   9.720  2.7674 -0.1634 -2.2496
  137SAPE  H10Y14930   6.349   2.230   9.670 -0.1013  0.9040 -3.2712
  137SAPE  C31114931   6.567   2.236   9.621 -0.4135  0.9947  0.6749
  137SAPE  H11X14932   6.650   2.177   9.666  1.5558  1.9093 -1.5609
  137SAPE  H11Y14933   6.603   2.327   9.569  0.2859  0.6437  0.5219
  137SAPE  C31214934   6.513   2.138   9.517 -0.0935  0.6406  0.5013
  137SAPE  H12X14935   6.430   2.179   9.456  1.3382  0.7458 -1.4718
  137SAPE  H12Y14936   6.465   2.057   9.576 -0.2411  2.2002  2.6117
  137SAPE  C31314937   6.621   2.086   9.414  0.6573  0.0775 -0.4497
  137SAPE  H13X14938   6.692   2.029   9.477 -1.3315  1.0929  3.0046
  137SAPE  H13Y14939   6.673   2.172   9.368  0.8768 -1.1743 -2.6349
  137SAPE  C31414940   6.555   2.002   9.311 -0.0458  0.4729 -0.0596
  137SAPE  H14X14941   6.480   2.060   9.254  0.9307  1.7668 -0.0698
  137SAPE  H14Y14942   6.508   1.913   9.358 -0.0273 -1.0193 -2.6731
  137SAPE  C31514943   6.662   1.943   9.209 -0.2540 -0.1629 -0.3127
  137SAPE  H15X14944   6.722   1.871   9.269 -0.1762 -0.8935 -1.2516
  137SAPE  H15Y14945   6.720   2.035   9.184  1.1038  0.7052  4.7762
  137SAPE  C31614946   6.595   1.878   9.084 -0.8133  0.5030  0.8946
  137SAPE  H16X14947   6.533   1.955   9.034 -3.2800 -1.0406  1.4377
  137SAPE  H16Y14948   6.524   1.806   9.129 -2.0965  1.9138  1.2069
  137SAPE  C31714949   6.694   1.809   8.994 -0.2711  0.0599  0.1179
  137SAPE  H17X14950   6.758   1.750   9.064 -0.3685 -0.5794 -0.3221
  137SAPE  H17Y14951   6.744   1.892   8.940 -0.3666  1.7195  2.4493
  137SAPE  C31814952   6.619   1.716   8.896 -0.9869 -0.2059 -0.7073
  137SAPE  H18X14953   6.534   1.759   8.839 -1.3995  0.8463  0.6383
  137SAPE  H18Y14954   6.575   1.630   8.952 -0.5437 -0.7788 -1.2344
  137SAPE  H18Z14955   6.696   1.670   8.831  0.2012  0.6158  0.0752
  138SAPE     N14956   3.997   4.556  10.709  0.3329 -0.0718  0.2664
  138SAPE   HN114957   4.061   4.527  10.633  1.3633 -2.3922  1.9278
  138SAPE   HN214958   4.028   4.647  10.749  0.9132  0.3038 -0.9726
  138SAPE   HN314959   4.008   4.480  10.778  1.1836 -1.0506 -0.9107
  138SAPE   C1214960   3.854   4.567  10.662  0.0389 -0.5012  0.8448
  138SAPE  H12A14961   3.786   4.561  10.749  1.6883  0.9250  2.3220
  138SAPE  H12B14962   3.846   4.483  10.590  1.2773 -0.3381  0.4846
  138SAPE   C1114963   3.831   4.697  10.582 -0.2793  0.5020 -0.1087
  138SAPE  H11A14964   3.731   4.705  10.534  0.0769 -3.2593 -1.8377
  138SAPE  H11B14965   3.906   4.710  10.501  0.9764 -0.4724  0.8574
  138SAPE     P14966   3.963   4.900  10.708  0.2678 -0.4738  0.2552
  138SAPE   O1314967   3.930   5.020  10.792 -0.0731  0.3541  0.2509
  138SAPE   O1414968   4.065   4.809  10.761 -0.3383 -0.2447  0.4316
  138SAPE   O1214969   3.843   4.806  10.678 -0.3800 -0.0087  0.5646
  138SAPE   O1114970   4.006   4.940  10.558 -0.0319  0.4368  0.0629
  138SAPE    C114971   3.913   5.017  10.483  1.2021  0.3573 -0.2425
  138SAPE    HA14972   3.823   4.953  10.465  2.3860 -1.0475 -1.4811
  138SAPE    HB14973   3.879   5.106  10.540  1.2235  0.1682  0.0649
  138SAPE    C214974   3.971   5.066  10.349 -0.6366 -0.5290 -0.4462
  138SAPE    HS14975   3.901   5.116  10.279 -0.2459  0.0241 -0.4509
  138SAPE   O2114976   4.043   4.958  10.274 -0.1699 -0.1264  0.2035
  138SAPE   C2114977   3.956   4.890  10.209 -0.2883 -0.1522 -0.5302
  138SAPE   O2214978   3.835   4.903  10.215 -0.2234 -0.3318 -0.4902
  138SAPE   C2214979   4.022   4.795  10.125 -0.2625  0.4982  0.2273
  138SAPE   H2R14980   4.102   4.851  10.073 -2.0783  1.2071 -1.9992
  138SAPE   H2S14981   4.066   4.707  10.177  0.0547  0.1630 -0.5879
  138SAPE    C314982   4.086   5.177  10.387  0.2646  0.1981 -0.2879
  138SAPE    HX14983   4.177   5.127  10.428  0.4143 -0.5310 -1.4536
  138SAPE    HY14984   4.053   5.233  10.477 -1.3126 -0.2100 -0.5800
  138SAPE   O3114985   4.116   5.257  10.277  0.0775 -0.1178  0.3357
  138SAPE   C3114986   4.037   5.358  10.253 -0.1498 -0.9023  0.1926
  138SAPE   O3214987   3.932   5.382  10.309  0.0915 -0.0197  0.2362
  138SAPE   C3214988   4.109   5.437  10.141 -0.1580  0.8170  0.0885
  138SAPE   H2X14989   4.215   5.410  10.124 -0.4696 -0.4159  0.0202
  138SAPE   H2Y14990   4.109   5.544  10.174 -0.0692  0.6317  0.6946
  138SAPE   C2314991   3.924   4.737  10.013 -0.4530 -0.7492  0.7307
  138SAPE   H3R14992   3.859   4.821   9.980  1.5377 -0.0169 -1.5826
  138SAPE   H3S14993   3.864   4.668  10.077  0.2347 -0.4350  1.7449
  138SAPE   C2414994   3.991   4.664   9.900 -0.5211  0.0925 -0.0085
  138SAPE   H4R14995   3.919   4.606   9.839  1.5885 -1.5730 -1.0508
  138SAPE   H4S14996   4.053   4.588   9.952  0.0920 -0.2049 -1.1334
  138SAPE   C2514997   4.075   4.761   9.817  0.4905 -0.5041  0.5931
  138SAPE   H5R14998   4.135   4.838   9.868  0.3258  0.1500 -0.1849
  138SAPE   C2614999   4.074   4.756   9.679  0.2942 -0.2444 -0.2998
  138SAPE   H6R15000   4.137   4.831   9.629  0.4333  0.2577  0.6229
  138SAPE   C2715001   4.012   4.651   9.585  0.5159 -0.0036  0.1641
  138SAPE   H7R15002   4.015   4.689   9.481 -0.6672 -0.0155  0.1148
  138SAPE   H7S15003   3.904   4.635   9.609  0.1490 -2.2421 -2.4896
  138SAPE   C2815004   4.077   4.515   9.591  0.1017 -0.0538 -0.2531
  138SAPE   H8R15005   4.171   4.516   9.648 -0.3145  2.8088  0.5611
  138SAPE   C2915006   4.028   4.414   9.522  0.1086  0.3951 -0.0860
  138SAPE   H9R15007   4.076   4.315   9.526  0.1753  0.4522  0.6205
  138SAPE  C21015008   3.907   4.415   9.435  0.0352  0.1726 -0.0388
  138SAPE  H10R15009   3.819   4.441   9.498  0.2967  2.8819 -0.6985
  138SAPE  H10S15010   3.881   4.310   9.407  1.1810  0.1634 -1.1487
  138SAPE  C21115011   3.903   4.501   9.309  0.3889 -0.1581  0.0712
  138SAPE  H11R15012   3.837   4.589   9.311  1.6952  0.8362  0.6271
  138SAPE  C21215013   3.975   4.484   9.193  0.2294 -1.3680 -0.0208
  138SAPE  H12R15014   3.948   4.550   9.108 -1.8132 -1.7568  0.2733
  138SAPE  C21315015   4.066   4.374   9.163  0.3057  0.1223 -0.5333
  138SAPE  H13R15016   4.019   4.308   9.087  0.3143 -0.8372  0.2765
  138SAPE  H13S15017   4.082   4.310   9.252 -1.3674 -0.2857 -0.5071
  138SAPE  C21415018   4.194   4.433   9.109 -0.3331 -0.1357 -0.5013
  138SAPE  H14R15019   4.272   4.450   9.184 -1.5579 -2.2286  1.3919
  138SAPE  C21515020   4.225   4.439   8.979  0.4116  0.1769 -0.1820
  138SAPE  H15R15021   4.329   4.472   8.964  1.1944 -1.5329  1.2292
  138SAPE  C21615022   4.144   4.395   8.860 -0.3279 -0.6648  0.2886
  138SAPE  H16R15023   4.038   4.390   8.891 -0.5874  1.0067 -0.2031
  138SAPE  H16S15024   4.181   4.300   8.816 -0.4219 -0.7425  0.3794
  138SAPE  C21715025   4.164   4.512   8.752  0.2603  0.6222 -0.3313
  138SAPE  H17R15026   4.268   4.513   8.711  0.6905  3.0205  0.6152
  138SAPE  H17S15027   4.140   4.613   8.791 -0.1699  0.2735  0.3110
  138SAPE  C21815028   4.077   4.494   8.636  0.0990  0.5096 -0.1493
  138SAPE  H18R15029   3.972   4.511   8.669  0.3404  0.0624  0.8935
  138SAPE  H18S15030   4.077   4.390   8.599 -0.3832  1.6511 -3.6842
  138SAPE  C21915031   4.105   4.582   8.515 -0.2999 -0.1380 -0.3765
  138SAPE  H19R15032   4.051   4.540   8.426 -1.3399 -0.1006  0.2168
  138SAPE  H19S15033   4.215   4.573   8.510 -0.1588  0.5024  1.2141
  138SAPE  C22015034   4.083   4.732   8.534  0.0882  0.2137  0.1641
  138SAPE  H20R15035   4.159   4.790   8.476 -0.2108  1.5265  1.0486
  138SAPE  H20S15036   4.086   4.762   8.641  0.1869  1.5093 -0.1785
  138SAPE  H20T15037   3.985   4.755   8.488  0.0548 -2.2880 -1.1962
  138SAPE   C3315038   4.047   5.420  10.005  1.4709 -0.2624 -0.3693
  138SAPE   H3X15039   4.098   5.487   9.932  1.2640  0.0590 -0.2226
  138SAPE   H3Y15040   3.946   5.464  10.018  1.3631 -0.6356  0.0647
  138SAPE   C3415041   4.020   5.274   9.969  0.2408  0.0826  0.5869
  138SAPE   H4X15042   3.959   5.219  10.044  2.8122 -1.7730  1.4621
  138SAPE   H4Y15043   4.117   5.220   9.968 -0.3195 -0.9617  0.5779
  138SAPE   C3515044   3.967   5.259   9.819  1.0607  0.4404 -0.0030
  138SAPE   H5X15045   4.040   5.312   9.754  1.9733  0.5745  1.1021
  138SAPE   H5Y15046   3.871   5.314   9.816  1.3686  0.9783 -0.1218
  138SAPE   C3615047   3.935   5.114   9.775 -0.6977  0.1450  0.3015
  138SAPE   H6X15048   3.852   5.073   9.836 -0.6595 -0.4416 -0.0270
  138SAPE   H6Y15049   4.023   5.052   9.800  0.7495  0.9708 -2.2615
  138SAPE   C3715050   3.896   5.086   9.636  0.7046 -0.2291  0.1714
  138SAPE   H7X15051   3.808   5.149   9.613 -1.9309 -2.8420  2.3428
  138SAPE   H7Y15052   3.872   4.978   9.626  0.7737 -0.1583 -0.8033
  138SAPE   C3815053   3.991   5.114   9.522 -0.3695 -0.3186  0.4614
  138SAPE   H8X15054   4.097   5.107   9.555 -0.1590  1.5035  0.2430
  138SAPE   H8Y15055   3.977   5.218   9.486  0.5313  0.2860  1.7759
  138SAPE   C3915056   3.979   5.013   9.398  0.0777  0.0581  0.5730
  138SAPE   H9X15057   3.879   5.013   9.349  0.8379  1.0306 -1.0446
  138SAPE   H9Y15058   4.004   4.912   9.437  0.6075  0.0858  0.3096
  138SAPE  C31015059   4.075   5.037   9.291  0.2314  0.1070  0.0025
  138SAPE  H10X15060   4.180   5.023   9.324  0.0181 -0.1933  0.5788
  138SAPE  H10Y15061   4.070   5.134   9.238  0.5407 -0.8865 -1.9289
  138SAPE  C31115062   4.063   4.928   9.177  0.2945  0.3455 -0.4265
  138SAPE  H11X15063   4.084   4.826   9.216  0.4180  0.6150  0.2333
  138SAPE  H11Y15064   4.143   4.943   9.102 -1.3164 -0.5886 -2.4181
  138SAPE  C31215065   3.934   4.936   9.095  0.0280  1.4390 -0.2337
  138SAPE  H12X15066   3.908   5.038   9.059  0.3151  1.3262 -0.7786
  138SAPE  H12Y15067   3.858   4.902   9.169  1.6762 -1.1576  0.3850
  138SAPE  C31315068   3.931   4.837   8.969 -0.1942 -0.6266 -0.6643
  138SAPE  H13X15069   3.959   4.736   9.004 -1.3713 -1.2948 -1.5757
  138SAPE  H13Y15070   4.020   4.863   8.908  1.1515 -0.2455  1.3510
  138SAPE  C31415071   3.801   4.834   8.897  0.3544  0.1988  0.2328
  138SAPE  H14X15072   3.784   4.928   8.841 -0.5161 -1.5047 -2.5877
  138SAPE  H14Y15073   3.721   4.816   8.973  0.4853  1.4089  0.6706
  138SAPE  C31515074   3.781   4.719   8.797  0.3802  0.1248  0.2154
  138SAPE  H15X15075   3.855   4.728   8.714 -0.5571  0.6424 -0.5798
  138SAPE  H15Y15076   3.682   4.736   8.749 -0.1066  0.2192  1.2296
  138SAPE  C31615077   3.775   4.575   8.864  0.1646  0.6866  0.8404
  138SAPE  H16X15078   3.707   4.567   8.952 -0.5654  2.8360  0.5529
  138SAPE  H16Y15079   3.882   4.561   8.890  1.3240  0.4554 -3.3429
  138SAPE  C31715080   3.738   4.463   8.772 -0.1343 -0.5955  0.2991
  138SAPE  H17X15081   3.806   4.379   8.795  0.4175 -0.7945 -1.8585
  138SAPE  H17Y15082   3.757   4.488   8.666  0.7921  0.0379  0.6060
  138SAPE  C31815083   3.600   4.423   8.797 -0.1523 -0.0705 -0.5456
  138SAPE  H18X15084   3.535   4.508   8.766  0.8848  0.4722 -1.3164
  138SAPE  H18Y15085   3.569   4.395   8.899 -1.4966  0.9879 -0.6340
  138SAPE  H18Z15086   3.579   4.339   8.728  0.3705 -0.3124 -0.4165
  139SAPE     N15087   1.820   2.521  10.802  0.2278  0.4543 -0.3534
  139SAPE   HN115088   1.898   2.584  10.775 -0.3696  0.1829 -3.0787
  139SAPE   HN215089   1.738   2.574  10.839  1.6688  2.0066  0.7364
  139SAPE   HN315090   1.847   2.451  10.873 -1.5252  0.6617  0.5723
  139SAPE   C1215091   1.788   2.454  10.671  0.0023  0.5485 -0.8776
  139SAPE  H12A15092   1.701   2.385  10.670 -0.3692  0.9611  0.4926
  139SAPE  H12B15093   1.877   2.391  10.646  0.0988  0.0248  0.6508
  139SAPE   C1115094   1.770   2.549  10.558 -0.5686  0.4476  0.2964
  139SAPE  H11A15095   1.680   2.608  10.587 -0.3742  1.1047 -0.3808
  139SAPE  H11B15096   1.745   2.505  10.459 -1.4849  1.4611  0.0479
  139SAPE     P15097   1.902   2.765  10.460  0.3329  0.0323  0.1145
  139SAPE   O1315098   1.805   2.863  10.512  0.6204 -0.1400 -0.1961
  139SAPE   O1415099   2.047   2.804  10.448 -0.0138  0.1170  0.0109
  139SAPE   O1215100   1.886   2.634  10.548  0.3264  0.1021 -0.1151
  139SAPE   O1115101   1.846   2.724  10.312 -0.1612  0.2349  0.0692
  139SAPE    C115102   1.925   2.670  10.212  0.0492 -0.0339  0.4925
  139SAPE    HA15103   2.022   2.637  10.255 -0.1558  0.3868  1.2892
  139SAPE    HB15104   1.868   2.599  10.148 -2.0236  2.8733 -1.1594
  139SAPE    C215105   1.970   2.781  10.110  0.1313 -0.0227  0.0843
  139SAPE    HS15106   1.991   2.876  10.164  1.6060 -0.7580  0.8705
  139SAPE   O2115107   1.863   2.785  10.014 -0.4631 -0.2740  0.8140
  139SAPE   C2115108   1.871   2.890   9.933 -0.0466 -0.4164 -0.1532
  139SAPE   O2215109   1.957   2.972   9.941 -0.2654 -0.3368  1.0969
  139SAPE   C2215110   1.755   2.880   9.835 -0.0674 -0.1911  0.3668
  139SAPE   H2R15111   1.701   2.784   9.852 -1.0930  0.5624  1.5295
  139SAPE   H2S15112   1.677   2.955   9.862  0.0333 -0.1678  0.5963
  139SAPE    C315113   2.120   2.757  10.054 -0.0078  0.5438  0.2683
  139SAPE    HX15114   2.167   2.741  10.153  0.4554  1.8428  0.2769
  139SAPE    HY15115   2.178   2.845  10.018 -0.4890  1.1954  1.0682
  139SAPE   O3115116   2.135   2.653   9.957  0.5222  0.7080  0.1205
  139SAPE   C3115117   2.236   2.572   9.971 -0.4515 -0.2479 -0.1852
  139SAPE   O3215118   2.323   2.581  10.055 -0.0318 -0.1595  0.8297
  139SAPE   C3215119   2.248   2.468   9.859  0.1882  0.2964 -0.2785
  139SAPE   H2X15120   2.310   2.386   9.904 -1.2925 -0.0741  1.1653
  139SAPE   H2Y15121   2.298   2.519   9.774 -0.7264  1.8058  0.0631
  139SAPE   C2315122   1.780   2.923   9.688  0.2584  0.2306  0.2202
  139SAPE   H3R15123   1.836   2.838   9.645  2.0359  0.7430  1.4038
  139SAPE   H3S15124   1.845   3.014   9.691  1.8403 -0.8627  0.3808
  139SAPE   C2415125   1.667   2.937   9.593 -0.2455 -0.3897 -0.5546
  139SAPE   H4R15126   1.604   2.846   9.600 -0.2792 -0.6172 -2.8221
  139SAPE   H4S15127   1.716   2.923   9.494 -1.2013 -0.5384 -1.0122
  139SAPE   C2515128   1.583   3.069   9.596 -0.3090 -0.0218  0.1717
  139SAPE   H5R15129   1.530   3.089   9.691 -2.4861 -0.8092 -0.8085
  139SAPE   C2615130   1.584   3.160   9.502  0.2472 -0.5999 -0.1842
  139SAPE   H6R15131   1.530   3.256   9.513  3.7872  1.6951 -1.2457
  139SAPE   C2715132   1.655   3.159   9.371  0.0152  0.3802 -0.1226
  139SAPE   H7R15133   1.588   3.189   9.287  0.9463  2.3029 -0.2172
  139SAPE   H7S15134   1.698   3.058   9.351  0.5503  0.8184 -1.2633
  139SAPE   C2815135   1.778   3.250   9.374 -0.3379  0.1959 -0.1513
  139SAPE   H8R15136   1.800   3.294   9.473  2.3259  0.2123 -0.6932
  139SAPE   C2915137   1.869   3.253   9.278  0.1816  0.2458 -0.4165
  139SAPE   H9R15138   1.958   3.316   9.287 -0.2187  0.9572 -1.3028
  139SAPE  C21015139   1.871   3.178   9.149  0.3444  0.1220 -0.3331
  139SAPE  H10R15140   1.804   3.089   9.149 -0.6916  0.8577  1.2159
  139SAPE  H10S15141   1.973   3.136   9.135  0.3535 -1.1231  2.6300
  139SAPE  C21115142   1.840   3.262   9.022 -0.6780 -0.0000 -0.2093
  139SAPE  H11R15143   1.928   3.318   8.988  0.6206 -1.2040  1.0232
  139SAPE  C21215144   1.728   3.261   8.948  0.1065  0.2005  0.3044
  139SAPE  H12R15145   1.738   3.329   8.863 -3.6472  0.1431 -0.3666
  139SAPE  C21315146   1.594   3.189   8.981  0.0609  0.0664  0.3073
  139SAPE  H13R15147   1.522   3.268   9.012  1.4092  1.1470  0.8224
  139SAPE  H13S15148   1.599   3.132   9.076 -3.7673  0.1252  0.7077
  139SAPE  C21415149   1.546   3.095   8.869  0.4119 -0.0296 -0.2963
  139SAPE  H14R15150   1.559   2.988   8.893 -0.2804 -0.3549 -1.3045
  139SAPE  C21515151   1.486   3.132   8.753  0.6337 -0.4387  0.3418
  139SAPE  H15R15152   1.450   3.053   8.685 -1.3082 -2.8355  3.8491
  139SAPE  C21615153   1.449   3.274   8.705  0.2069  0.0602 -0.0229
  139SAPE  H16R15154   1.518   3.302   8.623 -0.1006 -0.7101 -0.5599
  139SAPE  H16S15155   1.489   3.343   8.782 -0.3178 -0.1964  0.4874
  139SAPE  C21715156   1.301   3.301   8.685  0.3134 -0.2246  0.3411
  139SAPE  H17R15157   1.282   3.410   8.684  0.6492 -0.1572  0.6962
  139SAPE  H17S15158   1.247   3.268   8.776  0.1865 -1.1384 -0.0541
  139SAPE  C21815159   1.223   3.234   8.563 -0.1413 -0.2591  0.2461
  139SAPE  H18R15160   1.118   3.272   8.562  0.5080  1.7324  1.4144
  139SAPE  H18S15161   1.235   3.125   8.583  1.6825  0.0513  1.0339
  139SAPE  C21915162   1.287   3.261   8.430 -0.2432 -0.6928  1.0110
  139SAPE  H19R15163   1.395   3.234   8.433 -0.2640 -1.3556 -1.6907
  139SAPE  H19S15164   1.280   3.369   8.408 -0.2885 -1.1781 -1.6516
  139SAPE  C22015165   1.239   3.193   8.297 -0.3786 -0.4311  0.7076
  139SAPE  H20R15166   1.297   3.099   8.303  0.4040  0.0844  1.4805
  139SAPE  H20S15167   1.262   3.255   8.208 -0.5414 -1.8436 -0.3464
  139SAPE  H20T15168   1.132   3.166   8.311 -0.6853  0.9607  1.1852
  139SAPE   C3315169   2.113   2.424   9.802  0.4753 -0.1976 -0.0449
  139SAPE   H3X15170   2.055   2.510   9.764 -0.8089 -1.7032 -1.6378
  139SAPE   H3Y15171   2.049   2.396   9.888 -1.1662  1.0080 -0.8376
  139SAPE   C3415172   2.124   2.324   9.685 -0.4106 -0.3999  0.5381
  139SAPE   H4X15173   2.025   2.293   9.647  0.7848 -0.8049 -2.5077
  139SAPE   H4Y15174   2.166   2.225   9.713  1.1395 -0.9958 -3.3290
  139SAPE   C3515175   2.212   2.390   9.571 -0.0240 -0.3192  0.3649
  139SAPE   H5X15176   2.319   2.386   9.600  0.3338  0.5554 -0.7688
  139SAPE   H5Y15177   2.175   2.493   9.554 -0.0135 -0.4796 -0.6783
  139SAPE   C3615178   2.190   2.305   9.447  0.1278 -0.1981  0.2931
  139SAPE   H6X15179   2.080   2.291   9.443  0.1150 -0.1981  0.5889
  139SAPE   H6Y15180   2.230   2.207   9.480  3.4752  0.5102 -1.2760
  139SAPE   C3715181   2.265   2.351   9.324  0.4630  0.2146 -0.3900
  139SAPE   H7X15182   2.370   2.339   9.356  0.2530  0.4315  0.4226
  139SAPE   H7Y15183   2.246   2.457   9.294  1.4590  0.3176 -0.6708
  139SAPE   C3815184   2.238   2.264   9.202  0.6407  0.7840  0.4495
  139SAPE   H8X15185   2.134   2.269   9.162  0.4876 -1.3675  0.4560
  139SAPE   H8Y15186   2.248   2.159   9.235 -1.4782  0.0373 -1.1168
  139SAPE   C3915187   2.331   2.287   9.084 -0.2652  0.0510 -0.3210
  139SAPE   H9X15188   2.420   2.222   9.096  0.3315  1.0659  1.0243
  139SAPE   H9Y15189   2.369   2.391   9.097 -2.1389  0.6660  0.5207
  139SAPE  C31015190   2.262   2.284   8.947  0.4437  1.1213 -0.0663
  139SAPE  H10X15191   2.219   2.183   8.930 -1.0821  2.0352 -2.1709
  139SAPE  H10Y15192   2.347   2.282   8.876  1.4925 -2.1156  1.1318
  139SAPE  C31115193   2.157   2.390   8.924 -0.3328 -0.8047 -0.0500
  139SAPE  H11X15194   2.205   2.490   8.920  2.4256 -2.0869 -1.8377
  139SAPE  H11Y15195   2.090   2.408   9.011  0.2760  5.0035 -0.3846
  139SAPE  C31215196   2.074   2.374   8.793 -0.4677  0.5716  0.4178
  139SAPE  H12X15197   1.974   2.420   8.811 -0.4081  0.3695  1.3060
  139SAPE  H12Y15198   2.041   2.268   8.783 -0.3074  0.4413  1.2443
  139SAPE  C31315199   2.128   2.427   8.653 -0.5248 -0.0939 -0.3822
  139SAPE  H13X15200   2.125   2.538   8.658  0.7328 -0.0970  1.0058
  139SAPE  H13Y15201   2.069   2.381   8.571 -1.4705 -1.1488  0.8397
  139SAPE  C31415202   2.273   2.382   8.633 -0.0931  0.2775 -0.2358
  139SAPE  H14X15203   2.286   2.272   8.637 -0.6193  0.1584 -1.3565
  139SAPE  H14Y15204   2.335   2.416   8.719  0.2506 -0.3976 -0.2072
  139SAPE  C31515205   2.331   2.441   8.503  0.1139  0.1290 -0.2985
  139SAPE  H15X15206   2.342   2.550   8.523 -0.9347  0.2689 -0.4231
  139SAPE  H15Y15207   2.262   2.414   8.420  2.7667  0.9889 -2.9415
  139SAPE  C31615208   2.464   2.374   8.466  0.2796  0.3203  0.0778
  139SAPE  H16X15209   2.543   2.396   8.541  0.5530  3.0944 -0.9229
  139SAPE  H16Y15210   2.455   2.265   8.451 -0.7541  0.2523  1.0252
  139SAPE  C31715211   2.515   2.419   8.331  0.5609 -0.2230 -0.7254
  139SAPE  H17X15212   2.446   2.387   8.249  0.0169 -3.4313  0.8667
  139SAPE  H17Y15213   2.613   2.371   8.311  0.2499 -1.9376  1.4637
  139SAPE  C31815214   2.532   2.573   8.324  0.2675  0.0975  0.7479
  139SAPE  H18X15215   2.591   2.606   8.237 -2.8197  0.4122 -1.3930
  139SAPE  H18Y15216   2.588   2.605   8.415  0.9795  0.5656  0.1497
  139SAPE  H18Z15217   2.437   2.630   8.327  0.4155  0.4854 -1.1902
  140SAPE     N15218   5.289   6.389  11.137 -0.2614  0.6253 -0.0072
  140SAPE   HN115219   5.248   6.442  11.058  1.3457  1.5086 -0.3064
  140SAPE   HN215220   5.234   6.407  11.223  0.1551 -0.6605  0.5596
  140SAPE   HN315221   5.383   6.429  11.156 -1.3759  2.7646  1.4858
  140SAPE   C1215222   5.288   6.242  11.111 -0.2934  0.5377 -0.5259
  140SAPE  H12A15223   5.180   6.216  11.110 -1.0520  3.2138  0.8102
  140SAPE  H12B15224   5.335   6.191  11.198  0.9012  2.5197  0.0583
  140SAPE   C1115225   5.367   6.215  10.979  0.1051 -0.0643  0.3245
  140SAPE  H11A15226   5.329   6.279  10.896 -1.5580 -0.6353  0.6116
  140SAPE  H11B15227   5.352   6.108  10.955  0.1232 -0.1049  0.4929
  140SAPE     P15228   5.590   6.333  10.935 -0.1469 -0.4275 -0.2029
  140SAPE   O1315229   5.512   6.455  10.971  0.0567  0.3661  0.0949
  140SAPE   O1415230   5.729   6.326  10.972 -0.2397 -0.3884  0.0417
  140SAPE   O1215231   5.512   6.218  10.994 -0.3134  0.4703  0.4199
  140SAPE   O1115232   5.574   6.313  10.781  0.0348  0.3110  0.4616
  140SAPE    C115233   5.681   6.304  10.695  0.2715 -0.2455 -0.6354
  140SAPE    HA15234   5.725   6.405  10.680 -1.5690  0.4984 -1.3708
  140SAPE    HB15235   5.764   6.247  10.742  1.0418  1.0840 -0.3313
  140SAPE    C215236   5.640   6.243  10.559  0.1847 -1.0633 -0.1824
  140SAPE    HS15237   5.579   6.322  10.510 -1.8345 -2.4566 -0.0295
  140SAPE   O2115238   5.544   6.138  10.579  0.1380  0.1995 -0.6926
  140SAPE   C2115239   5.574   6.041  10.666  0.0700 -0.3769 -0.0044
  140SAPE   O2215240   5.682   6.021  10.720  0.3368  0.1618 -0.0412
  140SAPE   C2215241   5.444   5.958  10.700 -0.0272 -0.5153  0.5750
  140SAPE   H2R15242   5.437   5.910  10.800 -1.4989 -1.2698  0.1421
  140SAPE   H2S15243   5.356   6.021  10.679 -1.1099 -0.7610  3.7790
  140SAPE    C315244   5.765   6.206  10.472  0.6877  0.3210  0.1720
  140SAPE    HX15245   5.842   6.155  10.534  4.3158 -1.5482 -5.1271
  140SAPE    HY15246   5.795   6.308  10.441  0.0139  1.3241  2.5768
  140SAPE   O3115247   5.742   6.113  10.361  0.3380  0.1642 -0.6479
  140SAPE   C3115248   5.659   6.167  10.270  0.1336 -0.4173 -0.0477
  140SAPE   O3215249   5.642   6.291  10.258 -0.2020  0.3124  0.1357
  140SAPE   C3215250   5.590   6.053  10.203  0.5827 -0.5713 -0.6302
  140SAPE   H2X15251   5.484   6.052  10.234  1.1336 -0.1908  1.4504
  140SAPE   H2Y15252   5.621   5.953  10.240 -0.8232 -0.8223 -0.0866
  140SAPE   C2315253   5.432   5.835  10.608 -0.2209 -0.0145  0.0796
  140SAPE   H3R15254   5.468   5.748  10.667 -1.5634 -0.0857  0.8169
  140SAPE   H3S15255   5.493   5.843  10.515 -0.0351 -1.6322  0.0283
  140SAPE   C2415256   5.291   5.805  10.544  0.1174 -0.8819 -0.2696
  140SAPE   H4R15257   5.257   5.900  10.498  1.4700  0.1260  0.7226
  140SAPE   H4S15258   5.222   5.784  10.629  1.2118 -2.3005  0.3172
  140SAPE   C2515259   5.282   5.691  10.454 -0.9623  0.0154  0.9623
  140SAPE   H5R15260   5.271   5.592  10.500 -0.2000 -1.2997 -1.5173
  140SAPE   C2615261   5.277   5.697  10.316 -1.1866  0.5437 -0.5621
  140SAPE   H6R15262   5.259   5.609  10.253  0.1437  0.0053 -0.2075
  140SAPE   C2715263   5.302   5.816  10.241 -0.1862 -0.2216  0.1181
  140SAPE   H7R15264   5.368   5.789  10.155 -1.8477 -1.3150 -0.8632
  140SAPE   H7S15265   5.369   5.873  10.308 -1.0463 -0.5239  1.2652
  140SAPE   C2815266   5.183   5.903  10.204  0.5079  0.6171  0.2830
  140SAPE   H8R15267   5.129   5.951  10.287 -0.1635  1.9638 -0.9038
  140SAPE   C2915268   5.143   5.936  10.080 -0.0841 -0.5178  0.2519
  140SAPE   H9R15269   5.068   6.014  10.065  0.0190 -0.2150  1.2527
  140SAPE  C21015270   5.205   5.885   9.950 -0.6272  0.4973 -0.7082
  140SAPE  H10R15271   5.315   5.890   9.968 -1.1169  1.7465  2.5069
  140SAPE  H10S15272   5.203   5.959   9.867  2.8711  2.6663  0.9048
  140SAPE  C21115273   5.163   5.748   9.900 -0.3076  0.0566 -0.2926
  140SAPE  H11R15274   5.107   5.685   9.972 -1.9037  0.7344 -0.8951
  140SAPE  C21215275   5.202   5.682   9.784 -0.1593 -0.1612 -0.5282
  140SAPE  H12R15276   5.177   5.575   9.774  1.3238 -0.6928  1.1049
  140SAPE  C21315277   5.303   5.735   9.680  0.6965 -0.3142 -0.3984
  140SAPE  H13R15278   5.392   5.669   9.677 -0.5856 -2.1965  0.7519
  140SAPE  H13S15279   5.336   5.835   9.717  1.4843 -1.3161  1.8095
  140SAPE  C21415280   5.244   5.747   9.539  0.0579  0.0660  0.1062
  140SAPE  H14R15281   5.182   5.836   9.519 -0.2871 -0.1486  0.2032
  140SAPE  C21515282   5.279   5.665   9.435 -0.5397  0.5544 -0.1825
  140SAPE  H15R15283   5.233   5.688   9.338 -0.3173  0.9693 -0.1927
  140SAPE  C21615284   5.369   5.536   9.446  0.2258 -0.3246 -0.1799
  140SAPE  H16R15285   5.334   5.472   9.530 -0.4146  3.0277  2.3469
  140SAPE  H16S15286   5.474   5.567   9.464  0.9321 -2.4691 -0.3542
  140SAPE  C21715287   5.380   5.449   9.318 -0.1651  0.1039  0.6758
  140SAPE  H17R15288   5.487   5.445   9.288 -1.0985 -0.3808 -3.1844
  140SAPE  H17S15289   5.321   5.508   9.244 -1.0615 -1.3479  0.1871
  140SAPE  C21815290   5.327   5.303   9.329  0.5450 -0.2984 -0.0094
  140SAPE  H18R15291   5.228   5.319   9.377  0.2272 -0.2119 -0.6731
  140SAPE  H18S15292   5.393   5.259   9.406 -0.2575 -1.4686  0.0414
  140SAPE  C21915293   5.320   5.213   9.200  0.4330  0.1611 -0.0670
  140SAPE  H19R15294   5.258   5.122   9.218 -0.6435  1.0941  1.1345
  140SAPE  H19S15295   5.423   5.182   9.171  0.1571 -1.2180  0.3532
  140SAPE  C22015296   5.258   5.291   9.084  0.1524 -0.3323  0.5247
  140SAPE  H20R15297   5.252   5.222   8.997 -1.5120  0.0538  0.2891
  140SAPE  H20S15298   5.328   5.375   9.062  0.1108 -0.5240 -0.3372
  140SAPE  H20T15299   5.155   5.324   9.112  0.2747  0.1778  0.3917
  140SAPE   C3315300   5.609   6.072  10.045  0.0804  0.3127 -0.6256
  140SAPE   H3X15301   5.616   6.182  10.032  0.5571  0.5362  1.2100
  140SAPE   H3Y15302   5.511   6.042  10.000 -1.3931  1.1006  1.8461
  140SAPE   C3415303   5.734   6.006   9.980  0.2620  0.2471 -0.2751
  140SAPE   H4X15304   5.767   5.918  10.038 -1.1140 -1.1628 -1.5153
  140SAPE   H4Y15305   5.824   6.067  10.004  0.9093 -0.3236 -1.1921
  140SAPE   C3515306   5.733   5.981   9.831  0.4557 -0.1954  0.0068
  140SAPE   H5X15307   5.640   5.922   9.814  0.0225  0.7802 -1.0978
  140SAPE   H5Y15308   5.818   5.914   9.804 -0.2437 -1.8327  1.6063
  140SAPE   C3615309   5.737   6.111   9.747 -0.3151  0.7218  0.4005
  140SAPE   H6X15310   5.832   6.165   9.770 -0.4515  2.7008 -2.9838
  140SAPE   H6Y15311   5.652   6.175   9.781 -2.2567 -1.5790  0.0971
  140SAPE   C3715312   5.729   6.089   9.597 -0.5562  0.5604  0.1548
  140SAPE   H7X15313   5.818   6.027   9.571 -0.9603 -0.1915  0.5331
  140SAPE   H7Y15314   5.744   6.181   9.537  2.4309 -0.4907 -0.8995
  140SAPE   C3815315   5.607   6.017   9.553  0.2761 -0.5722 -0.4224
  140SAPE   H8X15316   5.521   6.072   9.596  1.6353  0.5928  0.9415
  140SAPE   H8Y15317   5.612   5.915   9.598  0.1161 -0.7240 -0.7450
  140SAPE   C3915318   5.599   5.993   9.405 -0.0064 -0.4793  0.1758
  140SAPE   H9X15319   5.581   6.090   9.353 -1.4668 -1.5912 -1.5274
  140SAPE   H9Y15320   5.509   5.938   9.371  0.4283 -1.8250  1.1198
  140SAPE  C31015321   5.717   5.933   9.326 -0.5096  0.4353  0.0581
  140SAPE  H10X15322   5.723   5.825   9.349 -4.0881 -0.1596 -1.1870
  140SAPE  H10Y15323   5.813   5.967   9.372  0.0083 -1.2094  0.2476
  140SAPE  C31115324   5.735   5.950   9.176 -0.0865  0.7601  0.9199
  140SAPE  H11X15325   5.763   6.054   9.150 -0.2665  0.0217 -2.8220
  140SAPE  H11Y15326   5.639   5.926   9.127  0.3812  0.0013  0.3487
  140SAPE  C31215327   5.838   5.863   9.100  0.8580 -0.3123 -0.9180
  140SAPE  H12X15328   5.815   5.756   9.117 -2.7365  0.5666  0.8671
  140SAPE  H12Y15329   5.943   5.886   9.128  0.5420  0.2838 -0.1732
  140SAPE  C31315330   5.841   5.886   8.954  0.0891  0.4743 -0.0077
  140SAPE  H13X15331   5.934   5.853   8.904 -1.5473 -0.6979 -2.4765
  140SAPE  H13Y15332   5.817   5.992   8.930 -2.8222 -0.0934  0.0491
  140SAPE  C31415333   5.729   5.806   8.887  0.5024  0.5540 -0.4609
  140SAPE  H14X15334   5.635   5.790   8.943  0.6922 -0.6587 -0.4593
  140SAPE  H14Y15335   5.759   5.700   8.879  0.4572  0.4712  0.4443
  140SAPE  C31515336   5.702   5.863   8.744  0.1795 -0.3826 -0.4170
  140SAPE  H15X15337   5.798   5.881   8.691 -0.2942  0.6215 -0.9774
  140SAPE  H15Y15338   5.663   5.967   8.751  3.6309  0.9315  1.7283
  140SAPE  C31615339   5.598   5.781   8.671 -0.6230  0.3387  0.1965
  140SAPE  H16X15340   5.502   5.786   8.727 -1.2448 -1.8635 -0.5776
  140SAPE  H16Y15341   5.632   5.676   8.682  0.4307  0.8647  2.5417
  140SAPE  C31715342   5.585   5.800   8.514 -0.1530 -1.1648  0.1230
  140SAPE  H17X15343   5.543   5.901   8.492  2.7523  0.2796  0.7141
  140SAPE  H17Y15344   5.518   5.728   8.463 -0.4047 -0.3582 -0.7118
  140SAPE  C31815345   5.719   5.803   8.445 -0.4943 -0.3441  0.5632
  140SAPE  H18X15346   5.732   5.705   8.395  0.5273 -1.0469  2.1229
  140SAPE  H18Y15347   5.805   5.824   8.513 -0.9001 -0.9266  1.2809
  140SAPE  H18Z15348   5.709   5.876   8.362 -1.3963 -2.7447 -1.5434
  141SAPE     N15349   5.227   1.086  11.051 -0.0067  0.5884 -0.8511
  141SAPE   HN115350   5.305   1.137  11.097 -0.0645  1.1708 -1.3809
  141SAPE   HN215351   5.191   1.046  11.140 -0.1183  0.6125 -0.8863
  141SAPE   HN315352   5.259   1.015  10.982 -0.6165 -2.4192  1.7073
  141SAPE   C1215353   5.116   1.177  10.998  0.1109  0.2335 -0.4243
  141SAPE  H12A15354   5.174   1.262  10.955  1.0964 -0.3978 -0.3739
  141SAPE  H12B15355   5.056   1.225  11.078 -0.7611  0.4500 -1.1924
  141SAPE   C1115356   5.034   1.114  10.888 -0.0186 -0.0997 -0.2565
  141SAPE  H11A15357   5.093   1.081  10.800 -2.0067 -0.0232 -1.6717
  141SAPE  H11B15358   4.967   1.196  10.854  0.6973  0.8521  0.5443
  141SAPE     P15359   4.968   0.862  10.911  0.1459  0.3863  0.3562
  141SAPE   O1315360   5.101   0.820  10.960 -0.4404 -0.3011  0.1290
  141SAPE   O1415361   4.854   0.779  10.957  0.1297  0.1067  0.3327
  141SAPE   O1215362   4.952   1.013  10.945 -0.5609 -0.0986 -0.0638
  141SAPE   O1115363   4.977   0.866  10.752 -0.2141 -0.3970 -0.6869
  141SAPE    C115364   4.860   0.905  10.677  0.1318 -0.6461  0.0496
  141SAPE    HA15365   4.774   0.840  10.703  0.4471 -2.5448 -3.0946
  141SAPE    HB15366   4.830   1.012  10.686 -0.4839 -0.5898 -2.2336
  141SAPE    C215367   4.887   0.869  10.524 -0.1583 -0.1662  0.2035
  141SAPE    HS15368   4.800   0.910  10.469  1.4845  1.7686 -1.0787
  141SAPE   O2115369   4.896   0.729  10.494  0.2908  0.1545 -0.3899
  141SAPE   C2115370   4.782   0.653  10.495 -0.5520  0.0937 -0.8887
  141SAPE   O2215371   4.673   0.690  10.525 -0.3791 -1.2571 -0.8343
  141SAPE   C2215372   4.810   0.510  10.451  0.1863  0.1617 -0.0618
  141SAPE   H2R15373   4.918   0.482  10.458  0.1183  0.1615  1.4521
  141SAPE   H2S15374   4.754   0.450  10.526  2.4355 -1.3278  0.5641
  141SAPE    C315375   5.010   0.940  10.472  0.4703 -0.2344  0.7211
  141SAPE    HX15376   5.096   0.896  10.526  0.9683  0.7802  0.7690
  141SAPE    HY15377   5.001   1.050  10.486 -0.1655 -0.1692 -0.1039
  141SAPE   O3115378   5.015   0.935  10.329 -0.3076 -0.0377 -0.5872
  141SAPE   C3115379   5.106   0.851  10.281  0.2246 -0.0045  0.0103
  141SAPE   O3215380   5.187   0.793  10.341 -0.0131 -0.1791  0.0131
  141SAPE   C3215381   5.080   0.840  10.128 -0.5846 -1.1364 -0.0477
  141SAPE   H2X15382   5.019   0.928  10.100 -0.9598 -0.5302  2.4430
  141SAPE   H2Y15383   5.023   0.744  10.128  2.0309 -2.8344 -1.8447
  141SAPE   C2315384   4.763   0.476  10.310 -0.5010 -0.1953  0.6379
  141SAPE   H3R15385   4.849   0.506  10.247 -0.7946  1.8167  1.1221
  141SAPE   H3S15386   4.674   0.532  10.274  0.8497 -0.0554 -2.8699
  141SAPE   C2415387   4.752   0.322  10.282  0.1148  0.2657 -0.4061
  141SAPE   H4R15388   4.838   0.284  10.341 -1.6735 -1.0092  1.5586
  141SAPE   H4S15389   4.773   0.305  10.175 -1.0767  2.2990 -1.0346
  141SAPE   C2515390   4.625   0.254  10.335 -0.1563 -0.3089  1.2729
  141SAPE   H5R15391   4.636   0.205  10.433 -0.7674  0.2168  1.6123
  141SAPE   C2615392   4.514   0.231  10.264 -1.3826  0.2556  0.2541
  141SAPE   H6R15393   4.434   0.178  10.317 -2.1075  1.8115  0.7645
  141SAPE   C2715394   4.495   0.277  10.118  0.2793 -0.3482 -0.3194
  141SAPE   H7R15395   4.551   0.199  10.063  0.7746 -1.3162  1.4699
  141SAPE   H7S15396   4.549   0.372  10.101  2.3628 -1.1221  1.5933
  141SAPE   C2815397   4.354   0.311  10.070  0.0355  0.4025  0.5190
  141SAPE   H8R15398   4.317   0.409  10.103 -1.6492  0.3903 -1.2022
  141SAPE   C2915399   4.272   0.240   9.986 -0.2827 -0.2166 -0.5585
  141SAPE   H9R15400   4.168   0.259   9.955  0.1193  0.9268 -1.2609
  141SAPE  C21015401   4.310   0.108   9.921  0.4451  0.0280 -0.1722
  141SAPE  H10R15402   4.397   0.073   9.979  0.7531 -2.0484 -1.7868
  141SAPE  H10S15403   4.353   0.127   9.820  3.3828  1.9460  1.2849
  141SAPE  C21115404   4.207  -0.003   9.906 -0.1437  1.0814  0.1077
  141SAPE  H11R15405   4.184  -0.054  10.001  0.3266  1.9958  0.7306
  141SAPE  C21215406   4.136  -0.032   9.802  0.6431 -0.2428 -0.0562
  141SAPE  H12R15407   4.069  -0.120   9.803  1.2301 -0.6978  0.4057
  141SAPE  C21315408   4.165   0.034   9.675  0.1496 -0.2226  0.4026
  141SAPE  H13R15409   4.208   0.135   9.691  0.4275 -0.1660 -0.6191
  141SAPE  H13S15410   4.066   0.043   9.624  0.6224 -3.0470 -1.2754
  141SAPE  C21415411   4.260  -0.022   9.573  0.4471  0.3103 -0.0400
  141SAPE  H14R15412   4.364  -0.040   9.603 -0.6021 -0.0664  3.8878
  141SAPE  C21515413   4.231  -0.060   9.445  0.5257 -0.4398 -0.3390
  141SAPE  H15R15414   4.307  -0.112   9.386 -1.6399 -1.2645 -2.5991
  141SAPE  C21615415   4.098  -0.061   9.364 -0.3071  0.9188  0.1558
  141SAPE  H16R15416   4.012  -0.014   9.417 -0.8901  1.4879 -1.2576
  141SAPE  H16S15417   4.071  -0.167   9.345 -0.5747  0.5083  2.5024
  141SAPE  C21715418   4.110   0.014   9.233  0.0461 -0.2483 -0.2253
  141SAPE  H17R15419   4.144   0.115   9.265 -0.4357 -0.9056  2.6223
  141SAPE  H17S15420   4.007   0.016   9.191  0.8317 -2.0199 -2.4006
  141SAPE  C21815421   4.198  -0.042   9.124  0.3361 -0.0035 -0.2239
  141SAPE  H18R15422   4.299  -0.074   9.159  0.3271 -0.4777 -0.6290
  141SAPE  H18S15423   4.219   0.039   9.050 -1.2854  1.3161  0.6827
  141SAPE  C21915424   4.134  -0.154   9.043 -0.2193  0.6351 -0.0502
  141SAPE  H19R15425   4.049  -0.107   8.989 -0.1724 -0.0881 -0.7792
  141SAPE  H19S15426   4.097  -0.239   9.104 -0.2236  0.4839 -0.2583
  141SAPE  C22015427   4.232  -0.220   8.949 -0.7611 -0.0299  0.2369
  141SAPE  H20R15428   4.181  -0.272   8.865  0.1495  1.5819 -1.3856
  141SAPE  H20S15429   4.297  -0.296   8.995  1.7670  1.6012 -0.4067
  141SAPE  H20T15430   4.305  -0.148   8.905 -1.1001 -0.2124 -0.6422
  141SAPE   C3315431   5.211   0.828  10.037 -0.5754  0.4552  0.4757
  141SAPE   H3X15432   5.273   0.743  10.074  2.6276  1.7175 -1.5297
  141SAPE   H3Y15433   5.272   0.921  10.047 -0.8764  0.6137  0.8556
  141SAPE   C3415434   5.171   0.808   9.890  0.2621 -0.2497 -0.5413
  141SAPE   H4X15435   5.066   0.840   9.870  0.3231 -1.7541 -3.7433
  141SAPE   H4Y15436   5.159   0.702   9.860  2.1443 -0.5498 -0.3345
  141SAPE   C3515437   5.267   0.881   9.791 -0.1944  0.2212 -0.3290
  141SAPE   H5X15438   5.368   0.866   9.835 -0.0193  0.8573 -0.5053
  141SAPE   H5Y15439   5.230   0.985   9.804  0.7205  0.1614  4.3685
  141SAPE   C3615440   5.257   0.822   9.648  0.0090  0.0664  0.6985
  141SAPE   H6X15441   5.279   0.714   9.633  0.2066 -0.1073  2.1121
  141SAPE   H6Y15442   5.333   0.877   9.588  2.2167 -2.9770  0.4529
  141SAPE   C3715443   5.123   0.859   9.585 -1.0349 -0.1019  0.2627
  141SAPE   H7X15444   5.090   0.960   9.618  0.2218  0.3853  0.1150
  141SAPE   H7Y15445   5.049   0.783   9.617  0.8533 -1.3593  1.9705
  141SAPE   C3815446   5.142   0.850   9.433  0.2764 -0.1607  0.7617
  141SAPE   H8X15447   5.232   0.903   9.396  1.1811 -2.4769 -0.4958
  141SAPE   H8Y15448   5.052   0.892   9.383  1.2173 -0.7314 -1.4990
  141SAPE   C3915449   5.164   0.714   9.371  0.1556  0.0982 -0.7132
  141SAPE   H9X15450   5.070   0.658   9.391 -0.4804  1.2579 -0.3658
  141SAPE   H9Y15451   5.249   0.673   9.429  0.2368 -0.4257 -1.1986
  141SAPE  C31015452   5.195   0.719   9.220  0.0972  0.3185  0.3504
  141SAPE  H10X15453   5.212   0.618   9.177  0.3931  0.7315 -0.5119
  141SAPE  H10Y15454   5.291   0.769   9.194  0.0440 -1.0390 -2.9685
  141SAPE  C31115455   5.076   0.765   9.134  0.0576  0.1415 -0.7430
  141SAPE  H11X15456   5.061   0.874   9.146 -0.4174  0.1460 -1.3316
  141SAPE  H11Y15457   4.983   0.720   9.176 -0.5395  1.5262 -0.5194
  141SAPE  C31215458   5.102   0.732   8.986  0.1515  0.3924  0.9208
  141SAPE  H12X15459   5.163   0.639   8.982 -1.5177 -0.7280  0.6031
  141SAPE  H12Y15460   5.172   0.811   8.951 -0.8619  1.7650  1.8927
  141SAPE  C31315461   4.975   0.715   8.902 -1.0464  0.2775 -0.5053
  141SAPE  H13X15462   5.013   0.708   8.797  1.6767 -0.8485  0.4513
  141SAPE  H13Y15463   4.911   0.804   8.920 -0.1934  0.6926  0.5670
  141SAPE  C31415464   4.899   0.592   8.950  0.6801 -0.0192  0.6165
  141SAPE  H14X15465   4.852   0.602   9.050  0.3475 -2.1608  0.7271
  141SAPE  H14Y15466   4.976   0.512   8.951  0.9330  0.2091 -0.0426
  141SAPE  C31515467   4.788   0.530   8.853  0.1834 -0.4831 -0.2813
  141SAPE  H15X15468   4.843   0.487   8.767 -0.4388 -1.6112 -0.1294
  141SAPE  H15Y15469   4.722   0.614   8.824 -1.4792 -1.2961  0.9401
  141SAPE  C31615470   4.704   0.418   8.917 -0.5100  0.4546 -0.3798
  141SAPE  H16X15471   4.646   0.457   9.002  2.0889  2.4806  0.6107
  141SAPE  H16Y15472   4.768   0.335   8.953 -2.3748 -0.7984  0.1629
  141SAPE  C31715473   4.617   0.350   8.816  0.5315  0.1312  0.5906
  141SAPE  H17X15474   4.667   0.334   8.718  0.8819  0.8792  0.6396
  141SAPE  H17Y15475   4.530   0.412   8.784 -0.8200 -0.9113  2.0761
  141SAPE  C31815476   4.543   0.224   8.867  0.3810  0.0236 -0.1926
  141SAPE  H18X15477   4.621   0.146   8.879  1.9375  1.4540 -0.6021
  141SAPE  H18Y15478   4.470   0.182   8.795  0.7804 -1.8223  0.4236
  141SAPE  H18Z15479   4.496   0.251   8.964 -3.1198  1.3586 -2.1102
  142SAPE     N15480   6.294   4.525  10.769  0.4447  0.0882  0.2535
  142SAPE   HN115481   6.315   4.561  10.865  1.0033  0.4962 -0.0189
  142SAPE   HN215482   6.303   4.607  10.706 -0.5416  1.2256  1.5091
  142SAPE   HN315483   6.199   4.485  10.763  0.3437  0.2810  0.5359
  142SAPE   C1215484   6.400   4.425  10.730  0.0425  0.0699 -0.2169
  142SAPE  H12A15485   6.368   4.394  10.628 -2.0168  0.2634  0.3330
  142SAPE  H12B15486   6.384   4.334  10.791 -0.4677 -2.5126 -3.8880
  142SAPE   C1115487   6.535   4.485  10.757  0.4045 -0.3880 -0.5602
  142SAPE  H11A15488   6.548   4.577  10.695 -0.5983 -1.4193 -2.4019
  142SAPE  H11B15489   6.617   4.414  10.735  0.5651 -0.7784  1.1814
  142SAPE     P15490   6.687   4.549  10.956  0.0514 -0.0913 -0.1145
  142SAPE   O1315491   6.718   4.691  10.938  0.6425  0.1319  0.4209
  142SAPE   O1415492   6.699   4.494  11.098 -0.2998  0.9795  0.0937
  142SAPE   O1215493   6.547   4.514  10.898  0.6055  0.0347 -0.2338
  142SAPE   O1115494   6.790   4.476  10.863 -0.2422 -0.1225 -0.5439
  142SAPE    C115495   6.922   4.539  10.828  1.3522  0.2192  0.2182
  142SAPE    HA15496   6.936   4.638  10.876 -0.6624  1.1979 -1.0448
  142SAPE    HB15497   7.005   4.472  10.860  0.8864 -0.3315  0.2754
  142SAPE    C215498   6.922   4.569  10.675  0.2805  0.0436  0.5177
  142SAPE    HS15499   6.868   4.665  10.660 -1.1739 -0.6388  1.1548
  142SAPE   O2115500   6.854   4.461  10.608 -0.3697 -0.2365  0.7688
  142SAPE   C2115501   6.795   4.492  10.486  0.6509  0.5325 -0.5323
  142SAPE   O2215502   6.783   4.606  10.452  0.1733 -0.1513  0.1526
  142SAPE   C2215503   6.757   4.374  10.398 -0.0449 -0.1590 -0.3746
  142SAPE   H2R15504   6.807   4.281  10.432  2.5207  0.8756 -1.0921
  142SAPE   H2S15505   6.646   4.362  10.404  0.0855 -0.8381  2.1496
  142SAPE    C315506   7.068   4.601  10.616  0.3232  0.0678  0.4224
  142SAPE    HX15507   7.120   4.504  10.628 -1.5510 -0.9826  0.4964
  142SAPE    HY15508   7.121   4.677  10.678  1.4957 -0.3754 -0.0070
  142SAPE   O3115509   7.063   4.638  10.475  0.4447 -0.3100 -0.4165
  142SAPE   C3115510   7.037   4.771  10.450 -0.0054 -0.2911  0.7490
  142SAPE   O3215511   7.031   4.856  10.539 -0.5119  0.0053  0.5494
  142SAPE   C3215512   7.027   4.787  10.302  0.2519  0.0949  0.3718
  142SAPE   H2X15513   6.920   4.789  10.270 -0.0915 -3.2287  0.9402
  142SAPE   H2Y15514   7.069   4.698  10.250  0.0716  1.0048 -1.4238
  142SAPE   C2315515   6.789   4.382  10.247  0.6307 -0.0268  0.5184
  142SAPE   H3R15516   6.779   4.485  10.205  1.7321  0.4917  1.4921
  142SAPE   H3S15517   6.701   4.338  10.195 -0.6097  0.5077  2.0673
  142SAPE   C2415518   6.916   4.307  10.204 -0.1139 -0.2321 -0.4420
  142SAPE   H4R15519   6.914   4.303  10.093 -0.7207  0.9774 -0.4909
  142SAPE   H4S15520   6.905   4.202  10.240  0.3076  0.5124  2.0562
  142SAPE   C2515521   7.037   4.375  10.266 -0.8663  0.0806 -0.5976
  142SAPE   H5R15522   7.045   4.379  10.376 -1.7077  2.6156 -0.5728
  142SAPE   C2615523   7.137   4.430  10.199 -0.0745  0.4270  0.3757
  142SAPE   H6R15524   7.218   4.479  10.256  1.4781  1.6914 -2.6980
  142SAPE   C2715525   7.157   4.442  10.051  0.1486  0.3361  0.8041
  142SAPE   H7R15526   7.116   4.350  10.003  0.9581 -0.1244  0.9700
  142SAPE   H7S15527   7.267   4.443  10.036  0.3285  0.1919  2.0665
  142SAPE   C2815528   7.117   4.566   9.982 -0.7353 -0.6394  1.2508
  142SAPE   H8R15529   7.137   4.662  10.032 -0.2784  0.6241 -1.2025
  142SAPE   C2915530   7.046   4.571   9.867 -0.4933 -0.4936 -0.2729
  142SAPE   H9R15531   7.030   4.668   9.818  0.4270 -1.2211 -2.1026
  142SAPE  C21015532   7.009   4.446   9.788 -0.4683 -0.3324  0.1860
  142SAPE  H10R15533   6.969   4.373   9.861  1.1008  0.0461  1.4639
  142SAPE  H10S15534   7.098   4.404   9.737  0.3338  0.7035  0.6946
  142SAPE  C21115535   6.902   4.478   9.685 -0.4025 -0.2268 -0.0940
  142SAPE  H11R15536   6.804   4.494   9.731 -1.0351 -0.8636 -1.1869
  142SAPE  C21215537   6.913   4.484   9.554  0.4677  0.0886  0.1499
  142SAPE  H12R15538   6.821   4.473   9.495  1.4980 -2.2619 -1.1919
  142SAPE  C21315539   7.044   4.462   9.481  0.3490 -0.6900  0.7742
  142SAPE  H13R15540   7.032   4.402   9.388 -2.1940 -0.8171  1.1199
  142SAPE  H13S15541   7.114   4.402   9.542  0.3358  0.4992  2.0283
  142SAPE  C21415542   7.109   4.602   9.459 -0.4998 -0.5589 -0.0063
  142SAPE  H14R15543   7.141   4.648   9.553 -0.5737 -1.9386  0.7229
  142SAPE  C21515544   7.139   4.665   9.340  0.0852  0.0045 -0.6092
  142SAPE  H15R15545   7.184   4.765   9.344  1.2202 -0.3403 -3.1339
  142SAPE  C21615546   7.106   4.617   9.203  0.1863 -0.4848  0.1080
  142SAPE  H16R15547   7.018   4.674   9.167  1.3012  0.6661 -0.8555
  142SAPE  H16S15548   7.080   4.509   9.208 -0.0711 -0.4195  0.1900
  142SAPE  C21715549   7.223   4.624   9.109 -0.4096  0.4329 -0.3816
  142SAPE  H17R15550   7.311   4.576   9.159  0.2498  2.1376  0.1680
  142SAPE  H17S15551   7.254   4.722   9.068 -5.3905  1.6766 -1.7365
  142SAPE  C21815552   7.200   4.535   8.981  1.1164  0.5976 -0.9600
  142SAPE  H18R15553   7.112   4.580   8.930  0.6790  3.3971  1.9465
  142SAPE  H18S15554   7.172   4.430   9.006  2.3326  0.9282  2.3004
  142SAPE  C21915555   7.314   4.513   8.878  0.8617  0.1324  0.1472
  142SAPE  H19R15556   7.379   4.434   8.920  1.2947  0.8805  0.9142
  142SAPE  H19S15557   7.374   4.604   8.854  0.7673 -0.5920 -3.4794
  142SAPE  C22015558   7.269   4.460   8.738  0.3660 -0.1891 -0.0155
  142SAPE  H20R15559   7.190   4.523   8.693 -0.9299 -1.6542  0.1429
  142SAPE  H20S15560   7.213   4.366   8.756 -3.3806  2.0141  0.9046
  142SAPE  H20T15561   7.357   4.442   8.672 -0.8606 -2.9525 -1.0554
  142SAPE   C3315562   7.091   4.899  10.235 -0.0964  0.6022  0.1093
  142SAPE   H3X15563   7.197   4.869  10.226 -0.8519 -1.9879 -1.3781
  142SAPE   H3Y15564   7.068   4.993  10.288  0.4553  1.8641 -1.7986
  142SAPE   C3415565   7.038   4.935  10.096 -0.5645  0.3942 -0.1586
  142SAPE   H4X15566   6.932   4.961  10.112 -0.3695  0.8968  0.3339
  142SAPE   H4Y15567   7.054   4.855  10.020  1.1106  0.6031 -0.0692
  142SAPE   C3515568   7.106   5.060  10.039 -0.3371  0.0498  0.5953
  142SAPE   H5X15569   7.213   5.037  10.022  0.1191  0.1862  3.0042
  142SAPE   H5Y15570   7.114   5.141  10.114  1.9812  0.2513  0.1969
  142SAPE   C3615571   7.041   5.121   9.909 -0.3163 -0.2780  0.0108
  142SAPE   H6X15572   7.091   5.220   9.895 -0.7462  0.0288  0.5699
  142SAPE   H6Y15573   6.936   5.150   9.930 -0.7446 -1.4597 -0.4430
  142SAPE   C3715574   7.048   5.044   9.781  0.1955  0.2048  0.3279
  142SAPE   H7X15575   7.002   4.944   9.794 -1.2171  0.8419  0.4675
  142SAPE   H7Y15576   7.151   5.028   9.743 -0.4761 -0.3398 -1.4000
  142SAPE   C3815577   6.970   5.113   9.674 -0.5033 -0.6335 -0.5556
  142SAPE   H8X15578   6.979   5.224   9.675  1.3721 -0.7253 -2.3098
  142SAPE   H8Y15579   6.862   5.089   9.684 -0.5767 -0.1184 -0.0292
  142SAPE   C3915580   7.016   5.065   9.540  0.3063 -0.8888  0.3357
  142SAPE   H9X15581   7.023   4.954   9.538  0.1211 -0.8987 -1.5138
  142SAPE   H9Y15582   7.115   5.109   9.517 -0.0056  1.1596  2.5267
  142SAPE  C31015583   6.921   5.104   9.429 -0.1618 -0.0083  0.5028
  142SAPE  H10X15584   6.939   5.209   9.397 -2.2084  0.0761 -0.5663
  142SAPE  H10Y15585   6.818   5.091   9.467  0.0182 -1.8769  0.4508
  142SAPE  C31115586   6.934   5.004   9.302  0.0589 -0.0098  0.3534
  142SAPE  H11X15587   6.844   5.028   9.242 -0.1878  0.8557  1.0507
  142SAPE  H11Y15588   6.927   4.900   9.342 -2.1686 -0.4639 -1.0168
  142SAPE  C31215589   7.054   5.027   9.217 -0.0120  0.1837  1.0090
  142SAPE  H12X15590   7.092   4.931   9.176 -0.4597 -0.1440  1.3604
  142SAPE  H12Y15591   7.140   5.069   9.274  1.2821 -0.5481 -0.3294
  142SAPE  C31315592   7.029   5.117   9.097 -0.8975 -0.5494 -1.1425
  142SAPE  H13X15593   6.982   5.208   9.141 -0.8781 -1.6879  1.3673
  142SAPE  H13Y15594   6.950   5.067   9.037 -1.5035 -0.7740 -0.1697
  142SAPE  C31415595   7.151   5.140   9.012 -0.0673 -0.2374 -0.5590
  142SAPE  H14X15596   7.216   5.204   9.076 -2.7694  3.3111 -1.0548
  142SAPE  H14Y15597   7.110   5.183   8.918 -2.5650 -1.9081 -0.3284
  142SAPE  C31515598   7.209   5.006   8.961 -0.6368 -0.0256  0.4656
  142SAPE  H15X15599   7.120   4.960   8.913 -1.7960  0.8075  1.7133
  142SAPE  H15Y15600   7.249   4.940   9.041  0.8376  1.1533  0.7523
  142SAPE  C31615601   7.320   5.029   8.856 -0.3449  0.2125 -0.0685
  142SAPE  H16X15602   7.413   5.072   8.900  0.4948 -0.7206 -0.8668
  142SAPE  H16Y15603   7.284   5.092   8.772 -1.4295 -1.1926 -0.6856
  142SAPE  C31715604   7.377   4.900   8.803 -0.0805  0.1337  0.5881
  142SAPE  H17X15605   7.296   4.833   8.767 -1.9553  2.9012 -0.8004
  142SAPE  H17Y15606   7.439   4.846   8.878 -0.3410 -2.6371 -1.0684
  142SAPE  C31815607   7.468   4.931   8.678  1.1625  0.0654 -0.6036
  142SAPE  H18X15608   7.509   4.830   8.658  0.7982 -0.2062 -0.0217
  142SAPE  H18Y15609   7.557   4.987   8.714  0.3093  0.1209  1.5614
  142SAPE  H18Z15610   7.407   4.983   8.600 -0.5641 -0.5218  0.2883
  143SAPE     N15611   0.794   5.677  10.740  0.0183 -0.0178  0.2583
  143SAPE   HN115612   0.749   5.597  10.690  0.0542 -0.6037  1.1496
  143SAPE   HN215613   0.787   5.754  10.670  4.7519 -0.3601 -0.9288
  143SAPE   HN315614   0.893   5.650  10.755  0.4808  1.1365 -0.5391
  143SAPE   C1215615   0.717   5.691  10.868 -0.0400 -0.2608 -0.1620
  143SAPE  H12A15616   0.711   5.592  10.918  1.9495 -0.5468 -0.4020
  143SAPE  H12B15617   0.613   5.717  10.839 -0.0821  0.0852  0.2925
  143SAPE   C1115618   0.789   5.782  10.968  0.2216  0.2017 -0.0922
  143SAPE  H11A15619   0.885   5.735  10.997 -0.0727  0.2968  1.0894
  143SAPE  H11B15620   0.719   5.788  11.054 -0.4407  1.3068 -0.6840
  143SAPE     P15621   0.890   6.030  10.974  0.2483 -0.0291 -0.2859
  143SAPE   O1315622   0.879   6.017  11.124 -0.3700 -0.6043 -0.8146
  143SAPE   O1415623   1.025   6.033  10.916 -0.0902 -0.6571  0.0542
  143SAPE   O1215624   0.814   5.915  10.903  0.5031 -0.4124 -0.2000
  143SAPE   O1115625   0.809   6.151  10.904 -0.2303 -0.2851 -0.5525
  143SAPE    C115626   0.734   6.143  10.784  0.1968  0.5435  0.2297
  143SAPE    HA15627   0.662   6.059  10.775  2.1001 -0.9778 -1.9606
  143SAPE    HB15628   0.671   6.235  10.780  2.1414  2.0978  2.4199
  143SAPE    C215629   0.820   6.117  10.650  0.0726  0.0960 -0.4896
  143SAPE    HS15630   0.891   6.038  10.681  0.0177  0.6976  1.2794
  143SAPE   O2115631   0.901   6.231  10.614 -0.5222 -0.0122  0.2018
  143SAPE   C2115632   1.015   6.216  10.555  0.2638  0.0199 -0.4846
  143SAPE   O2215633   1.070   6.111  10.525 -1.0675 -0.0204  0.0676
  143SAPE   C2215634   1.080   6.362  10.542  0.6885 -0.1017  0.1241
  143SAPE   H2R15635   1.021   6.417  10.465  1.5512  0.1640 -0.3507
  143SAPE   H2S15636   1.070   6.417  10.639  1.3783  0.8365 -0.3238
  143SAPE    C315637   0.734   6.069  10.532 -0.3864  0.0536  0.7940
  143SAPE    HX15638   0.670   6.157  10.511 -0.8746 -0.4645  0.0674
  143SAPE    HY15639   0.661   5.989  10.559 -1.7321  1.5203  1.7165
  143SAPE   O3115640   0.810   6.035  10.421 -0.2695  0.2799  0.0395
  143SAPE   C3115641   0.853   5.904  10.408  0.3263  0.0323  0.2631
  143SAPE   O3215642   0.820   5.811  10.479  0.2122  0.5045 -0.5111
  143SAPE   C3215643   0.937   5.893  10.278 -0.1778 -0.5808 -0.0941
  143SAPE   H2X15644   1.008   5.809  10.293 -0.6193 -1.3892 -2.1498
  143SAPE   H2Y15645   0.991   5.989  10.262 -0.0163 -0.8097 -1.0258
  143SAPE   C2315646   1.226   6.362  10.504 -0.6231 -0.1855 -0.2842
  143SAPE   H3R15647   1.221   6.329  10.398 -0.3541  1.5315 -0.8686
  143SAPE   H3S15648   1.277   6.280  10.559 -1.0141  1.4413  2.6800
  143SAPE   C2415649   1.307   6.488  10.532 -0.9561 -0.0773  0.0212
  143SAPE   H4R15650   1.409   6.479  10.489 -1.0477  0.0617 -0.2323
  143SAPE   H4S15651   1.330   6.501  10.640  2.2757 -0.5735 -0.5115
  143SAPE   C2515652   1.245   6.620  10.477 -0.1789  0.0020 -0.6256
  143SAPE   H5R15653   1.182   6.671  10.552 -0.3613 -1.1457  0.0153
  143SAPE   C2615654   1.280   6.692  10.373  0.3898 -0.0187  0.0991
  143SAPE   H6R15655   1.231   6.788  10.349  0.9208 -0.1350 -1.5749
  143SAPE   C2715656   1.372   6.641  10.259  0.0279 -0.0023 -0.5341
  143SAPE   H7R15657   1.402   6.534  10.251  2.5728  0.7424 -2.5149
  143SAPE   H7S15658   1.469   6.674  10.301  1.5376 -2.2910 -1.9647
  143SAPE   C2815659   1.343   6.695  10.119 -1.1911 -0.7992 -0.0698
  143SAPE   H8R15660   1.274   6.634  10.059 -0.8155 -1.3162  0.0179
  143SAPE   C2915661   1.377   6.809  10.051  0.0190 -1.1163  0.3514
  143SAPE   H9R15662   1.352   6.828   9.946 -3.5581 -2.0722  0.8970
  143SAPE  C21015663   1.458   6.925  10.117  0.5405  0.6786 -0.4114
  143SAPE  H10R15664   1.549   6.955  10.061 -0.3895 -2.4870 -4.0736
  143SAPE  H10S15665   1.491   6.909  10.222 -2.3766 -2.7241  0.1781
  143SAPE  C21115666   1.369   7.046  10.137 -0.3972  0.0722  0.0444
  143SAPE  H11R15667   1.298   7.032  10.219  1.9017 -1.0909  1.9720
  143SAPE  C21215668   1.358   7.154  10.055  0.2926  0.1759 -0.1278
  143SAPE  H12R15669   1.304   7.237  10.102 -0.1878 -0.9425  1.3958
  143SAPE  C21315670   1.431   7.200   9.929 -0.0576  0.0847 -0.8382
  143SAPE  H13R15671   1.386   7.292   9.886 -1.4941  1.6998  3.6066
  143SAPE  H13S15672   1.413   7.114   9.861 -0.3432 -0.9126  0.4486
  143SAPE  C21415673   1.577   7.222   9.933  0.3425 -0.3059 -0.3069
  143SAPE  H14R15674   1.629   7.159  10.006 -0.1625  1.1906  1.4152
  143SAPE  C21515675   1.646   7.319   9.868 -0.3865  0.1692  0.2447
  143SAPE  H15R15676   1.755   7.321   9.883 -0.3374 -2.2108  0.7222
  143SAPE  C21615677   1.587   7.423   9.780  0.4363  0.0704 -0.0323
  143SAPE  H16R15678   1.670   7.474   9.726  1.0959 -2.0626 -1.1276
  143SAPE  H16S15679   1.513   7.486   9.834  2.0660  0.5701  1.7299
  143SAPE  C21715680   1.506   7.367   9.657  0.5157 -0.0998  0.8154
  143SAPE  H17R15681   1.411   7.319   9.686 -0.2141  2.2815  2.7822
  143SAPE  H17S15682   1.570   7.296   9.601  2.8324  2.0623  0.5007
  143SAPE  C21815683   1.473   7.475   9.547 -0.1265  0.7975 -0.4515
  143SAPE  H18R15684   1.408   7.555   9.591  1.5590  1.5435  0.8085
  143SAPE  H18S15685   1.407   7.416   9.480  0.7789 -0.8593  0.0600
  143SAPE  C21915686   1.594   7.548   9.482  0.5011  0.3192 -0.1337
  143SAPE  H19R15687   1.620   7.611   9.569  1.4656 -3.5553  2.6590
  143SAPE  H19S15688   1.569   7.615   9.397  1.6095  1.8454  0.6949
  143SAPE  C22015689   1.714   7.466   9.444 -0.6536  0.1582  0.5187
  143SAPE  H20R15690   1.788   7.532   9.394  0.5344  1.1243  3.3418
  143SAPE  H20S15691   1.688   7.375   9.386  0.0733  0.6012 -0.5165
  143SAPE  H20T15692   1.754   7.423   9.538  0.1048 -1.7268 -0.6155
  143SAPE   C3315693   0.852   5.876  10.155  0.9128  0.4738  0.1960
  143SAPE   H3X15694   0.763   5.943  10.158 -1.7240 -2.8065  0.1001
  143SAPE   H3Y15695   0.817   5.772  10.165 -0.6532  0.7103 -2.0522
  143SAPE   C3415696   0.930   5.883  10.025  0.2256 -0.0238  0.6295
  143SAPE   H4X15697   1.021   5.819  10.028  2.9254  3.4934  0.0050
  143SAPE   H4Y15698   0.970   5.984  10.003 -0.4569 -0.1148 -1.2381
  143SAPE   C3515699   0.845   5.838   9.896  0.3721 -0.1457  0.1612
  143SAPE   H5X15700   0.757   5.905   9.892  2.0263  2.0447 -1.6082
  143SAPE   H5Y15701   0.806   5.734   9.903  2.2700 -0.9969 -1.0305
  143SAPE   C3615702   0.931   5.855   9.764 -0.1193 -0.0354 -0.0447
  143SAPE   H6X15703   1.017   5.786   9.776  1.9254  1.8383 -2.6679
  143SAPE   H6Y15704   0.968   5.958   9.746  0.4412 -0.2307 -0.0086
  143SAPE   C3715705   0.854   5.803   9.645 -0.9099  0.0252 -0.6322
  143SAPE   H7X15706   0.763   5.860   9.616 -3.0751 -2.0418  1.5916
  143SAPE   H7Y15707   0.834   5.694   9.654  1.3379 -0.4027 -0.2755
  143SAPE   C3815708   0.944   5.801   9.522 -0.5507 -0.5943 -0.3896
  143SAPE   H8X15709   1.034   5.746   9.555  0.2363  0.3793 -0.8699
  143SAPE   H8Y15710   0.975   5.907   9.505  1.4099 -1.0003  0.4492
  143SAPE   C3915711   0.885   5.740   9.394  0.1696  1.2928  0.4807
  143SAPE   H9X15712   0.821   5.815   9.342 -0.9739  1.1308  1.6007
  143SAPE   H9Y15713   0.822   5.653   9.422  1.0655 -0.0123 -1.4127
  143SAPE  C31015714   0.988   5.685   9.293  0.4287 -0.2022  0.3560
  143SAPE  H10X15715   1.049   5.609   9.346 -0.6602 -1.1264  0.3042
  143SAPE  H10Y15716   1.049   5.772   9.260 -1.3890  0.8434 -0.3501
  143SAPE  C31115717   0.909   5.632   9.171 -0.1084 -0.2545 -0.2767
  143SAPE  H11X15718   0.830   5.705   9.143 -0.2281  0.2881  1.3555
  143SAPE  H11Y15719   0.860   5.536   9.197  0.7720 -0.7245 -0.3077
  143SAPE  C31215720   1.000   5.587   9.054 -0.1489 -0.4656 -0.6486
  143SAPE  H12X15721   1.046   5.488   9.078 -0.9306 -0.9804 -1.1903
  143SAPE  H12Y15722   1.084   5.655   9.032 -1.6670  0.8962 -2.5900
  143SAPE  C31315723   0.927   5.571   8.917  0.2473  0.0588  0.3257
  143SAPE  H13X15724   0.888   5.674   8.903 -2.3377 -0.7552  1.0231
  143SAPE  H13Y15725   0.840   5.503   8.926  1.5279 -1.6570  0.3020
  143SAPE  C31415726   1.005   5.525   8.797  0.7687  0.0113 -0.1560
  143SAPE  H14X15727   1.105   5.572   8.785  0.6170  0.7306  1.2318
  143SAPE  H14Y15728   0.963   5.554   8.698  1.0999  0.9675 -0.0224
  143SAPE  C31515729   1.021   5.376   8.784  0.4861 -0.3600  0.4282
  143SAPE  H15X15730   1.090   5.345   8.865  1.2742 -0.5812 -0.3048
  143SAPE  H15Y15731   1.087   5.355   8.696 -0.0292 -0.9961  0.1897
  143SAPE  C31615732   0.903   5.278   8.770  0.1580  0.0279 -0.0661
  143SAPE  H16X15733   0.845   5.297   8.862 -2.5874  0.3522 -1.7609
  143SAPE  H16Y15734   0.951   5.178   8.764 -0.5104 -0.4504  1.8910
  143SAPE  C31715735   0.814   5.311   8.647 -0.6633 -0.0709 -0.1453
  143SAPE  H17X15736   0.780   5.417   8.642 -1.4749 -0.3736 -2.5142
  143SAPE  H17Y15737   0.729   5.240   8.642 -1.0990  0.5063 -1.4368
  143SAPE  C31815738   0.883   5.289   8.513 -0.4200 -0.0144  0.0752
  143SAPE  H18X15739   0.836   5.335   8.423  1.1100 -0.2341 -0.8753
  143SAPE  H18Y15740   0.873   5.180   8.496 -0.3472  0.1203 -0.9015
  143SAPE  H18Z15741   0.988   5.325   8.515 -0.7666  1.0539 -0.4026
  144SAPE     N15742   5.028   3.701  10.966 -0.7740 -0.3941  0.6607
  144SAPE   HN115743   4.968   3.626  11.004  0.5687 -1.9244 -0.1438
  144SAPE   HN215744   5.093   3.727  11.043  2.0116 -0.1139 -1.6315
  144SAPE   HN315745   4.973   3.788  10.949 -1.6844 -0.8575  1.1608
  144SAPE   C1215746   5.102   3.656  10.845  0.2299  0.1430 -0.3178
  144SAPE  H12A15747   5.190   3.723  10.829  1.0984 -0.8592  0.1663
  144SAPE  H12B15748   5.028   3.655  10.763 -1.4882 -1.6749  1.1540
  144SAPE   C1115749   5.150   3.512  10.877  0.2423 -0.6823  0.2016
  144SAPE  H11A15750   5.214   3.471  10.795 -0.0075 -0.1300 -0.2692
  144SAPE  H11B15751   5.067   3.440  10.891  0.9129 -1.5493 -0.1474
  144SAPE     P15752   5.376   3.522  11.011  0.6761 -0.2887 -0.2320
  144SAPE   O1315753   5.399   3.629  11.118  0.2565 -0.6121  0.3622
  144SAPE   O1415754   5.437   3.387  11.043  0.2617  0.1591 -0.2030
  144SAPE   O1215755   5.221   3.504  10.995  0.1434 -0.0851  0.2875
  144SAPE   O1115756   5.416   3.573  10.865 -0.9723 -0.0835 -0.0638
  144SAPE    C115757   5.513   3.497  10.783 -0.2949  0.0851 -0.3093
  144SAPE    HA15758   5.507   3.388  10.803  1.6559  0.3213  2.1132
  144SAPE    HB15759   5.479   3.514  10.679  2.2659  2.0721 -0.9225
  144SAPE    C215760   5.660   3.551  10.802 -0.0820  0.2345  0.0657
  144SAPE    HS15761   5.677   3.544  10.912 -1.3658 -0.0158  0.2650
  144SAPE   O2115762   5.659   3.686  10.759 -0.2939 -0.0714 -0.1234
  144SAPE   C2115763   5.751   3.770  10.806  0.2407  0.1541 -0.3325
  144SAPE   O2215764   5.837   3.744  10.891  0.3049 -0.5874 -0.3994
  144SAPE   C2215765   5.743   3.908  10.736 -0.0419  0.1233  0.3525
  144SAPE   H2R15766   5.661   3.969  10.779  0.5946  1.5078 -0.3271
  144SAPE   H2S15767   5.836   3.962  10.765 -0.7190  2.7555 -1.9498
  144SAPE    C315768   5.764   3.459  10.740  0.0953 -0.5147  0.4826
  144SAPE    HX15769   5.736   3.353  10.757 -2.1730 -0.0782 -0.2169
  144SAPE    HY15770   5.855   3.468  10.804 -0.1766  0.2390  0.7747
  144SAPE   O3115771   5.789   3.483  10.596  0.2491  0.3330 -0.3440
  144SAPE   C3115772   5.894   3.540  10.557 -0.0802 -0.4972 -0.5424
  144SAPE   O3215773   5.966   3.613  10.626  0.0326 -0.1793 -0.6698
  144SAPE   C3215774   5.925   3.498  10.408  0.7563  0.2080  0.2636
  144SAPE   H2X15775   5.837   3.529  10.346 -0.0251  0.3701  1.4222
  144SAPE   H2Y15776   5.932   3.387  10.403 -0.9108  0.1336 -1.7562
  144SAPE   C2315777   5.729   3.889  10.583 -0.3600 -0.5235 -0.9984
  144SAPE   H3R15778   5.623   3.860  10.567 -1.4461  0.0543  3.8135
  144SAPE   H3S15779   5.780   3.800  10.540 -3.8034 -1.5601 -3.3735
  144SAPE   C2415780   5.760   4.025  10.509  0.0102 -0.0691  0.2287
  144SAPE   H4R15781   5.732   4.114  10.570  0.8503  1.0827 -0.9887
  144SAPE   H4S15782   5.689   4.031  10.423 -0.9652  2.0463  1.0988
  144SAPE   C2515783   5.904   4.033  10.465  0.0024 -0.1066  0.0333
  144SAPE   H5R15784   5.970   3.994  10.543  0.0211  0.1216  0.1308
  144SAPE   C2615785   5.958   4.076  10.354 -0.5826 -0.7562 -0.2516
  144SAPE   H6R15786   6.066   4.057  10.344 -0.2040  1.4242 -0.9046
  144SAPE   C2715787   5.887   4.134  10.238  0.0820 -0.0206  0.8527
  144SAPE   H7R15788   5.817   4.217  10.261 -1.3519 -0.4714 -1.5563
  144SAPE   H7S15789   5.809   4.065  10.199 -0.5995  0.1973  1.7997
  144SAPE   C2815790   5.994   4.187  10.143 -0.1215 -0.3254  0.0158
  144SAPE   H8R15791   6.079   4.230  10.197  1.4008 -0.6051 -2.0135
  144SAPE   C2915792   5.999   4.177  10.009 -0.3916  0.2034  0.1271
  144SAPE   H9R15793   6.080   4.228   9.955 -0.6991  0.5811  0.0212
  144SAPE  C21015794   5.904   4.105   9.922  0.5172 -0.6009 -0.0420
  144SAPE  H10R15795   5.870   4.184   9.852  0.0911  0.1455  0.9849
  144SAPE  H10S15796   5.815   4.074   9.980  1.1071 -0.7624  0.7948
  144SAPE  C21115797   5.976   3.992   9.848  0.3340  0.2469  0.4692
  144SAPE  H11R15798   6.013   3.908   9.908  1.5649  0.5067  0.1038
  144SAPE  C21215799   6.018   3.989   9.716  0.3976  1.1188 -0.3743
  144SAPE  H12R15800   6.055   3.891   9.681  0.9126 -0.0145  2.9273
  144SAPE  C21315801   5.997   4.091   9.608  0.0559 -1.0000  0.3477
  144SAPE  H13R15802   5.933   4.177   9.637  0.6167 -0.5940  0.4039
  144SAPE  H13S15803   5.936   4.037   9.533  0.5562  0.8626 -1.4935
  144SAPE  C21415804   6.130   4.131   9.548  0.5990 -0.0901 -0.1307
  144SAPE  H14R15805   6.192   4.202   9.604  3.1799 -1.5026 -1.0458
  144SAPE  C21515806   6.190   4.080   9.434 -0.0700 -0.2349 -0.8198
  144SAPE  H15R15807   6.292   4.116   9.414  0.3686  0.8734  2.7093
  144SAPE  C21615808   6.127   3.976   9.340  0.0373 -0.6354 -0.9393
  144SAPE  H16R15809   6.019   3.993   9.322  0.1606  1.6782  0.1219
  144SAPE  H16S15810   6.140   3.874   9.382 -0.9490 -0.4302 -0.0985
  144SAPE  C21715811   6.191   3.971   9.206 -0.1537 -0.1288  0.0077
  144SAPE  H17R15812   6.162   3.872   9.164  0.6768 -0.7402  0.8369
  144SAPE  H17S15813   6.301   3.981   9.223 -0.5935  2.3628  1.9250
  144SAPE  C21815814   6.146   4.081   9.107  0.5799 -0.4490  0.6989
  144SAPE  H18R15815   6.169   4.179   9.154 -1.2000  0.2755  0.1808
  144SAPE  H18S15816   6.035   4.081   9.097  0.3138  2.2955  2.4293
  144SAPE  C21915817   6.216   4.061   8.978 -0.5468  0.0668  0.2577
  144SAPE  H19R15818   6.158   4.124   8.907  0.6685  1.8642  0.8089
  144SAPE  H19S15819   6.206   3.953   8.950  0.3839 -0.7689  2.9014
  144SAPE  C22015820   6.364   4.104   8.984 -0.6409 -0.2348 -0.6448
  144SAPE  H20R15821   6.394   4.199   9.034  0.5898 -1.5076  1.1730
  144SAPE  H20S15822   6.411   4.107   8.883 -2.7131  0.3208 -1.6323
  144SAPE  H20T15823   6.419   4.031   9.048 -0.0995  0.0060 -0.8293
  144SAPE   C3315824   6.056   3.563  10.347  0.2385 -0.2632 -0.7756
  144SAPE   H3X15825   6.089   3.518  10.250  0.5222  2.5581 -2.0830
  144SAPE   H3Y15826   6.136   3.564  10.424 -2.2272  1.0409  1.9620
  144SAPE   C3415827   6.017   3.699  10.292  0.2559  0.0346 -0.0506
  144SAPE   H4X15828   5.958   3.767  10.357  0.4092 -0.7961  0.9838
  144SAPE   H4Y15829   5.952   3.690  10.202 -0.2651  3.7227 -0.2138
  144SAPE   C3515830   6.141   3.770  10.232 -0.3579  0.1375  0.0541
  144SAPE   H5X15831   6.220   3.796  10.306 -1.4701  2.0228  0.6636
  144SAPE   H5Y15832   6.099   3.869  10.203  0.9527  0.5154 -0.6579
  144SAPE   C3615833   6.219   3.713  10.114  0.0077 -0.5844  0.4627
  144SAPE   H6X15834   6.151   3.688  10.030 -0.6496  0.9099  0.5197
  144SAPE   H6Y15835   6.278   3.625  10.148  2.1695  0.0358 -1.4098
  144SAPE   C3715836   6.317   3.815  10.047 -0.5139 -0.1923  0.3486
  144SAPE   H7X15837   6.397   3.848  10.116 -0.0383 -1.0507  0.2133
  144SAPE   H7Y15838   6.249   3.894  10.008 -1.8585 -2.0526 -1.2814
  144SAPE   C3815839   6.390   3.755   9.921 -0.4319 -0.1021  0.6299
  144SAPE   H8X15840   6.313   3.688   9.876  0.5662 -1.2117  0.5116
  144SAPE   H8Y15841   6.480   3.699   9.954 -0.6145 -0.4508  0.5443
  144SAPE   C3915842   6.425   3.863   9.819 -0.3068  0.0455  0.0781
  144SAPE   H9X15843   6.496   3.941   9.854 -0.3118  1.1073 -2.0749
  144SAPE   H9Y15844   6.330   3.910   9.787 -1.7525 -2.3385  0.6327
  144SAPE  C31015845   6.486   3.799   9.694 -0.3266  0.7622  0.2101
  144SAPE  H10X15846   6.430   3.704   9.680  1.2452 -0.2610  0.4528
  144SAPE  H10Y15847   6.586   3.754   9.715  0.0402  0.6321 -1.6966
  144SAPE  C31115848   6.495   3.895   9.578  0.2696  0.4861  0.0717
  144SAPE  H11X15849   6.534   3.995   9.607  0.8127  0.6124 -1.0307
  144SAPE  H11Y15850   6.392   3.920   9.544  0.5170  2.1151  0.4350
  144SAPE  C31215851   6.582   3.847   9.453 -0.1855 -0.1665 -0.0867
  144SAPE  H12X15852   6.518   3.765   9.415 -4.3020  1.4094  2.5979
  144SAPE  H12Y15853   6.675   3.812   9.502 -0.8775 -0.6621  0.9022
  144SAPE  C31315854   6.630   3.947   9.347 -0.1287 -0.1805  0.1183
  144SAPE  H13X15855   6.689   4.032   9.389 -1.3084  0.8694 -0.3189
  144SAPE  H13Y15856   6.553   3.991   9.280  2.2680  3.2431 -0.6888
  144SAPE  C31415857   6.737   3.875   9.269  0.9803  0.6638  0.1020
  144SAPE  H14X15858   6.680   3.781   9.250 -0.2286  0.7953  2.6205
  144SAPE  H14Y15859   6.829   3.851   9.327  0.2602  0.2932  1.1209
  144SAPE  C31515860   6.764   3.955   9.147  0.9113 -0.4749  0.2314
  144SAPE  H15X15861   6.808   4.053   9.174  0.0430  0.1816 -0.6732
  144SAPE  H15Y15862   6.671   3.985   9.094  2.0702  1.8508 -0.6392
  144SAPE  C31615863   6.857   3.885   9.040  0.4663  0.0561 -0.3491
  144SAPE  H16X15864   6.836   3.776   9.040 -0.1509  0.0773  2.5634
  144SAPE  H16Y15865   6.961   3.902   9.076  0.1052 -0.7186  1.1758
  144SAPE  C31715866   6.857   3.946   8.902 -0.1217  0.0766  0.4334
  144SAPE  H17X15867   6.879   4.054   8.919  1.9585 -0.0842 -0.9461
  144SAPE  H17Y15868   6.767   3.934   8.837  1.1003 -0.0912 -1.2863
  144SAPE  C31815869   6.984   3.906   8.830  0.5053 -0.3781 -0.0347
  144SAPE  H18X15870   7.063   3.910   8.908  0.7226  0.1714 -0.2757
  144SAPE  H18Y15871   7.000   3.964   8.737  0.0169  0.1870  0.2186
  144SAPE  H18Z15872   6.968   3.801   8.801 -2.3054  0.5880 -2.4704
  145SAPE     N15873   0.323   4.971  11.149  0.4132  0.6412  0.2014
  145SAPE   HN115874   0.341   4.914  11.235  1.1657  0.9523  0.2557
  145SAPE   HN215875   0.356   5.067  11.167  2.0923 -0.1112  1.3865
  145SAPE   HN315876   0.219   4.966  11.146  0.3401  2.2192 -0.6053
  145SAPE   C1215877   0.361   4.901  11.020 -0.0591 -0.9301 -0.0644
  145SAPE  H12A15878   0.325   4.955  10.930  2.4296  0.5419 -0.2805
  145SAPE  H12B15879   0.315   4.800  11.012 -0.4930 -0.8071  0.8027
  145SAPE   C1115880   0.509   4.873  11.004  0.1065  0.3015  0.0530
  145SAPE  H11A15881   0.573   4.963  10.988  0.3608  0.2797  0.9311
  145SAPE  H11B15882   0.521   4.810  10.913  0.5462  0.9084 -0.3159
  145SAPE     P15883   0.712   4.759  11.141  0.5011 -0.4039 -0.0756
  145SAPE   O1315884   0.801   4.873  11.166 -0.2019 -0.0334  0.0401
  145SAPE   O1415885   0.722   4.649  11.235  0.1444  0.1308 -0.1793
  145SAPE   O1215886   0.554   4.801  11.118 -0.5245  0.1243  0.1649
  145SAPE   O1115887   0.745   4.710  10.996 -0.1232 -0.2194  0.1964
  145SAPE    C115888   0.674   4.588  10.947  0.3038 -0.5834 -0.1672
  145SAPE    HA15889   0.709   4.491  10.990  0.6685 -0.8663 -1.0892
  145SAPE    HB15890   0.564   4.594  10.962  0.0499  0.2343 -2.1785
  145SAPE    C215891   0.697   4.574  10.793 -0.1372  0.3503  0.2700
  145SAPE    HS15892   0.806   4.583  10.773 -0.3098 -1.1893 -1.6388
  145SAPE   O2115893   0.610   4.674  10.724 -0.3098  0.5703 -0.3002
  145SAPE   C2115894   0.675   4.778  10.671 -0.7015  0.2483 -1.3149
  145SAPE   O2215895   0.794   4.786  10.660 -0.6531 -0.4584  0.2878
  145SAPE   C2215896   0.579   4.891  10.634 -0.0645  0.4143  0.6922
  145SAPE   H2R15897   0.483   4.865  10.683 -0.5156 -1.6383 -1.1523
  145SAPE   H2S15898   0.633   4.982  10.669  2.0410 -1.7056  3.5130
  145SAPE    C315899   0.660   4.434  10.740 -0.7992  0.3385 -0.9590
  145SAPE    HX15900   0.551   4.414  10.739 -0.8582  0.6170 -0.4767
  145SAPE    HY15901   0.710   4.351  10.794  0.7174  0.0257 -2.7393
  145SAPE   O3115902   0.718   4.435  10.605  0.2481 -0.2648 -0.5777
  145SAPE   C3115903   0.697   4.326  10.538  0.0647 -0.2484 -0.2350
  145SAPE   O3215904   0.622   4.237  10.572  0.3286  0.2434 -0.2328
  145SAPE   C3215905   0.771   4.338  10.404 -0.1479 -0.6381  0.4507
  145SAPE   H2X15906   0.878   4.321  10.425 -0.5038 -2.0870  1.2313
  145SAPE   H2Y15907   0.754   4.435  10.352 -0.8003 -0.6270  0.6746
  145SAPE   C2315908   0.551   4.893  10.482  0.6293  0.3401 -0.1507
  145SAPE   H3R15909   0.452   4.939  10.459 -0.0582 -1.6479 -1.4818
  145SAPE   H3S15910   0.549   4.798  10.424  1.4652  0.4868 -0.4419
  145SAPE   C2415911   0.634   4.990  10.393  0.3989  0.1501  0.4128
  145SAPE   H4R15912   0.628   5.094  10.430  1.0165  0.9716 -1.6882
  145SAPE   H4S15913   0.596   4.998  10.289  1.0127 -0.6725  0.1159
  145SAPE   C2515914   0.774   4.943  10.386 -0.8253  0.0017  0.5601
  145SAPE   H5R15915   0.833   4.938  10.479 -0.7540  1.3506  0.6004
  145SAPE   C2615916   0.847   4.915  10.273  0.0899  0.4832 -0.8798
  145SAPE   H6R15917   0.950   4.884  10.298 -0.9906 -0.6837  2.6780
  145SAPE   C2715918   0.806   4.921  10.133 -0.2520 -0.3037  0.4217
  145SAPE   H7R15919   0.895   4.884  10.078 -1.0461 -3.2534  0.9220
  145SAPE   H7S15920   0.791   5.026  10.100 -0.5562 -1.2107 -2.6128
  145SAPE   C2815921   0.678   4.844  10.093 -0.7674 -0.1207 -0.6473
  145SAPE   H8R15922   0.615   4.790  10.164 -0.0207 -3.0542 -2.0772
  145SAPE   C2915923   0.635   4.838   9.966  0.2912  0.3631 -0.4389
  145SAPE   H9R15924   0.543   4.779   9.952  0.6231  0.0498 -1.3519
  145SAPE  C21015925   0.702   4.903   9.850  0.4916  0.4094 -0.0589
  145SAPE  H10R15926   0.777   4.979   9.879  0.2688  0.9585 -0.9042
  145SAPE  H10S15927   0.617   4.963   9.811 -0.5810 -1.4215 -0.6481
  145SAPE  C21115928   0.754   4.802   9.762 -0.4970 -0.7675  0.8252
  145SAPE  H11R15929   0.800   4.707   9.793  1.5935 -0.4061 -0.9251
  145SAPE  C21215930   0.767   4.812   9.625 -0.0276 -0.2378 -0.0227
  145SAPE  H12R15931   0.813   4.733   9.563 -1.3866  0.8313 -2.5587
  145SAPE  C21315932   0.739   4.938   9.554  0.1018 -0.6961 -0.1113
  145SAPE  H13R15933   0.831   4.963   9.497 -0.0990 -0.3859 -0.3028
  145SAPE  H13S15934   0.710   5.014   9.629 -1.7114 -0.0219 -1.4208
  145SAPE  C21415935   0.606   4.918   9.475 -0.6018 -0.4525 -0.5969
  145SAPE  H14R15936   0.520   4.876   9.530 -2.1211  2.3016 -0.6733
  145SAPE  C21515937   0.590   4.946   9.344 -0.3346  0.0433 -0.4370
  145SAPE  H15R15938   0.494   4.927   9.294 -0.5699  0.5668 -0.1909
  145SAPE  C21615939   0.692   5.014   9.257 -0.0183  0.0562 -0.0721
  145SAPE  H16R15940   0.748   5.079   9.328 -1.2140  1.0568 -0.0104
  145SAPE  H16S15941   0.628   5.084   9.198  0.7480 -0.9797 -2.2090
  145SAPE  C21715942   0.781   4.911   9.185  0.6182 -0.0632  0.3501
  145SAPE  H17R15943   0.720   4.840   9.126  1.6048 -0.3900 -0.3011
  145SAPE  H17S15944   0.816   4.843   9.266 -0.5287 -0.3243  0.6434
  145SAPE  C21815945   0.897   4.964   9.105 -0.6460  0.7329 -0.3428
  145SAPE  H18R15946   0.856   5.021   9.019 -1.7236 -0.9225 -0.9829
  145SAPE  H18S15947   0.956   4.877   9.069  1.6880  1.7780  0.7472
  145SAPE  C21915948   1.000   5.049   9.184 -0.3076 -0.1552  0.3122
  145SAPE  H19R15949   1.039   4.987   9.268 -3.2151  1.0697  2.7221
  145SAPE  H19S15950   0.955   5.140   9.227  0.4650 -0.3900  1.6686
  145SAPE  C22015951   1.120   5.075   9.086 -0.2688  0.1002 -0.1099
  145SAPE  H20R15952   1.202   5.122   9.145 -0.6960  0.1387  0.4569
  145SAPE  H20S15953   1.112   5.139   8.996  4.6069 -0.2443 -1.0971
  145SAPE  H20T15954   1.159   4.976   9.053 -0.5603  0.3093 -1.0926
  145SAPE   C3315955   0.729   4.222  10.302 -0.1113 -0.5370  0.3755
  145SAPE   H3X15956   0.617   4.222  10.305 -0.2269  1.8044 -1.4110
  145SAPE   H3Y15957   0.775   4.132  10.348 -0.0445 -0.1317  1.1278
  145SAPE   C3415958   0.789   4.241  10.161 -0.3913  0.0923  0.6215
  145SAPE   H4X15959   0.793   4.140  10.116 -1.5237 -0.1156  0.9532
  145SAPE   H4Y15960   0.898   4.266  10.162 -0.4433  0.6535 -1.7269
  145SAPE   C3515961   0.722   4.337  10.063  0.3823  0.9278 -0.4832
  145SAPE   H5X15962   0.744   4.442  10.094  0.8549  0.1384  2.1612
  145SAPE   H5Y15963   0.612   4.325  10.068  0.4014  0.4065 -1.2050
  145SAPE   C3615964   0.764   4.325   9.921 -0.5877 -0.6361  0.1283
  145SAPE   H6X15965   0.755   4.221   9.885 -0.8572 -0.5038 -0.1926
  145SAPE   H6Y15966   0.869   4.353   9.897 -1.6257  2.3869 -1.4589
  145SAPE   C3715967   0.677   4.413   9.834 -0.5465  0.4058 -0.1421
  145SAPE   H7X15968   0.704   4.521   9.840 -0.2592  0.5542 -3.0017
  145SAPE   H7Y15969   0.568   4.408   9.854 -0.7167 -0.6270 -1.2382
  145SAPE   C3815970   0.681   4.369   9.683  0.5097  0.3148  0.4996
  145SAPE   H8X15971   0.625   4.273   9.675 -1.3489  1.4904 -2.0774
  145SAPE   H8Y15972   0.781   4.353   9.636  0.6618 -0.6341  1.1287
  145SAPE   C3915973   0.602   4.468   9.596 -0.1802  0.9314 -1.0116
  145SAPE   H9X15974   0.638   4.572   9.609 -1.5121  1.6845 -2.8702
  145SAPE   H9Y15975   0.492   4.453   9.604 -0.0072 -0.4727 -0.9901
  145SAPE  C31015976   0.619   4.440   9.442 -0.5747 -0.0287 -0.0332
  145SAPE  H10X15977   0.552   4.512   9.391  0.5623 -0.3748 -2.1090
  145SAPE  H10Y15978   0.582   4.342   9.405  1.6071 -0.5659 -0.9162
  145SAPE  C31115979   0.759   4.458   9.384 -0.4189  0.1026  0.7012
  145SAPE  H11X15980   0.819   4.369   9.415  0.0703 -0.0962 -0.7484
  145SAPE  H11Y15981   0.803   4.553   9.420  3.9824 -1.2764 -0.4179
  145SAPE  C31215982   0.749   4.459   9.226 -0.3392  0.6631 -0.1254
  145SAPE  H12X15983   0.668   4.535   9.218 -0.9072  0.0381 -0.3811
  145SAPE  H12Y15984   0.720   4.359   9.188  1.4867 -0.5484  1.4983
  145SAPE  C31315985   0.873   4.506   9.153 -0.0925  0.1153 -0.7017
  145SAPE  H13X15986   0.961   4.478   9.214 -0.3061  0.1204 -0.3884
  145SAPE  H13Y15987   0.896   4.615   9.147 -0.5773  0.2735  0.2042
  145SAPE  C31415988   0.890   4.437   9.019 -0.0921 -0.5133  0.7455
  145SAPE  H14X15989   0.797   4.440   8.958 -0.4507  0.6475  1.3192
  145SAPE  H14Y15990   0.901   4.329   9.042  3.6554 -0.0797  1.6925
  145SAPE  C31515991   0.999   4.508   8.932 -0.2840  0.4125  0.6544
  145SAPE  H15X15992   0.971   4.615   8.916 -0.6285  0.3362  0.7276
  145SAPE  H15Y15993   0.987   4.459   8.833 -0.7873 -2.0771  1.8693
  145SAPE  C31615994   1.140   4.488   8.984 -0.5332 -0.0836 -0.1377
  145SAPE  H16X15995   1.167   4.380   8.985  0.7766  0.2267  1.3896
  145SAPE  H16Y15996   1.139   4.528   9.087 -0.1410  0.8713 -0.4914
  145SAPE  C31715997   1.247   4.567   8.905 -0.1157 -0.1343  0.2815
  145SAPE  H17X15998   1.225   4.674   8.927 -1.2641 -0.2872 -0.0500
  145SAPE  H17Y15999   1.235   4.555   8.795  1.8340  3.3098 -0.4816
  145SAPE  C31816000   1.393   4.547   8.953 -0.7700 -0.5580 -0.5055
  145SAPE  H18X16001   1.391   4.583   9.058 -0.6782 -0.0632 -0.6738
  145SAPE  H18Y16002   1.454   4.617   8.893 -3.2635  1.2608 -1.0949
  145SAPE  H18Z16003   1.436   4.444   8.951 -0.0003 -0.2849  0.8449
  146SAPE     N16004   0.404   3.304  11.013 -0.7087  0.5566  0.4112
  146SAPE   HN116005   0.358   3.314  10.920 -0.7115 -0.8224  0.2498
  146SAPE   HN216006   0.498   3.347  10.997 -0.0438 -1.0173 -0.1095
  146SAPE   HN316007   0.414   3.206  11.045  1.8043  0.9015  0.9591
  146SAPE   C1216008   0.331   3.402  11.101  0.0411  0.1044 -0.6726
  146SAPE  H12A16009   0.361   3.378  11.205 -3.0453 -2.4056 -0.1729
  146SAPE  H12B16010   0.225   3.366  11.098  0.5174 -1.3936 -0.4397
  146SAPE   C1116011   0.346   3.546  11.067  0.3383 -0.5771  0.6434
  146SAPE  H11A16012   0.447   3.585  11.094 -0.4572  1.8349  0.3891
  146SAPE  H11B16013   0.273   3.595  11.135  1.5361  1.1446  0.7592
  146SAPE     P16014   0.209   3.655  10.874 -0.2940 -0.1147  0.2785
  146SAPE   O1316015   0.205   3.631  10.729  0.6871 -0.3719 -0.1387
  146SAPE   O1416016   0.086   3.627  10.948 -0.1003  0.1681  0.2026
  146SAPE   O1216017   0.319   3.569  10.930 -0.6401  0.6377 -0.0866
  146SAPE   O1116018   0.261   3.800  10.903 -0.4620  0.0307  0.2337
  146SAPE    C116019   0.401   3.824  10.875 -0.5434 -0.2644  0.3180
  146SAPE    HA16020   0.460   3.816  10.969  4.8637  0.6366 -2.5771
  146SAPE    HB16021   0.445   3.765  10.792 -0.2569  0.3534  0.0183
  146SAPE    C216022   0.423   3.972  10.836 -0.2523  0.3865  0.4229
  146SAPE    HS16023   0.398   4.041  10.919  0.1255  1.2957 -0.2054
  146SAPE   O2116024   0.337   3.998  10.723 -0.0647 -0.0828  0.4040
  146SAPE   C2116025   0.326   4.128  10.702  0.1371  0.2246  0.2106
  146SAPE   O2216026   0.356   4.212  10.780 -0.1291 -0.5343  0.6545
  146SAPE   C2216027   0.250   4.162  10.576 -0.0402 -1.0653  0.0717
  146SAPE   H2R16028   0.154   4.203  10.611  1.0966  2.9667 -0.9837
  146SAPE   H2S16029   0.309   4.237  10.519 -0.4382 -0.7640  0.0538
  146SAPE    C316030   0.574   3.987  10.803 -0.5683 -0.3989  0.0331
  146SAPE    HX16031   0.621   3.918  10.875 -1.0022  0.0270  0.7347
  146SAPE    HY16032   0.606   4.093  10.804 -1.6993 -0.0292 -0.3753
  146SAPE   O3116033   0.605   3.935  10.670 -0.0747 -0.3173  0.0620
  146SAPE   C3116034   0.730   3.929  10.647  0.0496  0.2891 -0.3075
  146SAPE   O3216035   0.819   3.956  10.727 -0.5251  0.2007  0.2081
  146SAPE   C3216036   0.735   3.879  10.501 -0.7754 -0.5902  0.9135
  146SAPE   H2X16037   0.696   3.960  10.437 -1.5416 -2.0174 -0.5171
  146SAPE   H2Y16038   0.661   3.796  10.511 -0.0569 -1.2978  0.5304
  146SAPE   C2316039   0.231   4.044  10.470  0.5911 -0.6918  0.5228
  146SAPE   H3R16040   0.134   4.064  10.419 -0.1789 -2.5404  1.1696
  146SAPE   H3S16041   0.205   3.947  10.517  1.3919 -0.9089  0.5242
  146SAPE   C2416042   0.350   4.033  10.377  0.7861 -0.3668  0.0051
  146SAPE   H4R16043   0.427   3.986  10.442  0.0746  3.2236  3.7857
  146SAPE   H4S16044   0.392   4.128  10.337  1.7101 -0.9281 -0.3985
  146SAPE   C2516045   0.342   3.922  10.270 -0.4509 -0.8598 -0.0072
  146SAPE   H5R16046   0.265   3.848  10.295 -0.3611 -0.3107  2.0689
  146SAPE   C2616047   0.403   3.908  10.149 -0.1432 -0.0696 -0.4492
  146SAPE   H6R16048   0.379   3.814  10.097  2.4655 -0.5283 -0.9587
  146SAPE   C2716049   0.507   3.998  10.084  0.7920 -0.1369  0.6885
  146SAPE   H7R16050   0.586   3.927  10.050  0.5933 -0.5050  0.9957
  146SAPE   H7S16051   0.561   4.064  10.155  2.3740 -0.7726  0.1207
  146SAPE   C2816052   0.458   4.081   9.960 -0.0218  0.4410 -0.4062
  146SAPE   H8R16053   0.382   4.153   9.990  0.0925 -0.1817  1.5112
  146SAPE   C2916054   0.486   4.051   9.831 -0.8446  0.0940 -0.4804
  146SAPE   H9R16055   0.468   4.126   9.753 -0.4780  2.4520  1.5638
  146SAPE  C21016056   0.567   3.932   9.784  0.1657 -0.6855 -0.3542
  146SAPE  H10R16057   0.524   3.910   9.684 -1.6849 -1.8039  0.6471
  146SAPE  H10S16058   0.554   3.840   9.844 -1.4162  0.2136  0.7732
  146SAPE  C21116059   0.712   3.959   9.796 -0.0119  0.1987 -0.4069
  146SAPE  H11R16060   0.736   4.025   9.881 -2.0731 -0.5601  0.8369
  146SAPE  C21216061   0.812   3.923   9.714  0.1228  1.0095 -0.1911
  146SAPE  H12R16062   0.917   3.946   9.742 -0.7196  1.7889  2.7078
  146SAPE  C21316063   0.797   3.851   9.584 -0.9758  0.2321 -1.2045
  146SAPE  H13R16064   0.755   3.926   9.513  0.6716 -0.3863 -2.9208
  146SAPE  H13S16065   0.720   3.772   9.598  0.8638 -1.2430  1.2648
  146SAPE  C21416066   0.927   3.806   9.519 -0.1224 -0.5626 -0.2653
  146SAPE  H14R16067   0.985   3.733   9.577  1.6255 -0.4562 -1.7793
  146SAPE  C21516068   0.972   3.842   9.397  0.0562  0.4341  0.0590
  146SAPE  H15R16069   1.069   3.810   9.356  0.1240  0.0740  0.4958
  146SAPE  C21616070   0.909   3.939   9.303  0.1085 -0.3491 -0.6890
  146SAPE  H16R16071   0.802   3.955   9.327  0.3438 -1.3818  1.2618
  146SAPE  H16S16072   0.915   3.886   9.206 -1.6308 -0.7802 -0.5937
  146SAPE  C21716073   0.977   4.083   9.297  0.0120  0.3761  0.5228
  146SAPE  H17R16074   0.976   4.122   9.401 -1.5989  1.4123  0.1430
  146SAPE  H17S16075   0.918   4.154   9.237 -0.5643  1.3777  2.2099
  146SAPE  C21816076   1.119   4.093   9.224  0.1181 -0.5001 -0.6859
  146SAPE  H18R16077   1.174   4.006   9.266 -1.6813  0.2297  3.8206
  146SAPE  H18S16078   1.169   4.192   9.238  0.0558 -0.6633  0.9766
  146SAPE  C21916079   1.110   4.082   9.073  0.4278 -0.2849 -0.3140
  146SAPE  H19R16080   1.040   4.165   9.050 -0.9936 -1.5020 -0.5135
  146SAPE  H19S16081   1.047   3.994   9.048 -2.8999  1.3472  1.6863
  146SAPE  C22016082   1.237   4.090   8.996  0.3980  0.1051 -0.2997
  146SAPE  H20R16083   1.291   4.179   9.035  0.3617 -0.0889  0.2090
  146SAPE  H20S16084   1.202   4.099   8.891  1.6928  0.4547 -0.7180
  146SAPE  H20T16085   1.305   4.002   8.998 -0.7892 -0.8438 -1.0125
  146SAPE   C3316086   0.872   3.816  10.457  0.6987 -0.6673  0.0340
  146SAPE   H3X16087   0.905   3.734  10.524  1.4190 -0.1611  0.3152
  146SAPE   H3Y16088   0.940   3.904  10.464 -2.0995  1.5933  0.9784
  146SAPE   C3416089   0.867   3.772  10.307 -0.8313  0.5328 -0.4742
  146SAPE   H4X16090   0.965   3.741  10.266  1.6994  3.0596  3.1232
  146SAPE   H4Y16091   0.850   3.858  10.239 -0.3015 -1.4195 -3.2798
  146SAPE   C3516092   0.755   3.674  10.272 -0.1636 -0.4330 -0.2886
  146SAPE   H5X16093   0.654   3.718  10.258  0.2182  1.8686  2.9543
  146SAPE   H5Y16094   0.737   3.619  10.367 -0.2912  1.4451  0.8205
  146SAPE   C3616095   0.792   3.587  10.155 -0.8332  0.3989 -0.3469
  146SAPE   H6X16096   0.728   3.497  10.171 -3.4901  1.7706 -2.4463
  146SAPE   H6Y16097   0.898   3.555  10.168 -0.0042  2.3701 -1.7210
  146SAPE   C3716098   0.745   3.649  10.024 -0.2156 -0.2513 -0.2320
  146SAPE   H7X16099   0.786   3.752  10.017  1.5537 -0.8679  0.2901
  146SAPE   H7Y16100   0.635   3.662  10.027 -0.2777 -0.8965  1.0981
  146SAPE   C3816101   0.791   3.576   9.901  0.2709 -1.3657  1.0629
  146SAPE   H8X16102   0.901   3.584   9.890  0.1778 -1.9397 -0.4044
  146SAPE   H8Y16103   0.751   3.629   9.812  0.9415 -1.1570  0.8837
  146SAPE   C3916104   0.742   3.428   9.898 -0.7437  0.2302 -0.6578
  146SAPE   H9X16105   0.633   3.407   9.897 -0.5975 -0.7670  0.6390
  146SAPE   H9Y16106   0.784   3.371   9.984  1.6876  2.2389 -0.4032
  146SAPE  C31016107   0.811   3.362   9.771  0.2077  0.2064  0.0906
  146SAPE  H10X16108   0.832   3.255   9.792  3.3188  1.2264  3.3909
  146SAPE  H10Y16109   0.903   3.420   9.746  1.2247  0.2718  3.4651
  146SAPE  C31116110   0.710   3.388   9.653  0.5884 -0.1559  0.2331
  146SAPE  H11X16111   0.665   3.488   9.668  2.0104  0.4790  0.5057
  146SAPE  H11Y16112   0.642   3.301   9.660  1.5960 -1.1007 -1.2418
  146SAPE  C31216113   0.783   3.399   9.526 -0.0565  1.2665  0.0195
  146SAPE  H12X16114   0.811   3.303   9.477  0.8260  3.2143 -3.6558
  146SAPE  H12Y16115   0.882   3.446   9.542  1.2561 -1.7058  1.2485
  146SAPE  C31316116   0.710   3.474   9.408  0.1466  0.3998 -0.2070
  146SAPE  H13X16117   0.690   3.579   9.436 -0.9397 -0.2076  1.5502
  146SAPE  H13Y16118   0.606   3.434   9.397  0.8976 -1.2154 -2.0152
  146SAPE  C31416119   0.773   3.463   9.271 -0.0890 -0.0091  0.0595
  146SAPE  H14X16120   0.704   3.468   9.185  3.5004  0.2287 -3.0659
  146SAPE  H14Y16121   0.817   3.361   9.266 -1.9128 -0.9367  1.6579
  146SAPE  C31516122   0.894   3.557   9.257  0.0105  0.6906 -0.4033
  146SAPE  H15X16123   0.947   3.552   9.355  1.2060  1.2451 -1.0092
  146SAPE  H15Y16124   0.868   3.664   9.240 -0.6349  0.4167 -1.2026
  146SAPE  C31616125   0.996   3.508   9.147  0.3714  0.0611 -0.1966
  146SAPE  H16X16126   1.032   3.410   9.186 -1.8041  0.4347  3.0481
  146SAPE  H16Y16127   1.085   3.575   9.144  0.9215 -0.6594 -0.5524
  146SAPE  C31716128   0.939   3.507   9.006  0.0738 -0.4386 -0.0067
  146SAPE  H17X16129   0.891   3.602   8.975  1.3945  0.7334  1.3617
  146SAPE  H17Y16130   0.855   3.434   8.999  0.0161 -0.2902 -1.1275
  146SAPE  C31816131   1.045   3.456   8.900  0.1971 -0.3906  0.4283
  146SAPE  H18X16132   1.106   3.369   8.932  1.7270  0.0772 -1.0809
  146SAPE  H18Y16133   1.120   3.531   8.869 -0.3742 -0.3636 -0.9709
  146SAPE  H18Z16134   0.993   3.426   8.806  1.0700 -1.9840  0.4227
  147SAPE     N16135   2.994   1.825   6.267 -0.7367  0.2673 -0.1462
  147SAPE   HN116136   2.945   1.832   6.359 -1.0419 -0.6349 -0.2309
  147SAPE   HN216137   2.929   1.827   6.186 -0.1940 -1.6499 -0.6716
  147SAPE   HN316138   3.026   1.726   6.265  0.4232  0.6167  0.5437
  147SAPE   C1216139   3.097   1.928   6.255 -0.0259 -0.3578  0.2047
  147SAPE  H12A16140   3.044   2.025   6.247 -0.2371 -0.5907 -1.9132
  147SAPE  H12B16141   3.165   1.916   6.167 -2.2342 -2.5360 -1.3456
  147SAPE   C1116142   3.184   1.921   6.380 -0.9308 -0.3528 -0.3050
  147SAPE  H11A16143   3.119   1.939   6.469 -1.7315 -1.6616 -0.5915
  147SAPE  H11B16144   3.257   2.004   6.371  0.3766 -1.4450 -0.1117
  147SAPE     P16145   3.388   1.770   6.342 -0.0797 -0.4009  0.2143
  147SAPE   O1316146   3.424   1.634   6.374 -0.5165 -0.3179  0.4351
  147SAPE   O1416147   3.403   1.824   6.205  0.1225  0.0923 -0.6627
  147SAPE   O1216148   3.253   1.795   6.397 -0.4667 -0.4040 -0.4472
  147SAPE   O1116149   3.494   1.858   6.427  0.0045 -0.2640  0.2749
  147SAPE    C116150   3.468   1.905   6.553 -0.3302 -0.5236 -0.7719
  147SAPE    HA16151   3.383   1.858   6.607 -1.4180  0.9545 -1.1046
  147SAPE    HB16152   3.552   1.872   6.617 -0.7962 -1.3036 -0.5428
  147SAPE    C216153   3.458   2.061   6.559  0.2489  0.5883 -0.0642
  147SAPE    HS16154   3.369   2.092   6.501 -2.0498  0.9929  3.3622
  147SAPE   O2116155   3.582   2.121   6.511  0.7000 -0.0335 -0.1548
  147SAPE   C2116156   3.564   2.244   6.471 -0.2586 -0.4568 -0.2049
  147SAPE   O2216157   3.461   2.304   6.443 -0.0149  0.0208  0.4554
  147SAPE   C2216158   3.699   2.313   6.463  0.2606 -0.3107  0.4633
  147SAPE   H2R16159   3.737   2.288   6.362  1.0643 -0.0153  0.6851
  147SAPE   H2S16160   3.682   2.423   6.463  1.7065 -0.0075 -2.0047
  147SAPE    C316161   3.415   2.120   6.701 -0.0157 -0.0159  0.1366
  147SAPE    HX16162   3.328   2.061   6.738  0.4904  0.2486  1.8058
  147SAPE    HY16163   3.370   2.221   6.685 -1.0649 -0.3164  1.1137
  147SAPE   O3116164   3.512   2.136   6.808  0.1519 -0.1914 -0.0742
  147SAPE   C3116165   3.537   2.027   6.869  0.0110  0.3578  0.2097
  147SAPE   O3216166   3.492   1.920   6.848 -0.2564 -0.1796  0.0743
  147SAPE   C3216167   3.640   2.073   6.991 -0.0386 -0.2066  0.7764
  147SAPE   H2X16168   3.658   2.182   6.978 -2.7286  0.2969  0.7808
  147SAPE   H2Y16169   3.736   2.023   6.964  0.5085  1.9296 -1.6204
  147SAPE   C2316170   3.802   2.269   6.567  0.1110 -0.0364 -0.3287
  147SAPE   H3R16171   3.908   2.292   6.541 -0.3579  1.5042 -0.9727
  147SAPE   H3S16172   3.805   2.159   6.580 -1.1061 -0.4509 -2.8607
  147SAPE   C2416173   3.779   2.328   6.703 -0.1734  0.5125 -0.4568
  147SAPE   H4R16174   3.838   2.271   6.778  1.0198  2.6117  0.3016
  147SAPE   H4S16175   3.671   2.310   6.720 -0.4976  1.6420 -1.2559
  147SAPE   C2516176   3.811   2.476   6.726  0.0428  0.2111 -0.6828
  147SAPE   H5R16177   3.809   2.541   6.638 -0.3993  0.6581 -0.3445
  147SAPE   C2616178   3.857   2.525   6.842 -0.0462 -0.3122 -0.4262
  147SAPE   H6R16179   3.879   2.631   6.859  1.8378 -0.8991  1.0373
  147SAPE   C2716180   3.889   2.454   6.970  0.2436 -0.1525  0.0837
  147SAPE   H7R16181   3.967   2.514   7.020 -0.4437 -0.0324  1.0337
  147SAPE   H7S16182   3.928   2.351   6.957  0.9000  0.0639  0.2952
  147SAPE   C2816183   3.763   2.445   7.057  0.1567 -0.1322  0.8273
  147SAPE   H8R16184   3.671   2.421   7.002  0.0513  2.5922 -0.3348
  147SAPE   C2916185   3.765   2.472   7.193 -0.2691  0.4162  0.0657
  147SAPE   H9R16186   3.672   2.467   7.252  1.1790  0.0071  2.4610
  147SAPE  C21016187   3.888   2.494   7.280 -0.6464  0.0601 -0.8760
  147SAPE  H10R16188   3.881   2.595   7.326  1.7152 -0.4108  0.7454
  147SAPE  H10S16189   3.986   2.495   7.227  0.0860  0.0121  0.4255
  147SAPE  C21116190   3.884   2.380   7.382 -0.3435  0.2563 -0.2748
  147SAPE  H11R16191   3.895   2.276   7.348 -0.8959 -0.1452  0.7368
  147SAPE  C21216192   3.852   2.390   7.508  0.3082 -0.1344 -0.1932
  147SAPE  H12R16193   3.844   2.298   7.568  0.9243  0.4171  0.7671
  147SAPE  C21316194   3.811   2.506   7.593  0.1060 -0.2025 -0.2183
  147SAPE  H13R16195   3.826   2.598   7.532 -0.9607 -0.1149 -0.3699
  147SAPE  H13S16196   3.870   2.511   7.686  0.6986 -1.1804 -0.5220
  147SAPE  C21416197   3.661   2.511   7.617  0.9627 -0.5894 -0.4084
  147SAPE  H14R16198   3.594   2.477   7.536  1.6614  0.7500 -1.5907
  147SAPE  C21516199   3.605   2.530   7.737 -0.3910 -0.0626  0.1151
  147SAPE  H15R16200   3.496   2.545   7.748 -0.4411 -0.5021  0.2271
  147SAPE  C21616201   3.673   2.563   7.864  0.3381 -0.7120 -0.3571
  147SAPE  H16R16202   3.611   2.621   7.935  1.6188 -0.0545  0.2627
  147SAPE  H16S16203   3.767   2.621   7.850  1.1237 -1.7041  0.6684
  147SAPE  C21716204   3.740   2.447   7.939  0.1214 -0.4166  0.0795
  147SAPE  H17R16205   3.816   2.491   8.006 -1.9606 -1.0854  3.1304
  147SAPE  H17S16206   3.793   2.375   7.873  0.2816  0.7113 -1.0728
  147SAPE  C21816207   3.630   2.367   8.017  0.5548 -0.0357  0.2442
  147SAPE  H18R16208   3.567   2.321   7.938  1.7133 -0.5959 -0.3861
  147SAPE  H18S16209   3.570   2.434   8.081 -0.3354  0.4932 -1.0999
  147SAPE  C21916210   3.677   2.247   8.103  0.2916 -0.3536  0.4898
  147SAPE  H19R16211   3.732   2.286   8.191 -0.9603  2.1554  0.2539
  147SAPE  H19S16212   3.743   2.179   8.045 -2.7360 -1.5427 -1.8103
  147SAPE  C22016213   3.558   2.172   8.156  0.9000 -0.1808  0.0977
  147SAPE  H20R16214   3.514   2.126   8.065  1.1787  1.5843 -0.9831
  147SAPE  H20S16215   3.485   2.250   8.188 -3.0899 -2.6878 -2.0943
  147SAPE  H20T16216   3.575   2.100   8.239  0.4420  0.1070  0.4521
  147SAPE   C3316217   3.590   2.040   7.134 -0.6628  0.0721 -0.1439
  147SAPE   H3X16218   3.547   1.938   7.141  1.7698 -0.9744  0.5553
  147SAPE   H3Y16219   3.513   2.114   7.164  0.3170  1.3623 -0.7079
  147SAPE   C3416220   3.712   2.041   7.218  0.3501 -0.2557  0.0537
  147SAPE   H4X16221   3.747   2.145   7.231 -0.0557 -0.0722 -0.3189
  147SAPE   H4Y16222   3.792   1.980   7.170  0.3868 -0.3730  0.2631
  147SAPE   C3516223   3.683   1.982   7.350 -0.3803  0.2731  0.2194
  147SAPE   H5X16224   3.660   1.874   7.345 -0.0359  0.1604  0.8514
  147SAPE   H5Y16225   3.583   2.020   7.382 -1.9831 -1.1754 -2.7403
  147SAPE   C3616226   3.791   2.009   7.454  0.6310  0.7841 -0.1642
  147SAPE   H6X16227   3.789   2.117   7.480 -2.6986  0.8238 -0.2590
  147SAPE   H6Y16228   3.890   1.999   7.404  1.3240 -1.2771  1.4589
  147SAPE   C3716229   3.782   1.920   7.583  0.5781 -0.0400  0.1937
  147SAPE   H7X16230   3.819   1.819   7.553  1.1541  1.1560 -3.6275
  147SAPE   H7Y16231   3.676   1.915   7.615  0.4130  4.5001  1.0406
  147SAPE   C3816232   3.858   1.971   7.707  0.4172  0.4808  0.4883
  147SAPE   H8X16233   3.821   2.067   7.746 -3.3244 -1.2406  1.6886
  147SAPE   H8Y16234   3.965   1.983   7.680  0.3528  1.3957  0.6156
  147SAPE   C3916235   3.839   1.870   7.820  0.3407  0.1372  0.3030
  147SAPE   H9X16236   3.911   1.788   7.801  0.6587  0.0194  1.8992
  147SAPE   H9Y16237   3.737   1.826   7.820  1.5967 -3.1565 -1.6959
  147SAPE  C31016238   3.872   1.923   7.956  0.5210 -0.1926  0.2869
  147SAPE  H10X16239   3.772   1.947   7.999 -0.4947 -1.2766 -1.3320
  147SAPE  H10Y16240   3.933   2.016   7.959 -0.6385  0.6452 -1.0388
  147SAPE  C31116241   3.942   1.812   8.037 -0.1724 -0.1445 -0.8087
  147SAPE  H11X16242   4.046   1.797   8.002 -0.2548  0.2938 -1.2521
  147SAPE  H11Y16243   3.894   1.712   8.034  3.0889 -1.8820  0.2101
  147SAPE  C31216244   3.957   1.854   8.184 -0.2188 -0.5181 -0.3410
  147SAPE  H12X16245   4.026   1.941   8.189  0.5555 -1.0084 -1.8128
  147SAPE  H12Y16246   4.012   1.771   8.232  0.3893 -1.0095 -1.8197
  147SAPE  C31316247   3.824   1.881   8.257  0.0506  0.3398  0.7420
  147SAPE  H13X16248   3.748   1.812   8.216  0.6515  0.3717 -0.4514
  147SAPE  H13Y16249   3.796   1.985   8.229  2.7344  0.6586 -1.1466
  147SAPE  C31416250   3.840   1.855   8.412 -0.0519 -0.6365 -0.5548
  147SAPE  H14X16251   3.912   1.929   8.452  2.1032 -2.2637 -1.2539
  147SAPE  H14Y16252   3.892   1.758   8.427  1.0792 -0.2001 -1.5142
  147SAPE  C31516253   3.699   1.858   8.471 -1.0383 -0.1583  0.0873
  147SAPE  H15X16254   3.653   1.760   8.447  1.6437 -1.7529  0.9845
  147SAPE  H15Y16255   3.655   1.940   8.411  0.3346 -0.6416 -1.6683
  147SAPE  C31616256   3.694   1.888   8.621  0.4031 -0.0043  0.3240
  147SAPE  H16X16257   3.762   1.973   8.645 -0.2591  0.7976 -0.5602
  147SAPE  H16Y16258   3.752   1.804   8.664  0.4666 -0.0755  0.0987
  147SAPE  C31716259   3.562   1.897   8.695 -0.0857  0.4942  0.3982
  147SAPE  H17X16260   3.499   1.813   8.658 -0.0467  0.3739  0.6020
  147SAPE  H17Y16261   3.508   1.991   8.672  0.6141  1.0261  0.9093
  147SAPE  C31816262   3.569   1.880   8.848 -0.2129  0.8513  0.6453
  147SAPE  H18X16263   3.609   1.781   8.879  1.6761  0.7788 -1.7366
  147SAPE  H18Y16264   3.466   1.884   8.890 -0.5502 -2.0322  0.2982
  147SAPE  H18Z16265   3.613   1.966   8.902  2.3029 -1.2805  2.2652
  148SAPE     N16266   3.403   0.060   6.495  0.2031  0.0209 -0.8227
  148SAPE   HN116267   3.396   0.161   6.471 -0.0268  0.2417  0.1300
  148SAPE   HN216268   3.482   0.014   6.446 -1.0242 -0.4574 -2.4382
  148SAPE   HN316269   3.318   0.010   6.463 -0.1271  0.1545 -0.1699
  148SAPE   C1216270   3.417   0.038   6.641 -0.9223  0.4168 -0.2260
  148SAPE  H12A16271   3.413  -0.072   6.652 -0.8534  0.5913  2.0926
  148SAPE  H12B16272   3.331   0.077   6.701  0.7403  0.4037  2.3225
  148SAPE   C1116273   3.548   0.094   6.681 -0.0374  0.5602  0.2045
  148SAPE  H11A16274   3.553   0.133   6.785  1.8390  1.8700 -0.3152
  148SAPE  H11B16275   3.569   0.186   6.622 -1.2029  1.8551  1.7415
  148SAPE     P16276   3.735  -0.043   6.536 -0.3231  0.1669 -0.2281
  148SAPE   O1316277   3.750  -0.193   6.530 -0.0007 -0.5889 -0.3097
  148SAPE   O1416278   3.661   0.015   6.420  0.4238 -0.0298 -0.3338
  148SAPE   O1216279   3.645  -0.015   6.670  0.0687 -0.0946 -0.0029
  148SAPE   O1116280   3.872   0.040   6.561  0.9611 -0.0372  0.4732
  148SAPE    C116281   3.880   0.185   6.545 -0.3473 -0.8386 -0.0228
  148SAPE    HA16282   3.934   0.210   6.451 -0.6854 -0.6897 -0.1765
  148SAPE    HB16283   3.783   0.238   6.552 -0.5550 -0.9844 -1.5272
  148SAPE    C216284   3.959   0.258   6.658 -0.1480  0.6807 -0.8745
  148SAPE    HS16285   4.051   0.197   6.670 -1.0146 -0.4761  0.1501
  148SAPE   O2116286   3.866   0.256   6.768 -0.4258 -0.9823  0.0348
  148SAPE   C2116287   3.899   0.169   6.869  0.7887 -0.2976  0.5705
  148SAPE   O2216288   4.000   0.098   6.867 -0.3192  0.1345 -0.2404
  148SAPE   C2216289   3.807   0.191   6.986  0.7049  0.0591  0.3301
  148SAPE   H2R16290   3.749   0.284   6.967  1.1475  0.3924  0.5873
  148SAPE   H2S16291   3.736   0.108   6.967 -0.6423  1.1685  0.3884
  148SAPE    C316292   3.985   0.402   6.622  0.4713 -0.1185 -0.1046
  148SAPE    HX16293   3.889   0.446   6.588 -0.3174 -2.7108 -1.5542
  148SAPE    HY16294   4.058   0.413   6.538 -0.2936  1.1947 -0.6151
  148SAPE   O3116295   4.037   0.473   6.740 -0.6144  0.5372  0.7340
  148SAPE   C3116296   4.159   0.454   6.780  1.1624 -0.8335 -0.7514
  148SAPE   O3216297   4.244   0.379   6.736 -0.3256 -0.2868 -0.3679
  148SAPE   C3216298   4.168   0.538   6.906 -0.5895 -0.6027 -0.2332
  148SAPE   H2X16299   4.117   0.503   6.998 -1.4459 -0.0108 -0.4698
  148SAPE   H2Y16300   4.127   0.636   6.877  3.1801  1.3366  0.3643
  148SAPE   C2316301   3.860   0.173   7.127 -0.3324 -0.4001 -0.4403
  148SAPE   H3R16302   3.958   0.225   7.135 -1.0767  0.8728  0.9262
  148SAPE   H3S16303   3.877   0.064   7.139  0.6286  0.0049  2.6501
  148SAPE   C2416304   3.765   0.225   7.238  0.9382  0.2209  0.3902
  148SAPE   H4R16305   3.811   0.181   7.329  0.4658 -3.5633 -1.0189
  148SAPE   H4S16306   3.673   0.163   7.228  1.1876  0.0379 -0.9529
  148SAPE   C2516307   3.727   0.370   7.237 -0.0224 -0.4514 -0.7668
  148SAPE   H5R16308   3.647   0.397   7.166  0.1854  0.1416 -0.7793
  148SAPE   C2616309   3.792   0.467   7.303  0.6000 -0.3274  0.1687
  148SAPE   H6R16310   3.766   0.574   7.297 -2.0891 -0.7806  2.1397
  148SAPE   C2716311   3.905   0.436   7.395 -0.3262  0.0860  0.2858
  148SAPE   H7R16312   3.999   0.454   7.337 -1.8240 -1.3567 -2.8355
  148SAPE   H7S16313   3.905   0.332   7.434  2.5031 -0.0867  0.0460
  148SAPE   C2816314   3.909   0.528   7.513  0.3327 -0.1443  0.0356
  148SAPE   H8R16315   3.942   0.631   7.495 -1.0080  0.4308  0.6892
  148SAPE   C2916316   3.846   0.504   7.633 -0.1159 -0.5048  0.1893
  148SAPE   H9R16317   3.861   0.578   7.713  0.5948 -0.4360  0.0013
  148SAPE  C21016318   3.757   0.390   7.673 -0.0351  0.2106 -0.6177
  148SAPE  H10R16319   3.810   0.336   7.754 -2.2131 -1.9464 -0.5186
  148SAPE  H10S16320   3.743   0.310   7.597  0.8572 -0.0297 -0.5364
  148SAPE  C21116321   3.620   0.432   7.733  0.2601  0.4115  0.1107
  148SAPE  H11R16322   3.535   0.439   7.663  0.6251 -2.4880 -0.7857
  148SAPE  C21216323   3.603   0.452   7.859  0.4682  0.6148 -0.2319
  148SAPE  H12R16324   3.498   0.466   7.888  0.2495 -2.3294  0.7237
  148SAPE  C21316325   3.706   0.442   7.972 -0.6552 -0.0666 -0.1649
  148SAPE  H13R16326   3.681   0.510   8.057  0.1342 -0.0561  0.0664
  148SAPE  H13S16327   3.805   0.481   7.941 -1.3884  1.1376 -1.0705
  148SAPE  C21416328   3.720   0.308   8.025  0.4414 -0.8766  1.1235
  148SAPE  H14R16329   3.747   0.238   7.944 -0.5335 -1.5606  1.3781
  148SAPE  C21516330   3.704   0.253   8.149 -0.7125  0.0060  0.3886
  148SAPE  H15R16331   3.700   0.143   8.159  1.5222 -0.4214 -2.2110
  148SAPE  C21616332   3.663   0.320   8.275  0.2337 -0.2799  0.6666
  148SAPE  H16R16333   3.649   0.427   8.248  0.6695 -0.7152 -1.4602
  148SAPE  H16S16334   3.742   0.319   8.353  0.2631  1.2163  0.6851
  148SAPE  C21716335   3.537   0.263   8.333  0.2002  1.0967  0.3020
  148SAPE  H17R16336   3.465   0.229   8.256  0.7411 -0.0801  0.2931
  148SAPE  H17S16337   3.492   0.346   8.392 -1.5848  1.8741 -2.0095
  148SAPE  C21816338   3.549   0.153   8.439 -0.3788 -0.8534 -0.2396
  148SAPE  H18R16339   3.623   0.191   8.513 -1.2113  3.2358 -1.2664
  148SAPE  H18S16340   3.587   0.059   8.395  2.5850 -0.3243  0.9525
  148SAPE  C21916341   3.422   0.120   8.521  0.8324 -0.1976  0.3640
  148SAPE  H19R16342   3.455   0.041   8.591  0.2143 -1.4980 -0.7703
  148SAPE  H19S16343   3.344   0.082   8.452 -0.7212  0.3933  1.7172
  148SAPE  C22016344   3.367   0.244   8.601 -0.1731  0.6444 -0.0038
  148SAPE  H20R16345   3.382   0.341   8.548  2.8445  1.8667  2.7382
  148SAPE  H20S16346   3.419   0.255   8.698  0.1953 -3.2883  0.4036
  148SAPE  H20T16347   3.258   0.242   8.620 -0.5623  2.4041 -1.6382
  148SAPE   C3316348   4.317   0.578   6.940  0.0189  0.2878 -0.2549
  148SAPE   H3X16349   4.375   0.616   6.854 -1.0238 -1.3856 -1.7877
  148SAPE   H3Y16350   4.376   0.489   6.971  0.8979  1.2352  0.8763
  148SAPE   C3416351   4.327   0.690   7.042 -0.0342 -0.3648  0.4228
  148SAPE   H4X16352   4.286   0.784   6.998 -0.7584 -0.7107  0.3377
  148SAPE   H4Y16353   4.437   0.697   7.048  0.4315 -4.4686 -0.8587
  148SAPE   C3516354   4.277   0.641   7.183 -0.0729  0.0522 -0.4845
  148SAPE   H5X16355   4.309   0.537   7.203  0.7135  0.1078 -1.3677
  148SAPE   H5Y16356   4.167   0.634   7.189 -0.1241  1.5822  1.4616
  148SAPE   C3616357   4.329   0.733   7.300 -0.4304 -0.3977  0.3768
  148SAPE   H6X16358   4.301   0.839   7.282 -1.3310 -0.9093 -1.4419
  148SAPE   H6Y16359   4.437   0.716   7.321 -0.6051 -2.7260 -0.3292
  148SAPE   C3716360   4.285   0.680   7.439 -0.5358 -0.6674 -0.2044
  148SAPE   H7X16361   4.327   0.578   7.447 -1.0278 -0.8221  0.5729
  148SAPE   H7Y16362   4.174   0.673   7.433 -0.4392 -1.1857 -1.4885
  148SAPE   C3816363   4.342   0.780   7.547 -0.5727  0.3127 -0.7873
  148SAPE   H8X16364   4.306   0.881   7.519 -1.7669  0.0576 -0.2429
  148SAPE   H8Y16365   4.452   0.786   7.531 -0.5952  2.0107 -0.4102
  148SAPE   C3916366   4.321   0.732   7.690  0.1818 -0.7255 -0.5759
  148SAPE   H9X16367   4.340   0.623   7.697  0.8954 -0.5626  0.2777
  148SAPE   H9Y16368   4.215   0.750   7.717  0.2798  0.6499 -1.0285
  148SAPE  C31016369   4.400   0.812   7.796 -0.8429 -0.4800  0.0939
  148SAPE  H10X16370   4.368   0.917   7.781 -0.9895 -0.7633 -1.8204
  148SAPE  H10Y16371   4.508   0.805   7.767 -1.1339 -1.2409 -0.8684
  148SAPE  C31116372   4.370   0.767   7.942 -0.1338  0.1141  0.1248
  148SAPE  H11X16373   4.273   0.714   7.933 -0.1576  0.3279 -1.0612
  148SAPE  H11Y16374   4.351   0.857   8.004 -1.4721 -0.8967  1.2207
  148SAPE  C31216375   4.475   0.699   8.026 -0.5719  0.3969 -0.0880
  148SAPE  H12X16376   4.557   0.772   8.041 -0.2199 -0.4719  2.7651
  148SAPE  H12Y16377   4.512   0.608   7.975 -0.5060  0.9357 -1.0184
  148SAPE  C31316378   4.417   0.673   8.169 -0.5367  0.2180 -0.5400
  148SAPE  H13X16379   4.314   0.635   8.150  0.2295 -1.8523 -0.7118
  148SAPE  H13Y16380   4.404   0.772   8.220  2.5315 -0.4931  1.9462
  148SAPE  C31416381   4.501   0.582   8.264 -0.3914  0.8055  0.1907
  148SAPE  H14X16382   4.498   0.475   8.235  2.0816  0.6814  0.2056
  148SAPE  H14Y16383   4.460   0.583   8.367 -0.7977 -0.2347  0.0473
  148SAPE  C31516384   4.655   0.617   8.274 -0.0016 -0.1952  0.5045
  148SAPE  H15X16385   4.663   0.726   8.294  1.3643  0.2726 -2.0695
  148SAPE  H15Y16386   4.696   0.613   8.170  0.9897 -0.0104  0.8762
  148SAPE  C31616387   4.739   0.528   8.372  0.1061  0.2336 -0.3905
  148SAPE  H16X16388   4.736   0.424   8.332  2.2214  0.2005 -0.5915
  148SAPE  H16Y16389   4.674   0.534   8.462  1.2704 -1.0760  0.5912
  148SAPE  C31716390   4.876   0.580   8.404  0.6262  0.2147 -0.0026
  148SAPE  H17X16391   4.934   0.577   8.310  2.3683  0.1620  1.0276
  148SAPE  H17Y16392   4.924   0.499   8.463  1.1609 -0.2758 -1.0850
  148SAPE  C31816393   4.871   0.711   8.480  0.2824  0.2285 -0.1201
  148SAPE  H18X16394   4.805   0.700   8.569 -1.0016 -2.2897 -1.2700
  148SAPE  H18Y16395   4.831   0.798   8.425 -2.2794 -1.8234 -1.7245
  148SAPE  H18Z16396   4.970   0.746   8.517  0.1986  1.3343 -0.8934
  149SAPE     N16397   6.260   2.595   6.540  0.0642 -0.0544 -0.2420
  149SAPE   HN116398   6.165   2.586   6.583  0.3352  0.9571  0.6160
  149SAPE   HN216399   6.299   2.687   6.570 -3.0867  0.8336  1.6326
  149SAPE   HN316400   6.259   2.602   6.436 -0.2660 -0.0717 -0.2439
  149SAPE   C1216401   6.354   2.492   6.599  1.3288  0.1297  0.4737
  149SAPE  H12A16402   6.315   2.394   6.563 -0.8259  1.2118 -0.3330
  149SAPE  H12B16403   6.339   2.488   6.709  0.8238 -2.3646  0.3872
  149SAPE   C1116404   6.498   2.518   6.556  0.4377  0.6226 -0.1030
  149SAPE  H11A16405   6.550   2.433   6.605 -1.7298 -0.0043  1.2363
  149SAPE  H11B16406   6.542   2.611   6.596  2.7814  0.2809 -1.6159
  149SAPE     P16407   6.547   2.389   6.318 -0.3299 -0.2711  0.1166
  149SAPE   O1316408   6.416   2.341   6.270 -0.2701 -0.1704  0.1643
  149SAPE   O1416409   6.649   2.414   6.212  0.1225  0.5714  0.5714
  149SAPE   O1216410   6.522   2.514   6.416  0.0293  0.0359 -0.6528
  149SAPE   O1116411   6.612   2.280   6.408 -0.5283  0.2951  0.5306
  149SAPE    C116412   6.742   2.289   6.472 -0.1400 -0.0391 -0.0532
  149SAPE    HA16413   6.822   2.282   6.394  0.2948 -1.6020  0.4954
  149SAPE    HB16414   6.752   2.389   6.519  1.5465  0.6297 -1.6744
  149SAPE    C216415   6.759   2.180   6.582  0.5547 -0.7175  0.1110
  149SAPE    HS16416   6.667   2.176   6.643 -0.3410 -0.5673 -1.1856
  149SAPE   O2116417   6.874   2.209   6.658  0.1296 -0.1771 -0.6089
  149SAPE   C2116418   6.862   2.266   6.777  0.4996 -0.6915  0.5578
  149SAPE   O2216419   6.757   2.308   6.827  0.2412  0.2348  0.4431
  149SAPE   C2216420   6.996   2.287   6.851 -0.9671  0.1582  0.7505
  149SAPE   H2R16421   7.057   2.195   6.836 -0.1539  0.3417  2.6683
  149SAPE   H2S16422   7.055   2.359   6.791 -0.6124 -1.4981 -0.9662
  149SAPE    C316423   6.766   2.037   6.508  0.4848  0.1925 -0.2063
  149SAPE    HX16424   6.866   2.040   6.460  1.5839  2.2785  1.9886
  149SAPE    HY16425   6.689   2.030   6.429  2.1962  1.0076 -2.0284
  149SAPE   O3116426   6.744   1.929   6.602 -0.0202 -0.1310  0.1971
  149SAPE   C3116427   6.854   1.892   6.672  0.0645 -0.1489  0.5013
  149SAPE   O3216428   6.968   1.927   6.652 -0.0487 -0.3811  0.0585
  149SAPE   C3216429   6.815   1.787   6.775  0.3442 -0.2664 -0.1855
  149SAPE   H2X16430   6.903   1.718   6.775 -0.0290 -0.7493  0.0027
  149SAPE   H2Y16431   6.735   1.729   6.725  1.1026 -1.0115 -0.5672
  149SAPE   C2316432   6.979   2.333   6.996 -0.5630  0.0541 -0.9299
  149SAPE   H3R16433   6.923   2.257   7.054  0.1537  0.6550  0.6101
  149SAPE   H3S16434   6.922   2.429   6.998 -0.8234 -0.0903  1.9823
  149SAPE   C2416435   7.114   2.357   7.067  0.5475 -0.1681 -0.2098
  149SAPE   H4R16436   7.092   2.404   7.165 -0.7719 -0.3804 -0.3829
  149SAPE   H4S16437   7.161   2.430   6.998 -1.8799  0.0476 -1.7324
  149SAPE   C2516438   7.210   2.245   7.074 -0.0962  0.6695  0.6643
  149SAPE   H5R16439   7.257   2.223   6.977  0.1595 -0.5379  1.0405
  149SAPE   C2616440   7.260   2.174   7.182 -0.1646 -0.1680 -0.7742
  149SAPE   H6R16441   7.341   2.106   7.152 -0.0803  0.8477 -2.9611
  149SAPE   C2716442   7.237   2.201   7.332 -0.0121 -0.1859 -0.0205
  149SAPE   H7R16443   7.229   2.101   7.379 -1.6970 -0.1982 -0.2707
  149SAPE   H7S16444   7.140   2.253   7.347  0.5095  0.2090  2.4830
  149SAPE   C2816445   7.353   2.282   7.387  0.1350 -0.0427 -0.5029
  149SAPE   H8R16446   7.376   2.372   7.328  0.1987  2.1279  2.5807
  149SAPE   C2916447   7.433   2.253   7.490 -0.2905 -0.1372  1.3087
  149SAPE   H9R16448   7.512   2.325   7.514 -0.8789  0.7799  0.5513
  149SAPE  C21016449   7.430   2.129   7.578  0.4230  0.2611  0.0030
  149SAPE  H10R16450   7.522   2.073   7.552  2.2329  1.8425  2.5473
  149SAPE  H10S16451   7.345   2.061   7.555  0.9357 -0.8672  1.3280
  149SAPE  C21116452   7.432   2.154   7.723  1.2410  0.1843  0.6879
  149SAPE  H11R16453   7.517   2.216   7.755  2.0960 -0.5079 -0.1658
  149SAPE  C21216454   7.343   2.109   7.817  0.8930  0.2897  0.7120
  149SAPE  H12R16455   7.333   2.152   7.918  1.3439  0.0874  0.8444
  149SAPE  C21316456   7.228   2.023   7.791  0.3274 -0.5105  0.5245
  149SAPE  H13R16457   7.230   1.938   7.862  2.3544 -1.0742 -0.1417
  149SAPE  H13S16458   7.230   1.970   7.694  1.0384  1.4651 -0.5958
  149SAPE  C21416459   7.109   2.107   7.791 -1.0835 -0.6591 -0.6714
  149SAPE  H14R16460   7.090   2.169   7.702  0.5849 -0.4248 -0.8816
  149SAPE  C21516461   7.021   2.123   7.895 -0.5163  0.1680 -0.4433
  149SAPE  H15R16462   6.944   2.201   7.889 -0.4647  0.3511  0.9168
  149SAPE  C21616463   7.022   2.051   8.030 -1.0530 -0.5023 -0.0247
  149SAPE  H16R16464   7.079   1.956   8.017 -2.0280 -1.2982  1.1809
  149SAPE  H16S16465   6.919   2.016   8.055 -1.5999 -0.9212 -2.6602
  149SAPE  C21716466   7.092   2.121   8.146  0.2665  0.6454  0.2543
  149SAPE  H17R16467   7.194   2.149   8.112  0.8497 -2.6781 -1.1497
  149SAPE  H17S16468   7.086   2.064   8.241  0.0413 -0.7544 -0.5790
  149SAPE  C21816469   7.024   2.254   8.190 -0.3522  0.0970 -0.1846
  149SAPE  H18R16470   7.027   2.322   8.103  0.0539 -0.9712 -1.0280
  149SAPE  H18S16471   7.083   2.300   8.272 -3.0024  0.2710  1.7671
  149SAPE  C21916472   6.874   2.240   8.231 -0.7724 -0.0754  0.1864
  149SAPE  H19R16473   6.811   2.231   8.140 -0.7797  2.8723 -0.2126
  149SAPE  H19S16474   6.846   2.347   8.247 -2.7567  0.0663 -3.2906
  149SAPE  C22016475   6.843   2.146   8.344 -0.2511  0.0278  0.1710
  149SAPE  H20R16476   6.913   2.158   8.430 -1.7919 -3.6194  2.1892
  149SAPE  H20S16477   6.841   2.040   8.310 -0.2749  0.0778  0.0192
  149SAPE  H20T16478   6.745   2.150   8.397  0.4443  2.0232  1.3792
  149SAPE   C3316479   6.769   1.838   6.908  0.3504 -0.7803 -0.2512
  149SAPE   H3X16480   6.732   1.751   6.966 -1.1739  0.4770  0.7665
  149SAPE   H3Y16481   6.676   1.899   6.907 -0.1296 -1.4065  1.7623
  149SAPE   C3416482   6.874   1.905   6.981 -0.8272  0.2561  0.2211
  149SAPE   H4X16483   6.894   2.003   6.933 -2.6048  0.8504  0.5929
  149SAPE   H4Y16484   6.963   1.839   6.986 -1.3174 -0.5151 -0.8250
  149SAPE   C3516485   6.829   1.946   7.129  0.1901  0.0259 -0.3479
  149SAPE   H5X16486   6.783   1.857   7.175  0.2035 -1.0528 -2.2977
  149SAPE   H5Y16487   6.747   2.020   7.126  1.1959  1.1583 -1.1772
  149SAPE   C3616488   6.939   1.996   7.206 -1.3873 -0.2093  0.2757
  149SAPE   H6X16489   6.995   2.084   7.167  0.4900 -0.8731  1.3233
  149SAPE   H6Y16490   7.006   1.907   7.204 -2.9280 -1.4193 -1.9880
  149SAPE   C3716491   6.895   2.045   7.341 -0.0949 -0.3381 -1.4682
  149SAPE   H7X16492   6.860   2.150   7.338  1.0186  0.0691 -0.7966
  149SAPE   H7Y16493   6.975   2.046   7.419 -0.2883 -1.0607 -1.2527
  149SAPE   C3816494   6.791   1.949   7.410 -0.8996  0.3566 -0.2819
  149SAPE   H8X16495   6.832   1.846   7.418 -2.1944 -0.4077 -2.4056
  149SAPE   H8Y16496   6.698   1.948   7.348 -1.7584  1.5891  0.9238
  149SAPE   C3916497   6.754   2.005   7.548 -0.4633  0.0703 -0.2171
  149SAPE   H9X16498   6.748   2.114   7.527  0.2409 -0.0565 -1.1567
  149SAPE   H9Y16499   6.842   1.990   7.613 -1.0005  0.1741  0.5473
  149SAPE  C31016500   6.639   1.928   7.606 -0.5689  0.2351  0.5111
  149SAPE  H10X16501   6.669   1.826   7.638 -0.8711  0.3037  1.0276
  149SAPE  H10Y16502   6.555   1.928   7.534 -0.2650 -1.8063  0.0936
  149SAPE  C31116503   6.577   1.984   7.734 -0.1420 -0.2086 -0.4623
  149SAPE  H11X16504   6.472   1.954   7.752  0.1816 -0.3493  1.4770
  149SAPE  H11Y16505   6.570   2.095   7.732 -0.2539 -0.1968  0.2420
  149SAPE  C31216506   6.653   1.942   7.855 -0.6058  0.4658  0.0720
  149SAPE  H12X16507   6.761   1.966   7.851  0.2622 -3.0706 -1.4586
  149SAPE  H12Y16508   6.646   1.832   7.852 -1.6019  0.5410 -1.3181
  149SAPE  C31316509   6.587   2.011   7.977 -0.3629  0.9379 -0.4406
  149SAPE  H13X16510   6.496   2.067   7.946 -0.3524  0.7436 -0.8265
  149SAPE  H13Y16511   6.651   2.095   8.012  0.7610  0.2368 -0.7558
  149SAPE  C31416512   6.556   1.916   8.092  0.5881 -0.1573  0.0448
  149SAPE  H14X16513   6.649   1.865   8.127  0.2291  0.4146  1.9879
  149SAPE  H14Y16514   6.486   1.838   8.056 -0.2062  1.9811 -3.4884
  149SAPE  C31516515   6.501   1.987   8.211 -0.5730  0.0610  0.1519
  149SAPE  H15X16516   6.406   2.040   8.188 -0.7226 -0.3342 -0.1571
  149SAPE  H15Y16517   6.576   2.065   8.234  1.1838 -1.5118 -0.0168
  149SAPE  C31616518   6.478   1.901   8.335 -0.9055  0.1718 -0.2567
  149SAPE  H16X16519   6.578   1.874   8.376  0.7276  3.3843 -1.8065
  149SAPE  H16Y16520   6.418   1.810   8.313  0.4812 -1.8056  3.2232
  149SAPE  C31716521   6.408   1.988   8.432  0.3763  0.2359 -0.3466
  149SAPE  H17X16522   6.306   2.011   8.395  0.4385  1.4408  0.2014
  149SAPE  H17Y16523   6.462   2.083   8.451  1.1385 -0.4304  0.9376
  149SAPE  C31816524   6.383   1.924   8.567 -0.7075  0.6730 -0.7125
  149SAPE  H18X16525   6.337   1.997   8.637  1.6618  1.5618 -0.0176
  149SAPE  H18Y16526   6.480   1.903   8.617 -0.1334  0.6302 -1.8207
  149SAPE  H18Z16527   6.316   1.835   8.567 -0.6554  0.6233 -1.8190
  150SAPE     N16528   6.647   1.734   6.174 -0.0802 -0.0922  0.0903
  150SAPE   HN116529   6.672   1.653   6.114  2.1921 -0.8139  1.8608
  150SAPE   HN216530   6.548   1.761   6.155  0.7541  2.4692 -1.0154
  150SAPE   HN316531   6.704   1.817   6.151  0.2242 -0.6809 -1.4491
  150SAPE   C1216532   6.656   1.690   6.320 -0.3760 -0.0490  0.7064
  150SAPE  H12A16533   6.577   1.612   6.334  0.4617 -0.6541  2.2820
  150SAPE  H12B16534   6.623   1.781   6.374 -0.9316  2.1320 -3.0152
  150SAPE   C1116535   6.797   1.653   6.366 -0.0121  0.4398 -1.1087
  150SAPE  H11A16536   6.823   1.551   6.328  0.4949  0.5202 -0.9902
  150SAPE  H11B16537   6.794   1.635   6.475  1.6014 -2.1795 -1.4004
  150SAPE     P16538   7.022   1.736   6.267  0.7154 -0.3775  0.0819
  150SAPE   O1316539   6.990   1.706   6.127 -0.0509  0.5060 -0.1289
  150SAPE   O1416540   7.104   1.856   6.289 -0.6574 -0.6795  0.6436
  150SAPE   O1216541   6.884   1.757   6.339  0.0347  0.1969 -0.0662
  150SAPE   O1116542   7.084   1.609   6.341  0.3731 -0.0462  0.0261
  150SAPE    C116543   7.195   1.621   6.441  0.0982  0.2961 -0.5389
  150SAPE    HA16544   7.268   1.697   6.404 -0.7609  2.1884  1.4775
  150SAPE    HB16545   7.151   1.650   6.538 -3.3290  0.3271 -1.9744
  150SAPE    C216546   7.275   1.486   6.475  0.0073  0.3414  0.0071
  150SAPE    HS16547   7.306   1.438   6.380  2.1481  1.3479  0.1530
  150SAPE   O2116548   7.187   1.403   6.556  0.0199  0.2317  0.1523
  150SAPE   C2116549   7.088   1.342   6.486  0.0732  0.0360 -0.4863
  150SAPE   O2216550   7.074   1.330   6.367  0.3529  0.3588  0.7241
  150SAPE   C2216551   6.992   1.281   6.585  0.6011 -0.5890 -0.3120
  150SAPE   H2R16552   6.977   1.176   6.552  0.3963 -0.2698 -1.2865
  150SAPE   H2S16553   7.041   1.291   6.684  2.2106  0.4320 -1.1781
  150SAPE    C316554   7.407   1.512   6.552  0.3271 -0.4069  0.0188
  150SAPE    HX16555   7.463   1.582   6.487  0.5288  0.4185  1.0518
  150SAPE    HY16556   7.458   1.413   6.560  0.5040 -0.3672 -0.5862
  150SAPE   O3116557   7.370   1.580   6.677 -0.1794  0.3668 -0.0757
  150SAPE   C3116558   7.386   1.503   6.786 -0.4911  0.4173  0.2480
  150SAPE   O3216559   7.444   1.398   6.782 -0.3076  0.1079 -0.3928
  150SAPE   C3216560   7.330   1.572   6.907 -0.0403  0.1868 -0.1838
  150SAPE   H2X16561   7.334   1.682   6.892 -2.8199  0.1461 -1.8927
  150SAPE   H2Y16562   7.387   1.547   7.000 -2.2765  1.5747  1.6757
  150SAPE   C2316563   6.864   1.355   6.600  0.3601 -0.7702  0.5893
  150SAPE   H3R16564   6.810   1.344   6.503  1.8201  1.2180 -0.5524
  150SAPE   H3S16565   6.888   1.464   6.601  2.6050 -1.2021  0.4256
  150SAPE   C2416566   6.781   1.312   6.715  0.1072 -1.1454 -0.4475
  150SAPE   H4R16567   6.689   1.374   6.725  0.4000 -0.7770 -0.0064
  150SAPE   H4S16568   6.833   1.330   6.812  0.4491  0.2810 -0.8777
  150SAPE   C2516569   6.729   1.172   6.714 -0.0609 -0.4743  0.1794
  150SAPE   H5R16570   6.717   1.128   6.614 -1.1690 -2.7232  1.2270
  150SAPE   C2616571   6.697   1.089   6.820  0.9754  0.1874  0.4538
  150SAPE   H6R16572   6.672   0.987   6.787 -2.3795  2.1083 -3.9787
  150SAPE   C2716573   6.713   1.135   6.967  0.1941  0.0572  0.1571
  150SAPE   H7R16574   6.739   1.241   6.985  2.0038 -0.4618  0.8335
  150SAPE   H7S16575   6.800   1.081   7.011 -1.2297 -1.3398  1.4076
  150SAPE   C2816576   6.584   1.119   7.049  0.3242 -0.5618 -0.7810
  150SAPE   H8R16577   6.505   1.189   7.019  2.0063  2.6203  1.4883
  150SAPE   C2916578   6.575   1.037   7.157  0.4414  0.6095 -0.3739
  150SAPE   H9R16579   6.483   1.035   7.218  1.4830 -1.6390  1.2853
  150SAPE  C21016580   6.688   0.969   7.226 -0.9754 -0.2879  0.0355
  150SAPE  H10R16581   6.661   0.950   7.332 -0.6161  1.1419  0.4033
  150SAPE  H10S16582   6.773   1.040   7.225 -1.4986  0.3685  0.7310
  150SAPE  C21116583   6.721   0.841   7.155  0.1758 -0.5403  0.1832
  150SAPE  H11R16584   6.661   0.823   7.064  3.1374 -0.4438 -1.9591
  150SAPE  C21216585   6.815   0.750   7.190 -0.0275  0.6164 -0.0805
  150SAPE  H12R16586   6.820   0.660   7.127 -1.3546  0.9526 -0.7090
  150SAPE  C21316587   6.914   0.757   7.300 -0.1753  0.0016  0.3042
  150SAPE  H13R16588   6.890   0.844   7.364 -0.1669 -0.1906  0.5697
  150SAPE  H13S16589   7.015   0.780   7.259  0.0183 -1.1326  0.1193
  150SAPE  C21416590   6.914   0.641   7.386  0.6902 -0.3963 -1.0270
  150SAPE  H14R16591   6.992   0.564   7.373  0.0852 -1.1025 -0.5446
  150SAPE  C21516592   6.817   0.614   7.476 -0.5210  0.2505  0.6402
  150SAPE  H15R16593   6.821   0.516   7.526 -0.4826  0.0209  0.1883
  150SAPE  C21616594   6.691   0.691   7.515  0.1864 -0.7006 -0.3193
  150SAPE  H16R16595   6.609   0.617   7.524 -2.2729  2.0487  1.4261
  150SAPE  H16S16596   6.652   0.762   7.438 -0.4332 -0.3330  0.3330
  150SAPE  C21716597   6.711   0.779   7.639  0.7277 -0.2163  0.4708
  150SAPE  H17R16598   6.617   0.835   7.655 -0.1034 -1.1726 -0.8502
  150SAPE  H17S16599   6.797   0.850   7.631 -0.0648  0.6165 -0.9303
  150SAPE  C21816600   6.726   0.698   7.777  0.5793 -0.4770  0.1372
  150SAPE  H18R16601   6.828   0.655   7.776  0.8147  0.0928 -0.6774
  150SAPE  H18S16602   6.655   0.613   7.789  0.4267 -0.5229 -0.9861
  150SAPE  C21916603   6.721   0.796   7.901 -0.2760 -0.9518  0.0034
  150SAPE  H19R16604   6.666   0.888   7.873 -0.0651 -0.5205  0.9569
  150SAPE  H19S16605   6.821   0.835   7.931 -0.0037 -1.9741  0.4613
  150SAPE  C22016606   6.657   0.730   8.020  0.3692  0.0073  0.3136
  150SAPE  H20R16607   6.709   0.636   8.047 -0.9737 -0.2544  2.1573
  150SAPE  H20S16608   6.550   0.709   7.998  0.5852  0.8277 -1.7652
  150SAPE  H20T16609   6.651   0.794   8.110  0.3532 -0.0387  0.3442
  150SAPE   C3316610   7.184   1.517   6.911  0.1080  0.5090 -0.3983
  150SAPE   H3X16611   7.170   1.407   6.899 -0.6760  0.1490  2.9275
  150SAPE   H3Y16612   7.137   1.566   6.823  0.4196 -2.0067 -2.0741
  150SAPE   C3416613   7.111   1.536   7.042  0.5411 -0.1588 -0.0250
  150SAPE   H4X16614   7.115   1.645   7.062 -2.1604  0.1519 -0.8254
  150SAPE   H4Y16615   7.169   1.498   7.130  1.7179  2.1288  0.2596
  150SAPE   C3516616   6.966   1.484   7.044 -0.4960 -0.1250 -0.5525
  150SAPE   H5X16617   6.952   1.381   7.006 -1.8098 -0.6514  1.2363
  150SAPE   H5Y16618   6.901   1.549   6.983 -0.8250  1.8087  1.6886
  150SAPE   C3616619   6.915   1.533   7.179  0.8535  0.0188  0.5784
  150SAPE   H6X16620   6.926   1.644   7.183 -1.3697  0.3184 -0.5080
  150SAPE   H6Y16621   6.977   1.493   7.262  0.4298 -3.3219 -0.5717
  150SAPE   C3716622   6.766   1.493   7.209  0.5476  0.1179 -0.8124
  150SAPE   H7X16623   6.762   1.384   7.228 -2.5990  0.4139  0.8074
  150SAPE   H7Y16624   6.693   1.507   7.126 -1.2113 -0.1980  0.6176
  150SAPE   C3816625   6.717   1.559   7.337  0.1154 -0.0052  0.3978
  150SAPE   H8X16626   6.721   1.669   7.322 -2.1151  0.1643  0.6511
  150SAPE   H8Y16627   6.790   1.548   7.420  1.4426  2.3474 -0.3752
  150SAPE   C3916628   6.581   1.515   7.386 -0.1148 -0.9787 -0.0058
  150SAPE   H9X16629   6.578   1.404   7.389 -1.6875 -1.1328 -2.9830
  150SAPE   H9Y16630   6.502   1.541   7.312  0.9420  0.8206 -0.5514
  150SAPE  C31016631   6.543   1.589   7.519 -0.0719 -0.8473 -0.3765
  150SAPE  H10X16632   6.537   1.698   7.503  2.3395 -0.5690  0.2792
  150SAPE  H10Y16633   6.619   1.572   7.598  0.2411  0.2288 -0.4325
  150SAPE  C31116634   6.412   1.544   7.573  0.0819 -0.7943 -0.2695
  150SAPE  H11X16635   6.416   1.437   7.601  0.7879 -0.3638  1.4069
  150SAPE  H11Y16636   6.329   1.558   7.500  2.0126  0.3447 -2.3813
  150SAPE  C31216637   6.357   1.620   7.705  0.6853 -0.8589 -0.3800
  150SAPE  H12X16638   6.368   1.730   7.693  1.9148 -0.6657  1.8500
  150SAPE  H12Y16639   6.415   1.585   7.794  0.3005 -0.2164  0.1358
  150SAPE  C31316640   6.201   1.603   7.721  0.4303 -0.5574 -0.2325
  150SAPE  H13X16641   6.170   1.497   7.735  0.2801 -0.2059  2.7226
  150SAPE  H13Y16642   6.155   1.639   7.627  0.3114  1.3849  0.5272
  150SAPE  C31416643   6.140   1.687   7.829  0.0496 -0.4685  0.1636
  150SAPE  H14X16644   6.036   1.721   7.818  1.0051  3.0850  0.9161
  150SAPE  H14Y16645   6.190   1.786   7.822 -0.0318 -0.4130  0.3682
  150SAPE  C31516646   6.171   1.635   7.969 -0.3010  0.4179  0.1358
  150SAPE  H15X16647   6.278   1.638   8.000 -0.3092 -0.6992  0.3084
  150SAPE  H15Y16648   6.148   1.526   7.972 -1.4145  0.6607  0.9010
  150SAPE  C31616649   6.092   1.706   8.084  0.2176 -0.0980 -0.3064
  150SAPE  H16X16650   5.985   1.691   8.058  0.1398  1.0682 -0.7422
  150SAPE  H16Y16651   6.104   1.816   8.077  0.4686 -0.0848  0.2740
  150SAPE  C31716652   6.126   1.658   8.227 -1.2413  0.1837 -0.3008
  150SAPE  H17X16653   6.075   1.731   8.293  0.6261  2.5589 -1.2827
  150SAPE  H17Y16654   6.235   1.667   8.247 -1.1517 -0.3295 -0.5305
  150SAPE  C31816655   6.088   1.515   8.256  0.2643  0.6741 -0.0666
  150SAPE  H18X16656   6.148   1.449   8.189  0.3879  0.9286 -0.2072
  150SAPE  H18Y16657   5.979   1.502   8.237  0.6695 -0.3118 -1.9444
  150SAPE  H18Z16658   6.111   1.481   8.359  1.9469  1.0117 -0.2965
  151SAPE     N16659   4.696   3.754   6.150 -0.6474 -0.7632 -0.0560
  151SAPE   HN116660   4.697   3.833   6.083 -3.6307  1.0650  1.8316
  151SAPE   HN216661   4.782   3.745   6.208 -0.8533  1.0759  0.5925
  151SAPE   HN316662   4.670   3.665   6.102 -0.9035 -0.9129  0.3597
  151SAPE   C1216663   4.582   3.765   6.251 -0.0802  0.4213 -0.3415
  151SAPE  H12A16664   4.582   3.669   6.307  2.9785 -0.0916 -1.0518
  151SAPE  H12B16665   4.486   3.772   6.196 -0.5849  0.5116  0.5349
  151SAPE   C1116666   4.611   3.884   6.343 -0.5110 -0.1667 -0.0559
  151SAPE  H11A16667   4.713   3.870   6.385 -1.3948 -0.6972  2.0037
  151SAPE  H11B16668   4.547   3.878   6.433 -2.2624  1.0659 -1.1453
  151SAPE     P16669   4.464   4.104   6.286  0.4513 -0.5789 -0.0304
  151SAPE   O1316670   4.521   4.247   6.272  0.0412  1.0980 -0.0793
  151SAPE   O1416671   4.356   4.067   6.194  0.4403 -0.1632 -0.6040
  151SAPE   O1216672   4.589   4.006   6.266  0.4918  0.7687  0.1530
  151SAPE   O1116673   4.416   4.079   6.434 -0.0088  0.3553  0.2134
  151SAPE    C116674   4.474   4.144   6.547 -0.0478  0.3025  0.0186
  151SAPE    HA16675   4.582   4.119   6.539 -0.0496  0.2954  0.0180
  151SAPE    HB16676   4.466   4.255   6.544  0.2220  0.3067 -1.8934
  151SAPE    C216677   4.416   4.087   6.685  0.4449 -0.2352  0.0475
  151SAPE    HS16678   4.315   4.132   6.698  0.5571  0.6548 -1.8567
  151SAPE   O2116679   4.504   4.118   6.796  0.3012 -0.7218  0.8446
  151SAPE   C2116680   4.486   4.238   6.850  0.3917  0.3497  0.1753
  151SAPE   O2216681   4.406   4.321   6.815 -0.2305 -0.1857 -0.3187
  151SAPE   C2216682   4.568   4.256   6.972 -0.7227  0.1923  0.1333
  151SAPE   H2R16683   4.678   4.264   6.954 -0.7996  1.8368  0.1996
  151SAPE   H2S16684   4.545   4.356   7.014 -3.7299  0.9283 -2.8568
  151SAPE    C316685   4.405   3.935   6.678  0.1728  0.5831 -0.3257
  151SAPE    HX16686   4.508   3.896   6.667 -0.3662 -1.0719  0.1736
  151SAPE    HY16687   4.359   3.895   6.585  1.3331 -0.3874 -0.5046
  151SAPE   O3116688   4.350   3.884   6.799  0.2800  0.1313 -0.1584
  151SAPE   C3116689   4.221   3.887   6.809  0.5549 -1.2869  0.7211
  151SAPE   O3216690   4.142   3.959   6.748  0.2309  0.3959 -0.4868
  151SAPE   C3216691   4.171   3.802   6.921  0.1059 -0.1824  0.4496
  151SAPE   H2X16692   4.247   3.722   6.933 -0.2555 -0.5308  0.4271
  151SAPE   H2Y16693   4.079   3.748   6.892 -0.1935 -0.4385  1.8254
  151SAPE   C2316694   4.551   4.140   7.079 -0.9508 -0.7526  0.1980
  151SAPE   H3R16695   4.559   4.042   7.027  0.0272  0.0442 -1.2211
  151SAPE   H3S16696   4.447   4.132   7.117 -0.2317  0.5180  2.6082
  151SAPE   C2416697   4.648   4.154   7.189 -0.6314  0.2255  0.0588
  151SAPE   H4R16698   4.739   4.127   7.130 -2.3580 -2.0055 -1.7688
  151SAPE   H4S16699   4.639   4.078   7.268 -0.7485  0.2557  0.0742
  151SAPE   C2516700   4.667   4.289   7.257 -0.2114  0.0865  0.4157
  151SAPE   H5R16701   4.693   4.371   7.189 -0.7957 -0.6473 -0.7329
  151SAPE   C2616702   4.666   4.316   7.394 -1.1502  0.0815  0.5535
  151SAPE   H6R16703   4.677   4.421   7.426 -2.6163 -0.1115  1.8304
  151SAPE   C2716704   4.640   4.230   7.510  0.0128 -0.3357  0.1739
  151SAPE   H7R16705   4.739   4.200   7.552  0.7715  0.7861 -0.7435
  151SAPE   H7S16706   4.587   4.137   7.480  0.4490 -0.6304  0.2981
  151SAPE   C2816707   4.536   4.297   7.595  0.2547  0.4721 -0.5756
  151SAPE   H8R16708   4.443   4.327   7.547 -0.3540 -0.7016 -0.1748
  151SAPE   C2916709   4.550   4.341   7.725  0.0200  0.1264 -0.0089
  151SAPE   H9R16710   4.468   4.375   7.790 -0.4184 -1.3434  0.2382
  151SAPE  C21016711   4.675   4.321   7.800  0.1285 -0.1624  0.0609
  151SAPE  H10R16712   4.736   4.241   7.752  0.9029  0.9179 -0.7814
  151SAPE  H10S16713   4.665   4.288   7.906 -1.3273  0.7556  0.2259
  151SAPE  C21116714   4.753   4.450   7.814  0.0900  0.8692 -0.8513
  151SAPE  H11R16715   4.826   4.451   7.731  1.1691  0.9127  0.0815
  151SAPE  C21216716   4.751   4.538   7.911 -0.2315 -0.0812 -0.0795
  151SAPE  H12R16717   4.814   4.628   7.900 -1.6302  1.1190  1.2726
  151SAPE  C21316718   4.658   4.523   8.029  0.0274 -0.0121  0.5645
  151SAPE  H13R16719   4.575   4.452   8.008 -1.9035  2.1374  0.5805
  151SAPE  H13S16720   4.596   4.614   8.042 -2.9065 -2.0945  2.4549
  151SAPE  C21416721   4.734   4.485   8.156  0.2486  1.2313  0.1298
  151SAPE  H14R16722   4.841   4.463   8.145  0.0901  0.4967  0.0028
  151SAPE  C21516723   4.683   4.485   8.276  0.0732  0.1635 -0.8345
  151SAPE  H15R16724   4.756   4.457   8.354 -0.9980 -1.4865 -0.3688
  151SAPE  C21616725   4.546   4.531   8.317  0.4189  0.0731  0.0760
  151SAPE  H16R16726   4.499   4.587   8.234 -2.7790 -0.5805  1.2735
  151SAPE  H16S16727   4.550   4.614   8.391  0.9878 -0.9823  1.2809
  151SAPE  C21716728   4.456   4.415   8.369  0.4269 -0.1465  0.2675
  151SAPE  H17R16729   4.355   4.458   8.386 -0.3203 -1.9342  0.6604
  151SAPE  H17S16730   4.503   4.389   8.467  1.0903  1.3632  0.3790
  151SAPE  C21816731   4.421   4.301   8.275 -0.3021 -0.8885 -0.8103
  151SAPE  H18R16732   4.513   4.241   8.283  1.5483  1.6242 -1.8501
  151SAPE  H18S16733   4.415   4.328   8.167  2.7158  1.0722 -0.6012
  151SAPE  C21916734   4.294   4.218   8.315  0.3190 -0.0080  0.7406
  151SAPE  H19R16735   4.212   4.290   8.293 -0.2905  0.2842  3.5941
  151SAPE  H19S16736   4.308   4.203   8.424  1.7200  1.6846  0.8348
  151SAPE  C22016737   4.273   4.080   8.252  0.4940  0.0179 -0.2625
  151SAPE  H20R16738   4.351   4.009   8.288  1.2503  0.9858  0.0674
  151SAPE  H20S16739   4.175   4.030   8.263  0.1461  0.9316  1.0503
  151SAPE  H20T16740   4.292   4.081   8.142 -1.5892  0.2783 -0.6656
  151SAPE   C3316741   4.160   3.872   7.059  0.4992 -0.4516  0.3133
  151SAPE   H3X16742   4.051   3.881   7.082  0.0255  0.0563 -1.8833
  151SAPE   H3Y16743   4.188   3.979   7.045 -0.3998 -0.2092  0.2941
  151SAPE   C3416744   4.236   3.811   7.175 -0.2267 -0.2375 -0.3293
  151SAPE   H4X16745   4.339   3.779   7.149  0.2921  2.2773 -1.6632
  151SAPE   H4Y16746   4.200   3.714   7.214 -0.9990 -0.2157 -0.9681
  151SAPE   C3516747   4.250   3.903   7.296  0.6709  0.3125  0.5616
  151SAPE   H5X16748   4.149   3.924   7.337  0.6953  1.9131 -0.1289
  151SAPE   H5Y16749   4.288   4.004   7.270 -0.4962  1.0854  1.7457
  151SAPE   C3616750   4.340   3.847   7.407  0.4011 -0.1460  0.0718
  151SAPE   H6X16751   4.450   3.853   7.388  0.3199  1.2191 -0.0979
  151SAPE   H6Y16752   4.326   3.738   7.419  2.7084 -0.7563 -1.8027
  151SAPE   C3716753   4.312   3.934   7.531 -1.0909 -0.2666 -0.2596
  151SAPE   H7X16754   4.207   3.926   7.568 -1.0609  1.7616  0.3988
  151SAPE   H7Y16755   4.337   4.039   7.503  3.1678 -0.6989  1.2910
  151SAPE   C3816756   4.396   3.898   7.657 -0.1716  0.4860 -0.1845
  151SAPE   H8X16757   4.503   3.903   7.626 -0.1146 -0.4383 -0.1660
  151SAPE   H8Y16758   4.370   3.795   7.688 -0.3521  0.5080 -0.2605
  151SAPE   C3916759   4.388   3.991   7.778  0.2282 -0.3130  0.0873
  151SAPE   H9X16760   4.282   4.006   7.809  0.1944 -1.5259  0.5932
  151SAPE   H9Y16761   4.427   4.090   7.744  0.9945 -0.6013  0.1206
  151SAPE  C31016762   4.474   3.951   7.901 -0.0440 -0.1337 -0.1901
  151SAPE  H10X16763   4.480   4.027   7.981  2.2509 -0.1387 -0.2872
  151SAPE  H10Y16764   4.582   3.950   7.875 -0.0932  0.8591 -0.4913
  151SAPE  C31116765   4.430   3.816   7.959  0.4025 -0.1781  0.6761
  151SAPE  H11X16766   4.426   3.744   7.874 -1.1823  0.5074  0.1173
  151SAPE  H11Y16767   4.322   3.827   7.985 -0.1827 -0.8210 -1.2475
  151SAPE  C31216768   4.505   3.761   8.073  0.1995 -0.5630 -0.5869
  151SAPE  H12X16769   4.522   3.827   8.161  0.8238 -1.9716  0.3912
  151SAPE  H12Y16770   4.610   3.733   8.050  0.3475 -0.3397 -0.1945
  151SAPE  C31316771   4.441   3.630   8.135 -0.2854 -0.3411 -0.0633
  151SAPE  H13X16772   4.519   3.571   8.189 -0.6547 -0.4309  0.3764
  151SAPE  H13Y16773   4.414   3.556   8.058  3.2046 -1.9807  0.0762
  151SAPE  C31416774   4.318   3.661   8.222 -0.2140 -0.1598 -0.6188
  151SAPE  H14X16775   4.231   3.659   8.152 -1.8787  0.7592  1.3261
  151SAPE  H14Y16776   4.337   3.762   8.264  0.9699 -0.4897 -0.3382
  151SAPE  C31516777   4.296   3.567   8.340  0.6139 -0.2149 -0.5846
  151SAPE  H15X16778   4.211   3.581   8.410  1.7057  0.7979  0.5933
  151SAPE  H15Y16779   4.383   3.585   8.407 -0.7048  0.6272  0.9714
  151SAPE  C31616780   4.269   3.418   8.302  0.5864 -0.0902  0.1262
  151SAPE  H16X16781   4.360   3.381   8.249 -0.9742 -2.0546 -1.3540
  151SAPE  H16Y16782   4.183   3.420   8.232 -1.5203  1.9269  2.6033
  151SAPE  C31716783   4.245   3.339   8.430  0.1230  0.0601 -0.1802
  151SAPE  H17X16784   4.153   3.380   8.476  0.1174 -0.8532  0.6633
  151SAPE  H17Y16785   4.322   3.361   8.507  1.7941 -1.1913 -1.4270
  151SAPE  C31816786   4.235   3.187   8.399  0.6541 -0.3660 -0.4083
  151SAPE  H18X16787   4.335   3.141   8.382  0.2330 -0.9679 -1.3524
  151SAPE  H18Y16788   4.164   3.176   8.314  0.3053  0.8281 -0.2917
  151SAPE  H18Z16789   4.190   3.143   8.490 -3.0786 -0.1562 -1.9685
  152SAPE     N16790   5.257   1.976   6.246  0.2021  0.4413 -0.1168
  152SAPE   HN116791   5.208   2.056   6.202 -1.7202 -1.4856 -1.7071
  152SAPE   HN216792   5.261   1.900   6.175  0.1303  1.0817 -0.8093
  152SAPE   HN316793   5.211   1.948   6.335 -0.2859  0.4104 -0.3742
  152SAPE   C1216794   5.394   2.015   6.281 -0.2168  0.9459 -0.2097
  152SAPE  H12A16795   5.454   2.055   6.196 -0.3440  1.0340 -0.2579
  152SAPE  H12B16796   5.437   1.918   6.315 -1.8479  0.0151 -0.6705
  152SAPE   C1116797   5.410   2.107   6.410 -0.6238  0.3265  0.1406
  152SAPE  H11A16798   5.520   2.109   6.428 -0.9130  0.3315  2.0300
  152SAPE  H11B16799   5.363   2.058   6.497  3.5594 -1.2042  1.8122
  152SAPE     P16800   5.448   2.356   6.374 -0.1062 -0.0629  0.3764
  152SAPE   O1316801   5.547   2.295   6.282 -0.0775 -0.3981  0.4986
  152SAPE   O1416802   5.371   2.472   6.317  0.2524  0.1712 -0.2621
  152SAPE   O1216803   5.352   2.232   6.399  0.2854  0.2797 -0.3859
  152SAPE   O1116804   5.523   2.397   6.503  0.5503 -0.7590 -0.2269
  152SAPE    C116805   5.478   2.353   6.636  0.3128  0.6369 -0.1842
  152SAPE    HA16806   5.385   2.293   6.629 -0.2109  1.6158 -3.1068
  152SAPE    HB16807   5.557   2.298   6.692 -0.4647  0.2786  0.5841
  152SAPE    C216808   5.462   2.479   6.732  0.3051  0.1300  0.3807
  152SAPE    HS16809   5.563   2.522   6.746  0.8657 -1.6122  2.0473
  152SAPE   O2116810   5.413   2.436   6.861 -0.1136  0.2534 -0.0832
  152SAPE   C2116811   5.443   2.514   6.959  0.0582 -0.1580  0.3944
  152SAPE   O2216812   5.514   2.607   6.953  0.5026 -0.8933  0.1258
  152SAPE   C2216813   5.372   2.455   7.088  0.1262  0.3050  0.1215
  152SAPE   H2R16814   5.291   2.384   7.063 -2.6782  2.9573  1.0014
  152SAPE   H2S16815   5.447   2.404   7.152 -1.1071 -0.6270  0.8623
  152SAPE    C316816   5.364   2.585   6.661 -0.2096 -0.3883 -0.4606
  152SAPE    HX16817   5.268   2.529   6.667  0.1922 -0.9674  3.5982
  152SAPE    HY16818   5.386   2.604   6.554  0.4739  0.1212 -0.2336
  152SAPE   O3116819   5.332   2.702   6.729 -0.6819 -0.4863 -0.1169
  152SAPE   C3116820   5.423   2.800   6.718  0.3714  0.2428 -0.2580
  152SAPE   O3216821   5.534   2.789   6.669  0.3415  0.3107  0.6597
  152SAPE   C3216822   5.364   2.934   6.778  0.0796  0.3603 -0.2370
  152SAPE   H2X16823   5.341   2.986   6.683 -1.0298 -1.4373 -1.0203
  152SAPE   H2Y16824   5.458   2.975   6.819 -0.0411  0.1361  0.2648
  152SAPE   C2316825   5.315   2.567   7.177  0.3527 -0.9431 -0.0831
  152SAPE   H3R16826   5.229   2.599   7.113 -0.1616 -0.2123  0.9531
  152SAPE   H3S16827   5.378   2.658   7.191 -1.3840  0.6916 -2.1407
  152SAPE   C2416828   5.258   2.524   7.309  0.0185 -0.0284 -0.1538
  152SAPE   H4R16829   5.207   2.427   7.297 -1.1473  0.5647 -0.0708
  152SAPE   H4S16830   5.181   2.595   7.345  0.2683 -1.0397  2.6765
  152SAPE   C2516831   5.367   2.517   7.420 -0.0763 -0.5470  0.3381
  152SAPE   H5R16832   5.460   2.567   7.391 -1.0300  0.6430 -0.8198
  152SAPE   C2616833   5.366   2.445   7.531 -0.1881  0.0325  0.1209
  152SAPE   H6R16834   5.450   2.462   7.600 -0.4952 -0.2423  0.5695
  152SAPE   C2716835   5.263   2.342   7.568 -0.1800 -0.0854 -0.9063
  152SAPE   H7R16836   5.301   2.238   7.557 -0.9916 -0.5112  0.0687
  152SAPE   H7S16837   5.174   2.344   7.501  0.8116 -1.3086 -2.3339
  152SAPE   C2816838   5.225   2.343   7.716  0.0040  0.1345 -0.0832
  152SAPE   H8R16839   5.119   2.359   7.740 -0.4233  2.0750 -2.7579
  152SAPE   C2916840   5.295   2.295   7.817 -0.2989  0.1500 -0.6309
  152SAPE   H9R16841   5.260   2.312   7.920  0.3112  0.3099 -0.4446
  152SAPE  C21016842   5.430   2.223   7.813  0.0284  1.2482  0.1268
  152SAPE  H10R16843   5.501   2.275   7.881  1.0849  0.8822 -0.6633
  152SAPE  H10S16844   5.479   2.235   7.714  1.1794 -2.1618  0.1505
  152SAPE  C21116845   5.422   2.076   7.844  0.5144  0.0047 -0.4065
  152SAPE  H11R16846   5.401   2.008   7.760 -1.4331 -0.1514  0.1709
  152SAPE  C21216847   5.450   2.020   7.967  0.0291 -0.6972 -0.1007
  152SAPE  H12R16848   5.449   1.912   7.988 -2.2242 -0.2409  2.8784
  152SAPE  C21316849   5.490   2.094   8.093  0.0177 -0.2801  0.0885
  152SAPE  H13R16850   5.438   2.048   8.179  1.3950 -2.5798 -0.2102
  152SAPE  H13S16851   5.466   2.202   8.080 -0.4977 -0.4408 -0.2935
  152SAPE  C21416852   5.645   2.081   8.113  0.4004 -0.0521  0.5854
  152SAPE  H14R16853   5.706   2.098   8.023 -0.8107 -1.1125 -0.4809
  152SAPE  C21516854   5.714   2.061   8.226  1.0144  0.6713 -0.5403
  152SAPE  H15R16855   5.823   2.072   8.233  1.3521 -1.8591 -0.9857
  152SAPE  C21616856   5.646   2.033   8.365 -0.2845 -0.3780  0.4720
  152SAPE  H16R16857   5.536   2.022   8.356 -0.4914  2.0110 -0.7146
  152SAPE  H16S16858   5.664   2.127   8.422  0.7531  1.1235 -2.1268
  152SAPE  C21716859   5.715   1.914   8.437 -0.5104  0.0743 -0.0173
  152SAPE  H17R16860   5.706   1.821   8.377  2.9495  0.0466 -0.6827
  152SAPE  H17S16861   5.666   1.879   8.530  1.5437  0.2938  1.2010
  152SAPE  C21816862   5.862   1.939   8.475 -0.2701 -0.2924  0.8555
  152SAPE  H18R16863   5.873   2.045   8.504  1.3639  0.4167 -2.0087
  152SAPE  H18S16864   5.920   1.911   8.385 -0.1867 -3.3280  1.7438
  152SAPE  C21916865   5.912   1.842   8.590 -0.2169 -0.8177  0.5414
  152SAPE  H19R16866   5.840   1.864   8.672 -0.4337  1.0433 -0.1051
  152SAPE  H19S16867   6.012   1.883   8.614 -1.0908  0.4714  2.1887
  152SAPE  C22016868   5.918   1.688   8.574  0.8718 -0.8171  0.5557
  152SAPE  H20R16869   5.956   1.634   8.663  1.0014  1.2070  1.8047
  152SAPE  H20S16870   5.974   1.660   8.483 -1.2276 -0.0601 -1.0490
  152SAPE  H20T16871   5.811   1.658   8.565  1.2152 -2.2922  1.1703
  152SAPE   C3316872   5.242   2.931   6.876 -0.5913 -0.0001 -0.1702
  152SAPE   H3X16873   5.175   2.847   6.849 -1.8510 -0.2141  3.1423
  152SAPE   H3Y16874   5.202   3.034   6.858 -0.3310  0.4715  1.7834
  152SAPE   C3416875   5.291   2.911   7.023 -0.1915 -0.1037 -0.3498
  152SAPE   H4X16876   5.382   2.961   7.062 -1.7864  1.8051  1.1600
  152SAPE   H4Y16877   5.323   2.804   7.024  2.6578  0.6655 -0.6567
  152SAPE   C3516878   5.187   2.951   7.128 -0.1349 -0.0109  0.1667
  152SAPE   H5X16879   5.090   2.903   7.102 -0.0436  0.1257 -0.4366
  152SAPE   H5Y16880   5.169   3.060   7.141  2.6202  0.3865  1.1492
  152SAPE   C3616881   5.219   2.909   7.269  0.2255  0.1908 -0.6965
  152SAPE   H6X16882   5.299   2.980   7.299 -0.0261  0.1167  0.1874
  152SAPE   H6Y16883   5.254   2.803   7.278 -0.7554 -0.0462  0.7216
  152SAPE   C3716884   5.103   2.911   7.370  0.3565 -0.1162 -0.6187
  152SAPE   H7X16885   5.024   2.844   7.329 -0.3030 -1.3332  2.3894
  152SAPE   H7Y16886   5.058   3.013   7.363 -0.2108 -0.3926 -1.1008
  152SAPE   C3816887   5.142   2.852   7.507  0.3531  0.6196 -0.4775
  152SAPE   H8X16888   5.231   2.907   7.546  0.0819 -0.0866  1.2191
  152SAPE   H8Y16889   5.185   2.751   7.490  0.1411  0.6656 -1.3017
  152SAPE   C3916890   5.033   2.833   7.614  0.3823  0.7927  0.5157
  152SAPE   H9X16891   4.964   2.751   7.586  0.8858  0.4259  0.3359
  152SAPE   H9Y16892   4.986   2.932   7.596  0.4083  0.3048 -2.9091
  152SAPE  C31016893   5.088   2.808   7.759 -0.3464  0.1565 -0.3365
  152SAPE  H10X16894   5.186   2.861   7.761  0.6208 -1.4836 -1.7870
  152SAPE  H10Y16895   5.115   2.701   7.762 -3.1966 -0.8599 -3.9306
  152SAPE  C31116896   5.006   2.846   7.888  0.6923 -0.0133  0.1123
  152SAPE  H11X16897   4.903   2.806   7.885  0.9045 -0.5943  0.4339
  152SAPE  H11Y16898   4.989   2.956   7.897  0.8495 -0.0146  0.4565
  152SAPE  C31216899   5.074   2.799   8.022 -0.3572 -0.1637 -1.0046
  152SAPE  H12X16900   5.023   2.832   8.115  3.0635 -2.7912  2.1008
  152SAPE  H12Y16901   5.170   2.855   8.027  0.1623 -1.1099  2.1040
  152SAPE  C31316902   5.094   2.647   8.034 -0.6598 -0.4387 -0.4303
  152SAPE  H13X16903   5.191   2.628   7.983 -0.7897  0.6336 -1.1071
  152SAPE  H13Y16904   5.013   2.602   7.972  0.1278  0.8828 -2.5235
  152SAPE  C31416905   5.089   2.596   8.177 -0.0504 -0.3371  0.6069
  152SAPE  H14X16906   4.996   2.628   8.228 -0.2580 -0.1353  0.1078
  152SAPE  H14Y16907   5.175   2.651   8.222  1.1099 -0.7279 -1.0115
  152SAPE  C31516908   5.124   2.448   8.194 -0.1853 -0.8155 -0.3653
  152SAPE  H15X16909   5.209   2.421   8.129  1.5572  1.2114  0.9408
  152SAPE  H15Y16910   5.040   2.389   8.153  0.6046 -0.9810 -1.7947
  152SAPE  C31616911   5.163   2.419   8.345 -0.0543  0.1458  0.8371
  152SAPE  H16X16912   5.067   2.432   8.401 -0.0106  0.0611  0.9334
  152SAPE  H16Y16913   5.233   2.496   8.382 -1.4053  1.9722 -0.2531
  152SAPE  C31716914   5.216   2.276   8.372 -0.3305  0.6318 -0.2047
  152SAPE  H17X16915   5.302   2.254   8.306  0.0185  0.7687  0.2044
  152SAPE  H17Y16916   5.130   2.206   8.357 -0.0803  0.2779 -0.0066
  152SAPE  C31816917   5.268   2.243   8.510  0.5247  0.4888 -0.6955
  152SAPE  H18X16918   5.353   2.304   8.547 -0.4714  1.4354  0.1075
  152SAPE  H18Y16919   5.310   2.140   8.506  1.7507  1.0147 -3.3847
  152SAPE  H18Z16920   5.183   2.249   8.581 -1.2217  0.4229 -2.6764
  153SAPE     N16921   3.950   4.120   6.275  0.8501  0.0158 -0.1917
  153SAPE   HN116922   3.875   4.166   6.219  0.6632  0.3835  0.3597
  153SAPE   HN216923   3.908   4.092   6.366  2.7080 -0.0172  0.7089
  153SAPE   HN316924   4.022   4.193   6.293  1.8892 -1.0276  0.0224
  153SAPE   C1216925   3.994   3.997   6.194  0.6097  0.0339  0.2504
  153SAPE  H12A16926   4.036   3.927   6.269  2.2977  0.4222 -0.2979
  153SAPE  H12B16927   4.073   4.027   6.122  1.1651  1.5393  1.4238
  153SAPE   C1116928   3.868   3.938   6.136 -0.2045  0.4538 -0.1848
  153SAPE  H11A16929   3.890   3.841   6.086  0.9747  1.0591 -0.8834
  153SAPE  H11B16930   3.823   3.996   6.053 -1.0995 -1.4577 -1.0940
  153SAPE     P16931   3.719   3.786   6.292  0.0477  0.1560 -0.0648
  153SAPE   O1316932   3.643   3.804   6.416 -0.0444 -0.1579  0.0196
  153SAPE   O1416933   3.657   3.709   6.182 -0.4144  0.0932  0.2171
  153SAPE   O1216934   3.763   3.931   6.237 -0.2939  0.6048  0.6945
  153SAPE   O1116935   3.865   3.720   6.319 -0.1052  0.2609 -0.1619
  153SAPE    C116936   3.921   3.723   6.449 -0.4381 -0.8549  0.6988
  153SAPE    HA16937   4.021   3.769   6.433 -1.2489  0.8313  0.2286
  153SAPE    HB16938   3.881   3.808   6.509 -0.4032 -0.4171  0.1078
  153SAPE    C216939   3.928   3.585   6.516  0.0324 -0.5824 -0.2482
  153SAPE    HS16940   3.981   3.511   6.453 -1.5901 -0.9662 -1.2217
  153SAPE   O2116941   3.790   3.545   6.537 -0.0147  0.3401  0.2250
  153SAPE   C2116942   3.765   3.418   6.537 -0.7784  0.6895 -0.6063
  153SAPE   O2216943   3.850   3.331   6.515  0.3017  0.5934  0.3598
  153SAPE   C2216944   3.616   3.392   6.568  0.6528 -0.6269  0.2437
  153SAPE   H2R16945   3.556   3.441   6.488 -1.7764 -0.6892  1.9296
  153SAPE   H2S16946   3.601   3.282   6.563  1.6382 -0.7684  0.3260
  153SAPE    C316947   3.995   3.600   6.654 -0.1492  0.4504 -0.4638
  153SAPE    HX16948   3.932   3.669   6.715  1.6323  1.6299  0.1264
  153SAPE    HY16949   4.088   3.661   6.648  0.9502 -1.1302 -0.0637
  153SAPE   O3116950   4.019   3.470   6.714  0.0032 -0.5719  0.3620
  153SAPE   C3116951   4.139   3.415   6.702  0.1855 -0.3422 -0.3831
  153SAPE   O3216952   4.243   3.473   6.667 -0.2386  0.2968 -0.5651
  153SAPE   C3216953   4.135   3.266   6.728  0.6371  0.0172  0.4222
  153SAPE   H2X16954   4.231   3.226   6.689 -0.7002  0.1386 -3.4470
  153SAPE   H2Y16955   4.046   3.229   6.674 -0.6319 -0.3853  2.6530
  153SAPE   C2316956   3.565   3.446   6.703 -0.8597  0.6286 -0.2387
  153SAPE   H3R16957   3.456   3.461   6.687 -1.0598 -0.3273  0.1298
  153SAPE   H3S16958   3.609   3.543   6.732  2.2490 -1.0319  1.1181
  153SAPE   C2416959   3.578   3.359   6.830  0.2089 -0.3484  0.5655
  153SAPE   H4R16960   3.677   3.310   6.840  0.1738 -1.0022 -1.7827
  153SAPE   H4S16961   3.504   3.278   6.816 -1.2567  1.3318 -2.2804
  153SAPE   C2516962   3.559   3.440   6.959  0.4636  0.2917  0.2149
  153SAPE   H5R16963   3.467   3.502   6.962 -0.2056 -0.6645 -0.0491
  153SAPE   C2616964   3.638   3.452   7.065 -0.5854 -0.1115 -0.1053
  153SAPE   H6R16965   3.609   3.508   7.155  0.9812 -0.8153  0.8839
  153SAPE   C2716966   3.760   3.374   7.096 -0.1909  0.4756 -0.0245
  153SAPE   H7R16967   3.778   3.290   7.025 -1.2550 -0.3431  0.6439
  153SAPE   H7S16968   3.732   3.331   7.195 -0.3969  0.6852  0.0103
  153SAPE   C2816969   3.874   3.470   7.109  0.1033  0.1076  0.8490
  153SAPE   H8R16970   3.891   3.532   7.020  3.1199 -0.5550  0.8771
  153SAPE   C2916971   3.953   3.486   7.211 -0.1161  0.1772 -0.1880
  153SAPE   H9R16972   4.034   3.560   7.200 -0.6252  0.7081 -0.4610
  153SAPE  C21016973   3.938   3.409   7.346 -0.7827 -1.0185  0.9668
  153SAPE  H10R16974   4.025   3.446   7.406 -1.0259 -0.3778  0.9379
  153SAPE  H10S16975   3.948   3.300   7.326  0.9566 -0.7789  0.2918
  153SAPE  C21116976   3.817   3.435   7.435 -0.2859  0.6177 -0.4412
  153SAPE  H11R16977   3.780   3.537   7.417 -0.3230  0.8356  0.7540
  153SAPE  C21216978   3.755   3.342   7.517 -0.2183 -0.2561  0.1896
  153SAPE  H12R16979   3.678   3.382   7.585 -1.7405  1.1133 -2.2096
  153SAPE  C21316980   3.797   3.194   7.543 -0.0730 -0.9198 -0.0491
  153SAPE  H13R16981   3.855   3.190   7.638 -1.2345 -0.4991  0.6978
  153SAPE  H13S16982   3.861   3.155   7.461 -0.8772  1.4094 -1.8911
  153SAPE  C21416983   3.669   3.116   7.553 -0.3663 -0.0894 -1.1829
  153SAPE  H14R16984   3.603   3.130   7.466 -1.6585  2.5004  0.1024
  153SAPE  C21516985   3.623   3.065   7.670  0.7450  0.4253 -0.0282
  153SAPE  H15R16986   3.531   3.006   7.660  1.2621 -1.1444  3.1373
  153SAPE  C21616987   3.687   3.063   7.803  0.0503 -0.5564  0.0523
  153SAPE  H16R16988   3.781   3.123   7.798 -0.5129  0.2799 -1.4423
  153SAPE  H16S16989   3.708   2.961   7.840  0.2119  0.2386  2.2803
  153SAPE  C21716990   3.596   3.121   7.914 -0.0768 -0.2520  0.1007
  153SAPE  H17R16991   3.663   3.122   8.003  1.4005 -1.2093 -0.9542
  153SAPE  H17S16992   3.508   3.054   7.927 -0.0582 -0.5904 -1.3552
  153SAPE  C21816993   3.546   3.267   7.883  0.0422 -0.4336 -0.5314
  153SAPE  H18R16994   3.454   3.267   7.821  0.7643  0.8007 -1.6506
  153SAPE  H18S16995   3.625   3.314   7.820 -0.8561  3.6022  1.0390
  153SAPE  C21916996   3.503   3.355   7.996  0.2204 -0.2153 -0.6582
  153SAPE  H19R16997   3.494   3.459   7.958  1.8461 -0.2511 -1.2312
  153SAPE  H19S16998   3.577   3.346   8.079 -0.6945 -0.0697  0.1908
  153SAPE  C22016999   3.367   3.302   8.054  0.1770 -0.3846  0.8343
  153SAPE  H20R17000   3.337   3.352   8.149 -0.3709 -1.0127  1.0008
  153SAPE  H20S17001   3.362   3.191   8.064  1.6644 -0.6476 -0.7957
  153SAPE  H20T17002   3.291   3.327   7.978  3.2061  1.0608 -2.0039
  153SAPE   C3317003   4.111   3.238   6.881 -0.2744 -0.0893 -0.2014
  153SAPE   H3X17004   4.015   3.184   6.895 -0.4443  0.3843  0.4964
  153SAPE   H3Y17005   4.106   3.332   6.939 -1.3947 -0.1794 -0.1333
  153SAPE   C3417006   4.224   3.156   6.956 -0.6810  0.8539  0.3013
  153SAPE   H4X17007   4.209   3.179   7.064  0.7337  0.7027  0.5388
  153SAPE   H4Y17008   4.318   3.212   6.940 -0.9754  1.0403 -0.8757
  153SAPE   C3517009   4.226   3.002   6.928 -0.0238 -0.2836 -0.9725
  153SAPE   H5X17010   4.335   2.978   6.925  0.9658  2.6866  2.9481
  153SAPE   H5Y17011   4.182   2.986   6.827 -3.1816  0.1290  0.2457
  153SAPE   C3617012   4.144   2.915   7.021  0.2378 -0.2000  0.9566
  153SAPE   H6X17013   4.155   2.808   6.994 -1.9551  0.2221 -2.0153
  153SAPE   H6Y17014   4.037   2.932   6.995  1.2258  2.1158 -2.1239
  153SAPE   C3717015   4.167   2.946   7.169  1.0025  0.2365 -0.2125
  153SAPE   H7X17016   4.121   3.044   7.192 -0.3917 -0.6772  1.0599
  153SAPE   H7Y17017   4.277   2.953   7.189  0.7768 -0.2540  1.3008
  153SAPE   C3817018   4.091   2.857   7.269  0.3296  0.5341  0.1200
  153SAPE   H8X17019   4.109   2.750   7.247  2.4248  0.4244  2.0787
  153SAPE   H8Y17020   3.985   2.877   7.240  0.6325  2.1963  0.0647
  153SAPE   C3917021   4.126   2.893   7.415 -0.0696 -0.6190 -0.3094
  153SAPE   H9X17022   4.090   2.991   7.454 -0.4523 -1.3775  1.3259
  153SAPE   H9Y17023   4.237   2.895   7.420 -0.0823 -1.0143  0.1458
  153SAPE  C31017024   4.091   2.787   7.534  0.4168 -0.2158  0.0112
  153SAPE  H10X17025   4.159   2.700   7.540 -0.0136 -0.4992  1.0473
  153SAPE  H10Y17026   3.985   2.756   7.521 -0.5076  1.7906  2.1571
  153SAPE  C31117027   4.067   2.866   7.665 -0.4535 -0.0718  0.1176
  153SAPE  H11X17028   3.985   2.938   7.650 -0.6747 -0.4617 -0.5905
  153SAPE  H11Y17029   4.161   2.923   7.681  0.3843 -1.2497 -0.4115
  153SAPE  C31217030   4.028   2.795   7.786 -0.0958  0.7466 -0.5929
  153SAPE  H12X17031   4.080   2.701   7.814 -2.9929 -0.5982  0.6682
  153SAPE  H12Y17032   3.921   2.772   7.766 -0.1946  1.1517 -0.5478
  153SAPE  C31317033   4.027   2.883   7.915 -0.8067 -0.7203 -0.6213
  153SAPE  H13X17034   3.962   2.972   7.903 -2.1686 -0.9493  3.3537
  153SAPE  H13Y17035   4.131   2.914   7.937 -1.5149  0.1781  1.8514
  153SAPE  C31417036   3.969   2.797   8.028  0.2496  0.2146  0.3533
  153SAPE  H14X17037   4.021   2.699   8.033 -0.9628 -0.4233  0.9938
  153SAPE  H14Y17038   3.866   2.759   8.010  0.1836  1.0483 -1.1691
  153SAPE  C31517039   3.964   2.859   8.169 -0.2383  0.5911  0.1586
  153SAPE  H15X17040   3.910   2.954   8.146  0.5890  1.4779  1.7471
  153SAPE  H15Y17041   4.067   2.876   8.207  0.1809 -1.0422 -0.1499
  153SAPE  C31617042   3.885   2.791   8.284  0.4841  0.4009  0.9320
  153SAPE  H16X17043   3.900   2.859   8.371 -1.4220 -1.3368  2.7469
  153SAPE  H16Y17044   3.936   2.694   8.300  1.0729  0.4747 -0.4221
  153SAPE  C31717045   3.740   2.768   8.272 -0.4434 -0.0910 -0.2681
  153SAPE  H17X17046   3.718   2.712   8.179  1.2693  0.6413 -1.1619
  153SAPE  H17Y17047   3.696   2.870   8.269  2.7647  1.4683  0.5755
  153SAPE  C31817048   3.685   2.697   8.394  0.0982  0.7886  0.8611
  153SAPE  H18X17049   3.576   2.694   8.377  0.1327  1.4923  0.4904
  153SAPE  H18Y17050   3.696   2.750   8.491  3.8717  0.8001  0.5924
  153SAPE  H18Z17051   3.722   2.593   8.399 -0.9702  0.4243  1.5151
  154SAPE     N17052   6.527   3.193   6.312  0.3956 -0.7499 -0.6129
  154SAPE   HN117053   6.568   3.098   6.324  0.0706 -0.9796 -1.2731
  154SAPE   HN217054   6.567   3.245   6.392  1.2764 -1.3818 -0.6399
  154SAPE   HN317055   6.426   3.180   6.334  0.1801  2.1566  0.6256
  154SAPE   C1217056   6.554   3.251   6.170  0.3430 -0.3107 -0.2928
  154SAPE  H12A17057   6.663   3.270   6.160  0.2623 -0.8549 -2.7334
  154SAPE  H12B17058   6.495   3.344   6.161  1.8505  0.7305  0.1708
  154SAPE   C1117059   6.510   3.147   6.064  0.1962 -0.8735 -0.4781
  154SAPE  H11A17060   6.504   3.188   5.961  0.0539 -1.2044 -0.6008
  154SAPE  H11B17061   6.409   3.106   6.083 -0.3605  0.4991 -0.3107
  154SAPE     P17062   6.574   2.886   6.105  0.1677 -0.4133 -0.2165
  154SAPE   O1317063   6.438   2.840   6.063 -0.2722 -1.0699  0.4565
  154SAPE   O1417064   6.686   2.810   6.053 -0.0505  0.4637 -0.0685
  154SAPE   O1217065   6.602   3.041   6.055  0.2126  0.6028 -0.2785
  154SAPE   O1117066   6.578   2.898   6.259  0.6593  0.4616 -0.0579
  154SAPE    C117067   6.699   2.888   6.338 -0.0542 -0.3288 -0.0337
  154SAPE    HA17068   6.761   2.803   6.303 -0.4568 -0.2001 -1.0867
  154SAPE    HB17069   6.765   2.976   6.322  1.1344 -1.2038 -0.0876
  154SAPE    C217070   6.680   2.865   6.486 -0.3695 -0.5491 -0.4509
  154SAPE    HS17071   6.638   2.764   6.504 -0.7598 -0.5943 -1.5776
  154SAPE   O2117072   6.599   2.972   6.532  0.1149  0.6501 -0.2888
  154SAPE   C2117073   6.489   2.939   6.601 -0.5995 -0.1190  0.8268
  154SAPE   O2217074   6.439   2.831   6.599 -0.7321  0.7029  0.6408
  154SAPE   C2217075   6.431   3.065   6.673 -0.2074 -0.1454 -0.4305
  154SAPE   H2R17076   6.518   3.114   6.722 -2.3112  3.7707 -0.2063
  154SAPE   H2S17077   6.395   3.143   6.602 -3.1391 -1.0125 -0.0422
  154SAPE    C317078   6.819   2.863   6.561  0.5305  0.9517  0.0974
  154SAPE    HX17079   6.868   2.955   6.523  1.8821 -0.1330 -0.9014
  154SAPE    HY17080   6.871   2.770   6.528 -0.1694  0.9577 -1.1036
  154SAPE   O3117081   6.797   2.874   6.697 -0.0193  0.0442  0.5762
  154SAPE   C3117082   6.808   2.767   6.772  0.3884  0.1392 -0.3495
  154SAPE   O3217083   6.847   2.656   6.733  0.3791 -0.4454 -0.4039
  154SAPE   C3217084   6.772   2.801   6.921 -0.1916 -0.2679 -0.0926
  154SAPE   H2X17085   6.676   2.747   6.939  0.7017 -1.6922  0.5985
  154SAPE   H2Y17086   6.753   2.910   6.915 -1.5457 -0.5286 -1.0649
  154SAPE   C2317087   6.317   3.033   6.772  0.3917  0.3036  0.6320
  154SAPE   H3R17088   6.238   2.983   6.712 -1.2460  0.3962  2.6352
  154SAPE   H3S17089   6.267   3.123   6.813 -2.9582 -0.9379 -0.4008
  154SAPE   C2417090   6.355   2.932   6.883  0.9740 -0.1023 -0.8150
  154SAPE   H4R17091   6.353   2.827   6.848 -2.0368 -1.6360  3.1868
  154SAPE   H4S17092   6.265   2.927   6.947  0.7191 -2.9972 -1.2629
  154SAPE   C2517093   6.476   2.968   6.961  0.2083 -0.2864  0.4882
  154SAPE   H5R17094   6.562   2.992   6.897  0.8995  1.2769  1.9389
  154SAPE   C2617095   6.497   2.963   7.091 -0.1863 -0.4933  0.1354
  154SAPE   H6R17096   6.584   3.019   7.130 -0.8783 -0.0872  1.1365
  154SAPE   C2717097   6.393   2.928   7.195 -0.1239  0.0051 -0.3281
  154SAPE   H7R17098   6.434   2.867   7.278 -2.0071  1.4635  1.7555
  154SAPE   H7S17099   6.314   2.858   7.162 -2.2538  1.9408  0.4155
  154SAPE   C2817100   6.341   3.043   7.277  0.2379  0.1871 -0.2354
  154SAPE   H8R17101   6.347   3.141   7.228 -1.2287  0.1804 -0.4688
  154SAPE   C2917102   6.278   3.026   7.399  0.0382 -0.3452  0.6322
  154SAPE   H9R17103   6.233   3.114   7.448  0.3034 -0.5382  1.2276
  154SAPE  C21017104   6.252   2.902   7.475 -0.6533  0.0526 -0.0202
  154SAPE  H10R17105   6.257   2.806   7.419  0.3111 -0.7451  1.3827
  154SAPE  H10S17106   6.145   2.903   7.504 -1.0181 -2.7270 -0.9108
  154SAPE  C21117107   6.340   2.883   7.598  0.6894  0.5307  0.3763
  154SAPE  H11R17108   6.427   2.819   7.576 -0.8824 -1.1035 -1.6250
  154SAPE  C21217109   6.323   2.927   7.720  0.0207 -0.7167 -0.2853
  154SAPE  H12R17110   6.402   2.909   7.794 -0.6443 -2.9526 -0.0452
  154SAPE  C21317111   6.212   3.014   7.776 -0.7111  0.6300 -0.0721
  154SAPE  H13R17112   6.139   2.954   7.835  1.2027 -0.8318  0.9615
  154SAPE  H13S17113   6.154   3.062   7.695 -1.3854 -0.9859 -0.5813
  154SAPE  C21417114   6.268   3.115   7.877 -0.0455 -0.5599  0.9153
  154SAPE  H14R17115   6.303   3.206   7.826  1.0827 -0.5137  1.7276
  154SAPE  C21517116   6.273   3.114   8.009  0.4097  0.2722  0.4355
  154SAPE  H15R17117   6.325   3.196   8.060  1.7646 -0.7631  0.7841
  154SAPE  C21617118   6.251   2.994   8.102  1.1057  0.1944 -0.2999
  154SAPE  H16R17119   6.344   2.975   8.160  1.3087 -0.2640 -0.7717
  154SAPE  H16S17120   6.232   2.900   8.047 -0.9811  1.5885 -2.1597
  154SAPE  C21717121   6.139   3.017   8.206 -0.4429 -0.4297 -0.3659
  154SAPE  H17R17122   6.050   3.047   8.147  0.8063  1.7228 -1.3023
  154SAPE  H17S17123   6.178   3.096   8.274 -2.4147  0.6427 -0.4056
  154SAPE  C21817124   6.125   2.895   8.293 -0.2988 -0.0464 -0.4128
  154SAPE  H18R17125   6.222   2.871   8.340 -0.2889 -1.5463 -1.1580
  154SAPE  H18S17126   6.098   2.806   8.233 -2.3341 -0.1249  0.5259
  154SAPE  C21917127   6.015   2.915   8.411 -0.4218 -0.1245 -0.2758
  154SAPE  H19R17128   5.907   2.920   8.383 -1.0024 -3.0691  1.0475
  154SAPE  H19S17129   6.040   3.004   8.471 -0.8915  0.9008 -1.5497
  154SAPE  C22017130   6.016   2.785   8.497 -0.5374  0.0033  0.6439
  154SAPE  H20R17131   5.948   2.785   8.585 -0.2507 -4.4978  1.0977
  154SAPE  H20S17132   6.118   2.751   8.526 -1.1893 -1.7010  1.0444
  154SAPE  H20T17133   5.981   2.712   8.421  0.4234  2.7756 -2.7088
  154SAPE   C3317134   6.870   2.762   7.028 -0.5048  0.2695  0.0548
  154SAPE   H3X17135   6.960   2.826   7.041  0.5751 -1.1264 -0.2902
  154SAPE   H3Y17136   6.916   2.666   6.997 -0.8883 -0.1328  0.7205
  154SAPE   C3417137   6.820   2.741   7.172 -0.1576  0.0580  0.3850
  154SAPE   H4X17138   6.869   2.652   7.217  0.9784 -1.1433 -2.8848
  154SAPE   H4Y17139   6.714   2.712   7.159 -0.6816  2.3098 -1.0495
  154SAPE   C3517140   6.827   2.856   7.270  0.0404 -0.0190  0.2300
  154SAPE   H5X17141   6.775   2.944   7.227 -1.8044  0.1443  2.5560
  154SAPE   H5Y17142   6.933   2.877   7.295 -0.2865  1.1959  0.6477
  154SAPE   C3617143   6.755   2.823   7.400  0.0156 -0.2371  0.7138
  154SAPE   H6X17144   6.765   2.717   7.432 -2.6144 -0.8884 -0.3404
  154SAPE   H6Y17145   6.646   2.845   7.388 -0.3251 -0.8849  2.3079
  154SAPE   C3717146   6.801   2.916   7.512  0.0706  0.3659  0.1033
  154SAPE   H7X17147   6.758   3.018   7.497  0.5300  1.0059  2.6630
  154SAPE   H7Y17148   6.910   2.927   7.493 -0.3783  2.0667 -1.8079
  154SAPE   C3817149   6.769   2.860   7.647 -0.0944 -0.3172 -0.3628
  154SAPE   H8X17150   6.838   2.776   7.669  0.2963 -0.2187 -1.2133
  154SAPE   H8Y17151   6.663   2.827   7.641 -0.0566 -0.5716  0.2838
  154SAPE   C3917152   6.768   2.970   7.759  0.0547 -0.9216 -0.3681
  154SAPE   H9X17153   6.719   3.059   7.716 -1.6485 -1.5922  0.1116
  154SAPE   H9Y17154   6.876   2.991   7.775 -0.0485 -1.2182  0.8500
  154SAPE  C31017155   6.714   2.923   7.887 -0.5028 -0.5769  0.1636
  154SAPE  H10X17156   6.751   2.823   7.920  0.7689 -0.0922  0.2355
  154SAPE  H10Y17157   6.605   2.905   7.874 -0.7629  0.2497  1.0498
  154SAPE  C31117158   6.732   3.027   8.003 -0.0949  0.1042  0.7422
  154SAPE  H11X17159   6.681   3.118   7.966 -0.7141 -0.7138 -0.4872
  154SAPE  H11Y17160   6.840   3.037   8.025  0.0571 -1.8628  1.1314
  154SAPE  C31217161   6.647   2.988   8.124 -0.2395 -0.1899 -0.4991
  154SAPE  H12X17162   6.681   2.896   8.177  1.3568  1.5094  1.6141
  154SAPE  H12Y17163   6.543   2.960   8.097 -1.3232  0.4139  2.5656
  154SAPE  C31317164   6.639   3.088   8.235  0.3497 -0.2639  0.1802
  154SAPE  H13X17165   6.589   3.181   8.200 -0.9523 -1.1584 -0.4292
  154SAPE  H13Y17166   6.743   3.115   8.263  0.4227 -0.7510  0.3825
  154SAPE  C31417167   6.574   3.035   8.366 -0.3585 -0.2689 -0.7242
  154SAPE  H14X17168   6.653   2.995   8.433  0.7801  2.0119 -0.6204
  154SAPE  H14Y17169   6.511   2.949   8.337 -0.2330 -1.5579  2.3778
  154SAPE  C31517170   6.493   3.132   8.458  0.5053 -0.0872 -0.2067
  154SAPE  H15X17171   6.396   3.154   8.408  1.4123  0.1837 -1.9253
  154SAPE  H15Y17172   6.542   3.232   8.466 -1.5101  1.1474 -2.1843
  154SAPE  C31617173   6.460   3.081   8.605 -0.9073 -0.3388  0.1103
  154SAPE  H16X17174   6.414   3.157   8.672  2.6622  1.6732  0.5257
  154SAPE  H16Y17175   6.555   3.049   8.652 -1.2680 -0.8696  0.4958
  154SAPE  C31717176   6.373   2.952   8.619  0.3745  0.6297 -0.0276
  154SAPE  H17X17177   6.423   2.864   8.573 -0.0972 -1.2635  2.7943
  154SAPE  H17Y17178   6.281   2.970   8.560  0.2624  0.5308  0.1177
  154SAPE  C31817179   6.332   2.914   8.767 -0.2667  0.5106  0.0359
  154SAPE  H18X17180   6.275   3.001   8.807  0.5902  0.3898  1.5857
  154SAPE  H18Y17181   6.424   2.901   8.829 -1.2264  0.2977  1.4569
  154SAPE  H18Z17182   6.275   2.820   8.778  0.5419  0.2317  2.7598
  155SAPE     N17183   0.440   3.424   6.335 -0.2364 -0.0621 -0.2158
  155SAPE   HN117184   0.532   3.377   6.348 -0.9364 -0.9614  2.0723
  155SAPE   HN217185   0.409   3.428   6.434 -1.1458 -1.2663 -0.4385
  155SAPE   HN317186   0.369   3.371   6.280 -0.5246 -1.0648  1.0743
  155SAPE   C1217187   0.467   3.557   6.276  0.7035 -0.3142  0.0791
  155SAPE  H12A17188   0.528   3.531   6.186 -1.3402 -1.9367 -0.9204
  155SAPE  H12B17189   0.512   3.617   6.358  0.5893 -1.0857  0.7115
  155SAPE   C1117190   0.339   3.636   6.242 -0.0751  0.8367  0.1320
  155SAPE  H11A17191   0.293   3.593   6.150  0.3647  0.6546 -0.0062
  155SAPE  H11B17192   0.381   3.734   6.211 -2.5842  1.2663 -2.2520
  155SAPE     P17193   0.174   3.777   6.399  0.1278 -0.2107 -0.0229
  155SAPE   O1317194   0.058   3.797   6.303 -0.0155 -0.5874 -0.9356
  155SAPE   O1417195   0.144   3.762   6.543  0.1163  0.2941  0.5733
  155SAPE   O1217196   0.256   3.644   6.358 -0.3010 -0.0309 -0.2464
  155SAPE   O1117197   0.281   3.894   6.375  0.1815  0.3704 -0.4193
  155SAPE    C117198   0.408   3.881   6.445  0.5164  0.3834 -0.2315
  155SAPE    HA17199   0.450   3.783   6.475  1.4290  1.0126  0.6113
  155SAPE    HB17200   0.490   3.934   6.391  0.0364  2.6408  1.1203
  155SAPE    C217201   0.419   3.951   6.593  0.0600  0.0982  0.0083
  155SAPE    HS17202   0.328   3.913   6.645  1.2591 -0.4792  1.7851
  155SAPE   O2117203   0.414   4.089   6.560 -0.0655 -0.4945 -0.8461
  155SAPE   C2117204   0.347   4.165   6.646 -0.1863 -0.0992  0.0934
  155SAPE   O2217205   0.281   4.130   6.741  0.0658  0.2255  0.2287
  155SAPE   C2217206   0.354   4.307   6.604 -0.4949 -1.1976  0.6433
  155SAPE   H2R17207   0.319   4.297   6.500 -0.1785  1.9342  0.1348
  155SAPE   H2S17208   0.286   4.371   6.665 -2.2008 -0.4424 -1.9142
  155SAPE    C317209   0.548   3.906   6.668  0.4306 -0.1084  0.5099
  155SAPE    HX17210   0.635   3.940   6.608 -1.2377  1.7842 -1.0122
  155SAPE    HY17211   0.546   3.795   6.676 -1.5291 -0.0747  1.0464
  155SAPE   O3117212   0.538   3.964   6.800 -0.0606  0.6011  0.3916
  155SAPE   C3117213   0.622   3.915   6.883 -0.4640  0.5343  0.8323
  155SAPE   O3217214   0.709   3.827   6.862  0.5881 -0.0777 -0.4610
  155SAPE   C3217215   0.587   3.973   7.019  0.6983 -0.6033 -0.2046
  155SAPE   H2X17216   0.501   3.912   7.052  0.0502  0.7280  0.6414
  155SAPE   H2Y17217   0.543   4.074   7.010  0.6473 -0.3582  2.1608
  155SAPE   C2317218   0.498   4.371   6.585 -0.5734 -0.8968 -0.1688
  155SAPE   H3R17219   0.558   4.297   6.528  1.0824  0.5354 -0.3693
  155SAPE   H3S17220   0.541   4.384   6.687  0.8907 -0.0054 -0.8735
  155SAPE   C2417221   0.516   4.496   6.504  0.3196 -0.1176 -0.3093
  155SAPE   H4R17222   0.465   4.584   6.549  1.6669  0.8880 -0.6765
  155SAPE   H4S17223   0.471   4.485   6.403  2.2055 -1.3315 -1.0721
  155SAPE   C2517224   0.658   4.546   6.489 -0.6968  0.3462 -0.3203
  155SAPE   H5R17225   0.703   4.494   6.403 -2.1581 -0.6100 -0.5403
  155SAPE   C2617226   0.738   4.617   6.571  0.9928  0.0590  0.4886
  155SAPE   H6R17227   0.840   4.642   6.537 -0.6352  6.0111 -1.2349
  155SAPE   C2717228   0.701   4.689   6.698 -0.0448  0.3367  0.2432
  155SAPE   H7R17229   0.770   4.651   6.776  0.4498  2.0680  0.7033
  155SAPE   H7S17230   0.597   4.672   6.734  0.6335 -0.6422  1.8648
  155SAPE   C2817231   0.726   4.836   6.665  0.2672 -0.7408 -0.2092
  155SAPE   H8R17232   0.718   4.872   6.561 -2.1211  1.4728  0.6283
  155SAPE   C2917233   0.718   4.930   6.755  0.0338  0.1385 -0.7410
  155SAPE   H9R17234   0.745   5.033   6.728  0.6832  0.2214  0.1520
  155SAPE  C21017235   0.693   4.909   6.904 -0.4027  0.3254  0.7130
  155SAPE  H10R17236   0.764   4.835   6.947 -1.1693 -0.5730  0.4538
  155SAPE  H10S17237   0.597   4.860   6.930  1.3299 -1.7769  3.8702
  155SAPE  C21117238   0.699   5.027   6.993  0.2417  0.5343 -0.5464
  155SAPE  H11R17239   0.690   5.129   6.954  4.5322  1.4095  0.3391
  155SAPE  C21217240   0.702   5.027   7.128 -0.2519 -0.5966 -0.0154
  155SAPE  H12R17241   0.702   5.124   7.180  2.3067 -1.6266  2.1284
  155SAPE  C21317242   0.724   4.913   7.216 -0.8601  0.4385 -0.2649
  155SAPE  H13R17243   0.776   4.833   7.160  1.8767  1.1430  1.1162
  155SAPE  H13S17244   0.624   4.878   7.250 -0.8107  1.6711  1.2405
  155SAPE  C21417245   0.820   4.941   7.330 -0.3604 -0.4674 -0.4296
  155SAPE  H14R17246   0.917   4.986   7.306 -1.2346  1.2162 -0.9684
  155SAPE  C21517247   0.806   4.909   7.461  0.3847 -0.7020 -0.7413
  155SAPE  H15R17248   0.871   4.951   7.539 -0.5651 -0.3590 -0.1109
  155SAPE  C21617249   0.700   4.829   7.520  0.1377  0.3762 -0.2989
  155SAPE  H16R17250   0.645   4.777   7.438  1.6095 -0.4003 -0.8150
  155SAPE  H16S17251   0.626   4.892   7.575  1.0990  0.9780  0.3331
  155SAPE  C21717252   0.757   4.723   7.617  0.4377  0.0496 -0.2442
  155SAPE  H17R17253   0.841   4.663   7.575 -0.8454 -2.1799  0.1933
  155SAPE  H17S17254   0.677   4.648   7.635  1.3740 -0.3630  2.7890
  155SAPE  C21817255   0.808   4.790   7.748 -0.2210  0.0365  0.0116
  155SAPE  H18R17256   0.739   4.870   7.781  1.2273  1.9630 -1.4616
  155SAPE  H18S17257   0.909   4.834   7.735  1.3597 -3.3152 -0.1521
  155SAPE  C21917258   0.829   4.692   7.861  0.0569  0.3640 -0.4170
  155SAPE  H19R17259   0.907   4.618   7.833  0.7027  1.1087 -0.6296
  155SAPE  H19S17260   0.730   4.643   7.869  0.7859 -1.1082 -0.1309
  155SAPE  C22017261   0.864   4.759   7.997 -0.4201 -0.0378  0.1272
  155SAPE  H20R17262   0.891   4.694   8.083  1.0186  2.5468  1.7856
  155SAPE  H20S17263   0.782   4.825   8.032  0.2669  1.0648 -0.2614
  155SAPE  H20T17264   0.947   4.829   7.972  0.7264 -1.8777 -1.4608
  155SAPE   C3317265   0.694   3.965   7.127 -0.8500  0.4423 -0.6613
  155SAPE   H3X17266   0.777   4.016   7.074 -0.1506  0.6521  0.5896
  155SAPE   H3Y17267   0.727   3.860   7.142 -0.6980  0.1835 -2.5890
  155SAPE   C3417268   0.645   4.035   7.257  0.5459  0.4761 -0.0525
  155SAPE   H4X17269   0.556   3.978   7.292  1.1783 -1.3901 -1.3520
  155SAPE   H4Y17270   0.602   4.132   7.225 -2.7381 -0.9067 -0.2818
  155SAPE   C3517271   0.748   4.046   7.365  0.0654 -1.2743  0.1430
  155SAPE   H5X17272   0.825   4.114   7.323 -1.1854 -0.0576 -0.2495
  155SAPE   H5Y17273   0.790   3.945   7.386 -1.9646 -1.9779  1.0466
  155SAPE   C3617274   0.702   4.118   7.497  0.2376 -0.6540  0.0707
  155SAPE   H6X17275   0.625   4.055   7.545 -0.8172 -0.0165 -0.7425
  155SAPE   H6Y17276   0.640   4.208   7.477 -3.1187 -2.2125  2.5554
  155SAPE   C3717277   0.818   4.155   7.592  0.4248  0.0451 -1.0080
  155SAPE   H7X17278   0.905   4.178   7.526  1.7557 -1.0481  0.3024
  155SAPE   H7Y17279   0.845   4.060   7.644 -3.0759 -0.6528 -0.2173
  155SAPE   C3817280   0.795   4.270   7.693  0.1088 -0.5991 -0.5907
  155SAPE   H8X17281   0.701   4.243   7.745  0.0133  0.9266  0.0846
  155SAPE   H8Y17282   0.759   4.362   7.643 -0.8530 -0.9598 -0.5765
  155SAPE   C3917283   0.898   4.295   7.805  0.1213  0.3214  0.0304
  155SAPE   H9X17284   0.886   4.404   7.826 -2.4026  0.0937  0.0292
  155SAPE   H9Y17285   1.000   4.278   7.763  0.4025 -0.2600  0.9337
  155SAPE  C31017286   0.878   4.210   7.933  0.5459 -0.5226  0.3313
  155SAPE  H10X17287   0.871   4.100   7.916  1.2142 -0.3743 -0.9369
  155SAPE  H10Y17288   0.785   4.234   7.990 -0.6915 -1.4875 -1.1936
  155SAPE  C31117289   0.981   4.249   8.036 -0.4387 -0.2660  0.0108
  155SAPE  H11X17290   0.952   4.341   8.090  1.7799  0.6559 -0.2498
  155SAPE  H11Y17291   1.071   4.264   7.972 -0.9327 -0.5104 -0.7565
  155SAPE  C31217292   0.999   4.131   8.135  0.1591 -0.7049 -0.0461
  155SAPE  H12X17293   1.033   4.043   8.077  0.8768  0.1163 -0.9171
  155SAPE  H12Y17294   0.902   4.097   8.178 -0.0906 -1.7610 -1.3780
  155SAPE  C31317295   1.111   4.159   8.237 -0.5944  0.1856 -0.0416
  155SAPE  H13X17296   1.076   4.239   8.306  1.3219  2.4618 -1.5283
  155SAPE  H13Y17297   1.189   4.210   8.176 -1.0626 -0.5298 -1.2772
  155SAPE  C31417298   1.151   4.038   8.319 -0.2131 -0.3662 -0.6845
  155SAPE  H14X17299   1.168   3.951   8.252 -2.1224 -1.7590  0.5365
  155SAPE  H14Y17300   1.063   4.011   8.382 -1.4850  1.8356 -1.4032
  155SAPE  C31517301   1.275   4.055   8.403  0.0407 -0.5078 -0.3429
  155SAPE  H15X17302   1.364   4.078   8.339  0.3581 -0.7033  0.0227
  155SAPE  H15Y17303   1.306   3.961   8.454  0.8510 -0.5924 -0.9644
  155SAPE  C31617304   1.274   4.169   8.504 -0.1428  0.3296  0.1559
  155SAPE  H16X17305   1.185   4.165   8.570  0.1625 -1.7163  0.5132
  155SAPE  H16Y17306   1.267   4.264   8.446 -0.9010  0.3829  0.3238
  155SAPE  C31717307   1.389   4.161   8.596 -0.3461 -0.1493  0.0515
  155SAPE  H17X17308   1.485   4.141   8.544 -0.9703 -1.7566 -0.5608
  155SAPE  H17Y17309   1.372   4.077   8.666  0.7205 -0.9383 -0.6102
  155SAPE  C31817310   1.390   4.293   8.685  0.3599  0.6657 -0.5964
  155SAPE  H18X17311   1.290   4.296   8.733 -0.4027  1.2782 -2.1628
  155SAPE  H18Y17312   1.404   4.386   8.627  1.2507  1.4788  0.8550
  155SAPE  H18Z17313   1.465   4.290   8.767  0.7854  2.3461 -0.8887
  156SAPE     N17314   4.837   2.726   6.049  0.2873  0.3340 -0.0184
  156SAPE   HN117315   4.733   2.728   6.039  0.0843 -1.7468  1.1414
  156SAPE   HN217316   4.862   2.739   6.149  1.0146 -1.8629  0.1366
  156SAPE   HN317317   4.876   2.799   5.987 -0.5795  1.7810  1.0725
  156SAPE   C1217318   4.879   2.587   6.014  0.2876  0.5253  0.3029
  156SAPE  H12A17319   4.988   2.583   5.997  0.4064 -3.3274  1.0780
  156SAPE  H12B17320   4.845   2.569   5.910  1.6938  0.5355 -0.1665
  156SAPE   C1117321   4.845   2.474   6.117  0.0202 -0.1703  0.0176
  156SAPE  H11A17322   4.739   2.441   6.117  0.3055 -1.1364 -0.4628
  156SAPE  H11B17323   4.863   2.511   6.220  0.1485 -1.1224  0.3479
  156SAPE     P17324   5.056   2.324   6.149 -0.6888 -0.4154  0.1532
  156SAPE   O1317325   5.083   2.181   6.125  0.4662  0.2730 -0.3267
  156SAPE   O1417326   5.165   2.417   6.102  0.1450 -0.0901 -0.6309
  156SAPE   O1217327   4.919   2.358   6.082  0.3277 -0.2114  0.6896
  156SAPE   O1117328   5.029   2.348   6.303 -0.3573 -0.2784  0.2189
  156SAPE    C117329   4.944   2.261   6.381  0.5890  0.6543 -0.0384
  156SAPE    HA17330   4.839   2.281   6.353 -0.1039 -2.1508  0.2033
  156SAPE    HB17331   4.983   2.159   6.364  1.0450  0.1535  3.2103
  156SAPE    C217332   4.950   2.287   6.540  0.5950 -0.3921  0.6005
  156SAPE    HS17333   4.889   2.214   6.597 -0.4390 -0.0282 -0.0225
  156SAPE   O2117334   4.908   2.422   6.565  0.4630 -0.4243  0.3145
  156SAPE   C2117335   4.820   2.439   6.653 -0.0578 -0.6464 -0.2145
  156SAPE   O2217336   4.751   2.356   6.711  0.3217  0.5800  0.5727
  156SAPE   C2217337   4.818   2.587   6.693 -0.3001  0.2418 -0.1424
  156SAPE   H2R17338   4.794   2.648   6.604  2.5067  1.2068 -0.3370
  156SAPE   H2S17339   4.730   2.595   6.760  0.3377  1.0492  0.6195
  156SAPE    C317340   5.090   2.271   6.590  0.4308  0.4753 -0.4186
  156SAPE    HX17341   5.156   2.357   6.570 -0.6191  2.1590  2.7104
  156SAPE    HY17342   5.140   2.185   6.541 -0.9230 -0.7223  0.2128
  156SAPE   O3117343   5.084   2.250   6.731 -0.0998 -0.9261 -0.3502
  156SAPE   C3117344   5.075   2.135   6.783  0.6413 -0.0243 -0.1426
  156SAPE   O3217345   5.085   2.029   6.726 -0.4267  0.2743 -0.0651
  156SAPE   C3217346   5.045   2.147   6.928 -0.1651  0.0945  0.2388
  156SAPE   H2X17347   4.936   2.167   6.936  0.4246  3.7546  0.8753
  156SAPE   H2Y17348   5.096   2.240   6.959  0.7388 -0.5611  0.7545
  156SAPE   C2317349   4.956   2.652   6.741  0.3187  0.5292 -0.2967
  156SAPE   H3R17350   4.954   2.762   6.725 -0.2763  0.8228  1.5329
  156SAPE   H3S17351   5.032   2.611   6.671 -2.0461 -2.9821 -1.1053
  156SAPE   C2417352   4.994   2.605   6.884  0.2664  0.2566  0.0187
  156SAPE   H4R17353   5.092   2.648   6.913  0.6405 -0.8302  0.4105
  156SAPE   H4S17354   5.003   2.494   6.878  1.1668  0.3742 -1.2351
  156SAPE   C2517355   4.899   2.660   6.984  0.2109 -0.8458 -0.4335
  156SAPE   H5R17356   4.839   2.749   6.958  1.3872  0.6351  1.6134
  156SAPE   C2617357   4.881   2.609   7.104 -0.5223  0.4215 -0.3633
  156SAPE   H6R17358   4.819   2.659   7.180 -0.0326  0.5659 -0.0556
  156SAPE   C2717359   4.953   2.491   7.158  0.7566  0.1911 -0.4286
  156SAPE   H7R17360   4.981   2.518   7.262  2.8153 -1.2068 -0.5412
  156SAPE   H7S17361   5.052   2.469   7.110  0.2088 -1.4485 -0.8837
  156SAPE   C2817362   4.850   2.381   7.164  0.4853  0.5431 -0.2667
  156SAPE   H8R17363   4.803   2.345   7.072  1.6857 -2.6538  0.2433
  156SAPE   C2917364   4.802   2.317   7.278 -0.3127  0.5139 -0.0767
  156SAPE   H9R17365   4.713   2.254   7.261  0.4606 -1.8984  3.4831
  156SAPE  C21017366   4.853   2.340   7.421 -0.3323  0.1247  0.0685
  156SAPE  H10R17367   4.819   2.441   7.455 -1.4541 -0.2599  0.1256
  156SAPE  H10S17368   4.961   2.340   7.398 -0.4983  1.9651 -0.9962
  156SAPE  C21117369   4.804   2.230   7.523 -0.2951 -0.2589  0.7649
  156SAPE  H11R17370   4.781   2.135   7.471 -1.2258  1.3013 -1.9229
  156SAPE  C21217371   4.787   2.238   7.655  0.6380  0.1233 -0.2506
  156SAPE  H12R17372   4.757   2.143   7.702 -3.1605  2.2294  2.0974
  156SAPE  C21317373   4.804   2.348   7.750  0.1868 -0.2601  1.0903
  156SAPE  H13R17374   4.705   2.397   7.763 -2.6883 -4.7995 -0.7671
  156SAPE  H13S17375   4.874   2.422   7.707  2.3764 -2.9387 -0.3302
  156SAPE  C21417376   4.858   2.300   7.878 -0.4595  0.6966  0.6784
  156SAPE  H14R17377   4.963   2.268   7.869 -0.6034 -0.2210  1.9678
  156SAPE  C21517378   4.797   2.291   7.999  0.2248  0.0067 -0.0527
  156SAPE  H15R17379   4.870   2.273   8.080  0.5812  1.5256 -0.0086
  156SAPE  C21617380   4.662   2.335   8.034 -0.1860  0.8046 -0.0292
  156SAPE  H16R17381   4.630   2.310   8.137  0.1362  0.4317 -0.0213
  156SAPE  H16S17382   4.590   2.280   7.970  0.1824 -0.3733  0.5530
  156SAPE  C21717383   4.656   2.490   8.034 -0.0127  0.1544  0.0678
  156SAPE  H17R17384   4.676   2.531   7.932 -1.8976 -1.7407 -1.1564
  156SAPE  H17S17385   4.736   2.525   8.102 -1.1674 -1.7204  2.5566
  156SAPE  C21817386   4.517   2.552   8.076  0.4920 -0.2443  0.2478
  156SAPE  H18R17387   4.480   2.514   8.173 -1.0412  1.2169  0.2757
  156SAPE  H18S17388   4.444   2.513   8.001 -0.4904 -0.3036  1.2120
  156SAPE  C21917389   4.514   2.703   8.063  0.4935 -0.6197  0.1696
  156SAPE  H19R17390   4.578   2.742   7.981 -0.7643 -0.3493 -0.6916
  156SAPE  H19S17391   4.552   2.732   8.164 -2.0241  0.9051  0.7708
  156SAPE  C22017392   4.374   2.760   8.047 -0.0018 -0.4239  0.4803
  156SAPE  H20R17393   4.337   2.728   7.947  2.1014  0.1735 -0.5498
  156SAPE  H20S17394   4.372   2.871   8.053 -0.5875 -0.4630  1.1213
  156SAPE  H20T17395   4.316   2.724   8.134 -0.8713 -1.6395 -0.5739
  156SAPE   C3317396   5.087   2.023   7.007 -0.4811  0.5225 -0.2055
  156SAPE   H3X17397   5.194   1.999   6.989 -0.7925 -0.5102 -0.7372
  156SAPE   H3Y17398   5.024   1.941   6.965 -0.0356 -0.4534  0.9538
  156SAPE   C3417399   5.048   2.039   7.153 -1.1345 -1.0695 -0.9753
  156SAPE   H4X17400   4.941   2.065   7.163 -0.5774  1.4482 -0.8526
  156SAPE   H4Y17401   5.087   2.137   7.189 -0.9955 -1.1124 -1.0083
  156SAPE   C3517402   5.100   1.930   7.249  0.6707  0.8156 -0.0373
  156SAPE   H5X17403   5.062   1.831   7.216  1.6689 -0.7167  2.9819
  156SAPE   H5Y17404   5.047   1.936   7.346  1.3474 -0.1215  0.4128
  156SAPE   C3617405   5.249   1.921   7.274 -0.5552 -0.8230  0.1504
  156SAPE   H6X17406   5.267   2.010   7.338 -1.4867  0.0109 -0.7143
  156SAPE   H6Y17407   5.310   1.943   7.183  0.2918  4.5690  1.6943
  156SAPE   C3717408   5.301   1.808   7.356  0.4827 -0.2000  0.3621
  156SAPE   H7X17409   5.410   1.823   7.366  0.6653  0.6987 -2.1819
  156SAPE   H7Y17410   5.284   1.716   7.296 -0.7693 -1.0539  1.9610
  156SAPE   C3817411   5.224   1.791   7.486 -0.2186  0.4510 -0.1616
  156SAPE   H8X17412   5.114   1.781   7.477 -0.1130 -0.2231 -0.8152
  156SAPE   H8Y17413   5.252   1.871   7.556  3.3265  0.4346 -1.3765
  156SAPE   C3917414   5.262   1.654   7.561 -0.0600 -0.2804 -0.0846
  156SAPE   H9X17415   5.365   1.667   7.600 -0.2699 -2.2361  1.2093
  156SAPE   H9Y17416   5.250   1.559   7.505  1.2619  0.9045 -2.5362
  156SAPE  C31017417   5.174   1.645   7.684 -0.5143 -0.4082 -0.4847
  156SAPE  H10X17418   5.075   1.625   7.637 -1.2784  0.6928  0.5932
  156SAPE  H10Y17419   5.160   1.744   7.732 -1.4288 -0.9780  0.4954
  156SAPE  C31117420   5.203   1.534   7.781  0.0554 -0.5137  0.3997
  156SAPE  H11X17421   5.313   1.519   7.786  0.2935  1.2715  1.3156
  156SAPE  H11Y17422   5.142   1.453   7.736 -1.6082  1.1668 -0.5190
  156SAPE  C31217423   5.154   1.563   7.928 -0.0297 -0.5484 -0.2520
  156SAPE  H12X17424   5.048   1.596   7.926  0.3605  0.7186 -1.9238
  156SAPE  H12Y17425   5.219   1.641   7.972  0.9595 -0.5158 -1.7139
  156SAPE  C31317426   5.157   1.431   8.009 -0.5765 -0.2752  0.5548
  156SAPE  H13X17427   5.263   1.404   8.028  0.0612  0.5880 -1.5238
  156SAPE  H13Y17428   5.100   1.354   7.954 -1.5770 -0.1259  1.3388
  156SAPE  C31417429   5.097   1.439   8.154 -0.2422  0.4360 -0.3479
  156SAPE  H14X17430   5.055   1.336   8.162  0.2232  0.1313 -1.6740
  156SAPE  H14Y17431   4.999   1.493   8.154 -1.2209 -1.2190  1.3185
  156SAPE  C31517432   5.197   1.483   8.257  0.2562  0.1456  0.0290
  156SAPE  H15X17433   5.292   1.427   8.243 -0.9698 -2.0757  0.0508
  156SAPE  H15Y17434   5.163   1.443   8.355  2.0285 -0.5437  0.4025
  156SAPE  C31617435   5.207   1.638   8.274 -0.0141 -0.2993  0.2511
  156SAPE  H16X17436   5.103   1.675   8.264 -0.2473 -1.0180 -0.0618
  156SAPE  H16Y17437   5.254   1.687   8.185  1.5080 -0.4583  0.9424
  156SAPE  C31717438   5.260   1.692   8.407  0.3317 -0.6376  0.2968
  156SAPE  H17X17439   5.362   1.654   8.431 -0.6369 -2.4191  1.8349
  156SAPE  H17Y17440   5.193   1.649   8.485 -1.4440 -1.3240 -1.5203
  156SAPE  C31817441   5.270   1.846   8.415  0.7564 -0.7187  0.0680
  156SAPE  H18X17442   5.164   1.880   8.412 -0.2507 -3.6556 -0.5935
  156SAPE  H18Y17443   5.341   1.880   8.337  0.8136 -3.6671 -1.3154
  156SAPE  H18Z17444   5.320   1.878   8.509 -1.0985  0.2996  0.7509
  157SAPE     N17445   3.513   5.885   6.572  0.5449 -0.3310  0.4226
  157SAPE   HN117446   3.444   5.856   6.645 -0.7888 -0.5045 -0.8658
  157SAPE   HN217447   3.500   5.986   6.551  0.6091 -0.0414  1.6990
  157SAPE   HN317448   3.491   5.835   6.484  2.0769 -0.1808 -0.0589
  157SAPE   C1217449   3.647   5.851   6.617  0.4853  0.1182  0.4332
  157SAPE  H12A17450   3.664   5.744   6.591 -0.7132 -0.0649  0.3435
  157SAPE  H12B17451   3.659   5.864   6.726  3.9941 -0.2066  0.1922
  157SAPE   C1117452   3.760   5.949   6.562 -0.3746 -0.5841  0.4278
  157SAPE  H11A17453   3.853   5.918   6.614 -0.1654 -0.1046  0.3457
  157SAPE  H11B17454   3.725   6.051   6.590  0.7227 -0.7167  2.4982
  157SAPE     P17455   3.880   5.854   6.345 -0.3899  0.4119 -0.1218
  157SAPE   O1317456   3.841   5.710   6.356  0.0122 -0.0567  0.0874
  157SAPE   O1417457   3.899   5.905   6.205  1.0447  0.3220 -0.5072
  157SAPE   O1217458   3.765   5.930   6.421 -0.1069  0.5308  0.1274
  157SAPE   O1117459   4.012   5.883   6.421  0.4271 -0.1736  0.3387
  157SAPE    C117460   4.050   6.019   6.435 -0.1050  0.2588  0.6445
  157SAPE    HA17461   4.114   6.048   6.348 -0.8705 -1.4263 -0.5387
  157SAPE    HB17462   3.971   6.096   6.447  1.7746  1.9548  3.1252
  157SAPE    C217463   4.129   6.045   6.565  0.0493  0.1645  0.8481
  157SAPE    HS17464   4.238   6.032   6.544 -0.3323 -0.9115 -0.6050
  157SAPE   O2117465   4.079   5.956   6.667  0.4842  0.6054  0.2664
  157SAPE   C2117466   4.140   5.837   6.669  0.3493 -0.3097  0.1835
  157SAPE   O2217467   4.247   5.822   6.615 -0.1694 -0.2388 -0.0874
  157SAPE   C2217468   4.057   5.743   6.753 -0.0984 -0.0030  0.5829
  157SAPE   H2R17469   3.983   5.794   6.818 -2.1348 -0.7759 -1.0062
  157SAPE   H2S17470   3.986   5.699   6.679 -1.3551  0.7903  1.2875
  157SAPE    C317471   4.124   6.189   6.613  0.7659 -0.7054  0.2958
  157SAPE    HX17472   4.022   6.218   6.649  2.2095  2.5594  2.2505
  157SAPE    HY17473   4.142   6.256   6.526 -2.3232  0.1267  0.1619
  157SAPE   O3117474   4.223   6.218   6.716  0.3962 -0.3467  0.0891
  157SAPE   C3117475   4.184   6.206   6.842 -0.0989 -0.3008 -0.0808
  157SAPE   O3217476   4.085   6.151   6.880  0.5937  0.3952 -0.6642
  157SAPE   C3217477   4.294   6.267   6.931 -0.6950 -0.5150 -0.4477
  157SAPE   H2X17478   4.319   6.373   6.910  0.8035 -0.6807  0.3855
  157SAPE   H2Y17479   4.384   6.203   6.916 -0.4429  0.2129 -2.3207
  157SAPE   C2317480   4.143   5.632   6.818  0.1214 -0.0267  0.0953
  157SAPE   H3R17481   4.193   5.568   6.742  1.7783  0.5204  0.6733
  157SAPE   H3S17482   4.075   5.569   6.878  1.6027 -1.2824  0.5143
  157SAPE   C2417483   4.244   5.684   6.921 -0.4411  0.1037 -0.3042
  157SAPE   H4R17484   4.332   5.718   6.861  2.2787 -2.0281  2.1871
  157SAPE   H4S17485   4.276   5.589   6.968 -1.2057 -0.9938 -1.9390
  157SAPE   C2517486   4.190   5.786   7.014 -0.0718  0.6589  0.0464
  157SAPE   H5R17487   4.144   5.877   6.974 -0.0530  1.9779  2.8525
  157SAPE   C2617488   4.199   5.779   7.149 -0.6517  0.1460  0.2324
  157SAPE   H6R17489   4.172   5.868   7.208  2.1112 -0.3726  2.5483
  157SAPE   C2717490   4.247   5.654   7.222  0.2985  0.6228  0.3057
  157SAPE   H7R17491   4.246   5.561   7.161  0.4392  0.9321 -0.1745
  157SAPE   H7S17492   4.172   5.627   7.300 -0.8845  1.0281 -0.6716
  157SAPE   C2817493   4.385   5.679   7.274  0.6864  0.3144 -0.3288
  157SAPE   H8R17494   4.467   5.673   7.201  0.3180 -0.4656 -0.6871
  157SAPE   C2917495   4.421   5.710   7.403 -0.5512 -0.6888 -0.1174
  157SAPE   H9R17496   4.525   5.738   7.424 -0.4609 -1.3979  0.4416
  157SAPE  C21017497   4.333   5.711   7.527  0.1316  0.2669  0.3603
  157SAPE  H10R17498   4.389   5.658   7.607 -0.4318  1.0822  1.3149
  157SAPE  H10S17499   4.238   5.656   7.514  0.3102  0.1407 -0.4636
  157SAPE  C21117500   4.308   5.855   7.560  0.5425 -0.1043  0.0985
  157SAPE  H11R17501   4.307   5.928   7.478  2.5482  0.2049  0.2960
  157SAPE  C21217502   4.276   5.886   7.686 -0.3261 -0.1969  0.4141
  157SAPE  H12R17503   4.266   5.996   7.691 -2.6532 -0.2150 -1.7057
  157SAPE  C21317504   4.263   5.805   7.813 -0.1500  0.5559 -0.1975
  157SAPE  H13R17505   4.348   5.734   7.825  0.2973  1.2582  0.9782
  157SAPE  H13S17506   4.170   5.745   7.806  0.9892 -1.2067 -0.7886
  157SAPE  C21417507   4.249   5.891   7.935  0.2608  0.5301 -0.4814
  157SAPE  H14R17508   4.350   5.925   7.959  0.1414 -0.2074  1.1732
  157SAPE  C21517509   4.151   5.922   8.027 -0.0408 -0.1508 -0.2779
  157SAPE  H15R17510   4.176   6.001   8.100  1.6354  1.6111 -2.5988
  157SAPE  C21617511   4.004   5.883   8.028  0.4332 -0.7677  0.2494
  157SAPE  H16R17512   3.968   5.845   7.930 -0.4645  0.5007  0.0564
  157SAPE  H16S17513   3.947   5.976   8.052  2.0385  0.9372 -2.1623
  157SAPE  C21717514   3.954   5.778   8.127 -0.8140 -0.0836  0.3261
  157SAPE  H17R17515   4.015   5.686   8.110 -1.7869 -0.3803 -2.0256
  157SAPE  H17S17516   3.848   5.758   8.101 -1.3478  2.6904  0.0668
  157SAPE  C21817517   3.962   5.828   8.276 -0.2550  0.3890  0.5850
  157SAPE  H18R17518   3.868   5.881   8.301 -0.5116 -0.5155  1.5517
  157SAPE  H18S17519   4.050   5.895   8.286  0.5162 -0.0140 -2.4581
  157SAPE  C21917520   3.972   5.709   8.370  0.2934 -0.3260 -0.0713
  157SAPE  H19R17521   4.073   5.670   8.343  0.5288  0.4489 -0.3359
  157SAPE  H19S17522   3.893   5.632   8.354 -1.0591  1.1286 -0.6264
  157SAPE  C22017523   3.966   5.761   8.507 -0.0631  0.1454  0.0623
  157SAPE  H20R17524   3.972   5.689   8.591 -3.8061  0.5031  0.8136
  157SAPE  H20S17525   3.860   5.796   8.512 -0.7400 -1.5573 -1.4339
  157SAPE  H20T17526   4.046   5.835   8.528  0.0172 -0.1320  0.7535
  157SAPE   C3317527   4.253   6.262   7.087 -0.3644  0.5263  0.1140
  157SAPE   H3X17528   4.230   6.156   7.108 -1.2466  0.0190 -2.9388
  157SAPE   H3Y17529   4.165   6.325   7.112  0.1203  1.6914 -1.0283
  157SAPE   C3417530   4.371   6.310   7.177  0.5833 -0.6909 -0.8394
  157SAPE   H4X17531   4.391   6.419   7.178  2.8208 -1.0670 -1.0213
  157SAPE   H4Y17532   4.467   6.266   7.144  0.9777  0.8212 -1.8225
  157SAPE   C3517533   4.339   6.263   7.318 -0.2087  0.0887 -0.5831
  157SAPE   H5X17534   4.405   6.174   7.326  0.1857  0.3252 -1.1871
  157SAPE   H5Y17535   4.233   6.232   7.331 -0.4095  1.2242  0.7977
  157SAPE   C3617536   4.373   6.362   7.433 -0.1314 -0.0843  0.4669
  157SAPE   H6X17537   4.331   6.463   7.416  0.2862  0.2566  1.4059
  157SAPE   H6Y17538   4.483   6.375   7.442 -0.0346 -0.6692  0.1428
  157SAPE   C3717539   4.333   6.314   7.578 -0.0644 -0.0941  0.5054
  157SAPE   H7X17540   4.378   6.219   7.613 -0.5081 -0.0527  1.2118
  157SAPE   H7Y17541   4.223   6.295   7.583 -0.0837 -0.6786 -1.5074
  157SAPE   C3817542   4.375   6.418   7.682 -0.4627  0.8309 -0.5781
  157SAPE   H8X17543   4.329   6.513   7.647 -2.1232  0.1836 -0.2307
  157SAPE   H8Y17544   4.484   6.438   7.676  0.1097 -2.1492 -1.7577
  157SAPE   C3917545   4.341   6.367   7.826 -0.2342 -0.2084  0.5839
  157SAPE   H9X17546   4.390   6.271   7.852 -0.0751 -0.5351 -0.8402
  157SAPE   H9Y17547   4.232   6.350   7.837 -0.3339 -0.0973 -0.1991
  157SAPE  C31017548   4.371   6.472   7.930  0.1019 -0.8384 -0.3965
  157SAPE  H10X17549   4.304   6.561   7.926 -0.5098 -1.1771  1.3179
  157SAPE  H10Y17550   4.470   6.521   7.919 -0.2971  0.9638  2.5987
  157SAPE  C31117551   4.362   6.422   8.076 -1.0052 -0.5883 -0.2201
  157SAPE  H11X17552   4.452   6.359   8.095 -0.5593  0.1028 -0.0136
  157SAPE  H11Y17553   4.277   6.351   8.087  0.6791 -2.4691  1.5369
  157SAPE  C31217554   4.362   6.541   8.183  0.1003 -0.0899  0.2015
  157SAPE  H12X17555   4.253   6.561   8.192 -0.6101 -2.1918 -2.5306
  157SAPE  H12Y17556   4.414   6.630   8.141 -0.1402 -1.2694 -2.8797
  157SAPE  C31317557   4.425   6.506   8.324 -0.5346  0.1019 -0.3609
  157SAPE  H13X17558   4.536   6.501   8.325 -0.3839  2.0436  2.0887
  157SAPE  H13Y17559   4.396   6.408   8.367 -1.7711  0.7240  0.2856
  157SAPE  C31417560   4.406   6.621   8.432  0.4544  0.1450  0.4812
  157SAPE  H14X17561   4.302   6.612   8.468 -0.3383 -0.0492 -1.6900
  157SAPE  H14Y17562   4.430   6.720   8.388  2.7051 -0.0834  1.0631
  157SAPE  C31517563   4.501   6.601   8.553  0.1006  0.5987 -0.1238
  157SAPE  H15X17564   4.608   6.603   8.522  0.6005 -1.3065  1.3001
  157SAPE  H15Y17565   4.484   6.505   8.604  0.0162  1.8063  2.2456
  157SAPE  C31617566   4.478   6.704   8.663  0.6346  0.2525  0.1918
  157SAPE  H16X17567   4.371   6.689   8.690  0.6841  0.0554  0.2810
  157SAPE  H16Y17568   4.492   6.804   8.618 -1.1017 -0.1202 -1.2906
  157SAPE  C31717569   4.565   6.706   8.791 -0.4425 -0.2959 -0.0732
  157SAPE  H17X17570   4.520   6.753   8.881 -0.2200 -0.4641  0.1277
  157SAPE  H17Y17571   4.663   6.754   8.768 -1.2957  2.5635  1.6604
  157SAPE  C31817572   4.600   6.562   8.843 -0.3609  0.0029  0.0237
  157SAPE  H18X17573   4.504   6.515   8.873 -1.5697  0.7991 -2.3324
  157SAPE  H18Y17574   4.670   6.575   8.928 -1.3918  0.0213  0.8857
  157SAPE  H18Z17575   4.654   6.506   8.763  1.8142 -0.7566  1.9174
  158SAPE     N17576   6.286   2.267   6.046 -0.1091  0.0336 -0.1540
  158SAPE   HN117577   6.242   2.347   5.996 -1.9454 -0.6710  0.2380
  158SAPE   HN217578   6.222   2.188   6.067 -0.5863  0.1979 -0.9465
  158SAPE   HN317579   6.332   2.299   6.134  2.0657 -1.7003 -0.5874
  158SAPE   C1217580   6.391   2.187   5.967  0.4360  0.4677 -0.4743
  158SAPE  H12A17581   6.488   2.241   5.977 -0.0918  1.1753  1.1810
  158SAPE  H12B17582   6.353   2.189   5.862  1.9270  2.3910 -1.0584
  158SAPE   C1117583   6.413   2.049   6.030  0.2439 -0.2808  0.5438
  158SAPE  H11A17584   6.477   2.059   6.121  0.3415  1.6113  0.3096
  158SAPE  H11B17585   6.460   1.987   5.951  0.1750 -0.2153  0.4520
  158SAPE     P17586   6.278   1.874   6.171 -0.3543 -0.0403  0.1462
  158SAPE   O1317587   6.141   1.820   6.171  0.3621  0.0804 -0.4347
  158SAPE   O1417588   6.392   1.779   6.150  0.3828  0.1422  0.0893
  158SAPE   O1217589   6.284   1.995   6.069  0.3085 -0.0448  0.2637
  158SAPE   O1117590   6.305   1.942   6.311  0.1508  0.9119 -0.0734
  158SAPE    C117591   6.234   2.067   6.344  0.3086 -0.3856  0.0596
  158SAPE    HA17592   6.298   2.157   6.333 -2.1505  1.3822 -0.5130
  158SAPE    HB17593   6.142   2.085   6.284  1.2032  1.0763 -0.9465
  158SAPE    C217594   6.176   2.075   6.493 -0.5573  0.8671  0.1585
  158SAPE    HS17595   6.128   2.175   6.501  0.2624  1.1793  1.5230
  158SAPE   O2117596   6.283   2.060   6.590  0.3184  0.4434  0.4783
  158SAPE   C2117597   6.250   2.093   6.717  0.6121  0.2809  0.4284
  158SAPE   O2217598   6.168   2.176   6.745 -0.4266 -0.0873 -0.2887
  158SAPE   C2217599   6.331   2.026   6.822  0.1214 -0.4268  0.2984
  158SAPE   H2R17600   6.305   1.918   6.820 -0.6096 -0.2648  0.6835
  158SAPE   H2S17601   6.439   2.046   6.802  0.3792 -0.4376  1.5821
  158SAPE    C317602   6.058   1.964   6.519  0.2179  0.0382 -0.1212
  158SAPE    HX17603   6.114   1.869   6.538 -0.7143 -0.6562 -0.7924
  158SAPE    HY17604   5.996   1.965   6.427 -0.0227 -0.0250  0.0383
  158SAPE   O3117605   5.982   1.991   6.637 -0.6665  0.1528 -0.5529
  158SAPE   C3117606   5.850   2.002   6.626  0.9797  0.1077 -0.3618
  158SAPE   O3217607   5.786   2.013   6.523 -0.6001  0.7650 -0.1611
  158SAPE   C3217608   5.792   2.018   6.761  0.0856 -0.1795 -0.5749
  158SAPE   H2X17609   5.815   2.122   6.793 -1.5904 -0.1347  0.6098
  158SAPE   H2Y17610   5.843   1.945   6.827  1.7118 -0.6400 -2.2706
  158SAPE   C2317611   6.300   2.061   6.973  0.2881 -0.0195  0.6934
  158SAPE   H3R17612   6.206   2.004   6.988 -1.7476  2.1701 -2.3877
  158SAPE   H3S17613   6.271   2.167   6.989  0.8994  0.0166  1.6016
  158SAPE   C2417614   6.412   2.027   7.071 -0.0397  0.2670  0.0331
  158SAPE   H4R17615   6.399   2.099   7.154 -1.1352 -1.6024  1.5725
  158SAPE   H4S17616   6.513   2.051   7.029  0.1350  0.2787  0.4593
  158SAPE   C2517617   6.408   1.883   7.120 -0.1892  0.0073 -0.3416
  158SAPE   H5R17618   6.440   1.805   7.049 -1.3171 -0.4407 -0.3803
  158SAPE   C2617619   6.358   1.841   7.235 -0.2426 -0.4801 -0.8138
  158SAPE   H6R17620   6.375   1.734   7.250 -1.1185 -0.5814 -0.5138
  158SAPE   C2717621   6.298   1.937   7.325 -0.9198  0.3020 -0.1351
  158SAPE   H7R17622   6.244   2.015   7.267  1.4095 -0.1675 -3.1569
  158SAPE   H7S17623   6.384   1.980   7.380  0.5840 -1.0839 -1.3071
  158SAPE   C2817624   6.203   1.876   7.425 -1.0438  0.8254 -0.0312
  158SAPE   H8R17625   6.249   1.891   7.524  0.9319  1.5241 -0.9914
  158SAPE   C2917626   6.093   1.807   7.398 -0.1649  0.0985  0.5818
  158SAPE   H9R17627   6.041   1.757   7.480 -2.1619 -0.0119 -0.6821
  158SAPE  C21017628   6.019   1.789   7.268  0.3687  0.0131  0.1377
  158SAPE  H10R17629   6.039   1.880   7.208  3.0851 -2.1752 -2.6237
  158SAPE  H10S17630   5.910   1.775   7.287  0.0929 -1.1422 -2.0209
  158SAPE  C21117631   6.078   1.681   7.184 -0.5730  0.2106 -0.8854
  158SAPE  H11R17632   6.164   1.631   7.231 -0.8320  0.5552 -0.0132
  158SAPE  C21217633   6.044   1.640   7.061  0.1887  0.9414  0.3013
  158SAPE  H12R17634   6.091   1.555   7.011  2.7111  1.6013  1.3738
  158SAPE  C21317635   5.930   1.698   6.973 -0.5931  0.0293 -0.8614
  158SAPE  H13R17636   5.891   1.794   7.015  1.5280  1.1812 -1.3903
  158SAPE  H13S17637   5.836   1.638   6.980 -0.8853  0.5036 -0.6076
  158SAPE  C21417638   5.977   1.708   6.832  0.5211  0.0535 -0.6833
  158SAPE  H14R17639   6.070   1.762   6.812  2.3434 -3.7046 -3.7166
  158SAPE  C21517640   5.906   1.670   6.720  0.0376  0.1919  0.6625
  158SAPE  H15R17641   5.942   1.691   6.619  0.1759 -1.7126  0.2729
  158SAPE  C21617642   5.765   1.614   6.716 -0.0877  0.1040 -0.1503
  158SAPE  H16R17643   5.701   1.664   6.793 -0.3445 -0.6071  0.1088
  158SAPE  H16S17644   5.757   1.506   6.742 -0.1183 -0.2229 -1.4839
  158SAPE  C21717645   5.689   1.623   6.579 -0.1733 -0.1526 -0.3677
  158SAPE  H17R17646   5.739   1.562   6.501 -0.5035 -1.8903  0.7220
  158SAPE  H17S17647   5.691   1.730   6.550 -3.0123 -0.2207 -1.1159
  158SAPE  C21817648   5.544   1.588   6.584  0.0638 -0.7178 -0.0541
  158SAPE  H18R17649   5.499   1.619   6.681  2.8998 -2.2602  1.9461
  158SAPE  H18S17650   5.538   1.477   6.572  0.3834 -0.6023 -1.3593
  158SAPE  C21917651   5.458   1.643   6.468  0.2082  0.1467  0.6804
  158SAPE  H19R17652   5.462   1.754   6.470  3.9095  0.1862 -0.9133
  158SAPE  H19S17653   5.351   1.613   6.476  0.7365 -2.4399 -0.7771
  158SAPE  C22017654   5.513   1.606   6.328 -0.1979 -0.7225  0.3857
  158SAPE  H20R17655   5.459   1.657   6.246 -1.9477 -1.6658  0.9044
  158SAPE  H20S17656   5.515   1.497   6.309 -0.3949 -0.6111 -0.2948
  158SAPE  H20T17657   5.617   1.642   6.309 -0.0439 -1.0281  0.6377
  158SAPE   C3317658   5.637   2.013   6.773  0.1788  0.5489 -0.6271
  158SAPE   H3X17659   5.606   1.907   6.758 -1.3322  0.9895 -0.7376
  158SAPE   H3Y17660   5.598   2.076   6.690  1.3707  0.3856 -1.3326
  158SAPE   C3417661   5.590   2.074   6.904  0.4765 -0.3169  0.6744
  158SAPE   H4X17662   5.480   2.059   6.904  0.1600  1.6521  2.2889
  158SAPE   H4Y17663   5.610   2.183   6.899 -0.0646 -0.2621 -0.8781
  158SAPE   C3517664   5.643   2.012   7.029 -0.6036  0.3457  0.1462
  158SAPE   H5X17665   5.753   2.000   7.023 -0.0541  4.2718 -0.4646
  158SAPE   H5Y17666   5.593   1.913   7.031 -1.7684  0.9188  0.1409
  158SAPE   C3617667   5.611   2.085   7.159 -0.0642  0.3580 -0.2626
  158SAPE   H6X17668   5.501   2.078   7.164 -0.0128 -2.4194 -1.2618
  158SAPE   H6Y17669   5.649   2.190   7.165  1.5070 -0.2332  1.0989
  158SAPE   C3717670   5.672   2.009   7.289 -0.4049  0.0163 -0.4538
  158SAPE   H7X17671   5.639   1.903   7.279  1.3561 -0.7813  1.4320
  158SAPE   H7Y17672   5.783   2.006   7.290 -0.3906  0.5458  0.0040
  158SAPE   C3817673   5.627   2.078   7.420  0.5686 -0.0451 -0.8274
  158SAPE   H8X17674   5.519   2.054   7.433  0.0839  3.2895  3.4503
  158SAPE   H8Y17675   5.647   2.186   7.405  0.9716  0.1751  1.0629
  158SAPE   C3917676   5.707   2.037   7.548 -0.2457 -1.3076 -0.0863
  158SAPE   H9X17677   5.672   2.114   7.620  1.7506  0.4774 -0.9368
  158SAPE   H9Y17678   5.814   2.050   7.523 -0.4406  0.5853 -0.0887
  158SAPE  C31017679   5.681   1.897   7.585  0.3959  0.3942  0.1377
  158SAPE  H10X17680   5.707   1.839   7.494  1.8509 -0.0245  0.7885
  158SAPE  H10Y17681   5.572   1.892   7.606  0.2468  0.5550 -0.5795
  158SAPE  C31117682   5.758   1.861   7.714  0.2116  0.1992  0.3029
  158SAPE  H11X17683   5.776   1.948   7.781 -0.5260 -0.2383  1.0923
  158SAPE  H11Y17684   5.861   1.822   7.694  0.6765  1.0479  0.9617
  158SAPE  C31217685   5.680   1.752   7.786 -0.2385  0.1231 -0.4152
  158SAPE  H12X17686   5.656   1.657   7.734 -0.7214  0.2483 -0.4279
  158SAPE  H12Y17687   5.578   1.797   7.798  0.1294  1.2177 -1.1749
  158SAPE  C31317688   5.742   1.716   7.921 -0.1061  0.3129  0.0704
  158SAPE  H13X17689   5.782   1.808   7.968 -2.6047  1.9359 -0.7646
  158SAPE  H13Y17690   5.817   1.634   7.916 -1.4378 -1.2325  2.8262
  158SAPE  C31417691   5.641   1.671   8.018  0.0342 -0.3053  0.2404
  158SAPE  H14X17692   5.560   1.610   7.973  0.0001  0.1094 -0.2746
  158SAPE  H14Y17693   5.583   1.756   8.059  0.1908  0.1375 -0.4274
  158SAPE  C31517694   5.704   1.599   8.131  0.0671  0.0414  0.0408
  158SAPE  H15X17695   5.784   1.656   8.182  1.4874 -1.5328 -0.3621
  158SAPE  H15Y17696   5.762   1.508   8.105  0.8215 -0.0036  1.7582
  158SAPE  C31617697   5.596   1.553   8.234  0.3161 -0.2284 -0.6918
  158SAPE  H16X17698   5.526   1.490   8.175 -0.3665  0.6551 -0.8483
  158SAPE  H16Y17699   5.538   1.639   8.272 -0.2598 -0.9688  0.1347
  158SAPE  C31717700   5.651   1.490   8.365  0.7863  0.1217  1.2723
  158SAPE  H17X17701   5.581   1.487   8.451  0.5000  3.7440  1.3513
  158SAPE  H17Y17702   5.736   1.554   8.399  2.0588  0.1305 -1.5523
  158SAPE  C31817703   5.696   1.352   8.334 -0.7700  0.4458  0.2979
  158SAPE  H18X17704   5.753   1.354   8.239 -0.8793 -0.3635  0.2150
  158SAPE  H18Y17705   5.618   1.273   8.332  0.4243 -0.7573 -1.9549
  158SAPE  H18Z17706   5.776   1.325   8.406  0.3478  0.6168 -0.8479
  159SAPE     N17707   3.969   6.143   6.125  0.1136 -0.4623  0.2509
  159SAPE   HN117708   3.888   6.206   6.109 -0.7657 -2.1054 -2.5220
  159SAPE   HN217709   3.946   6.043   6.140 -2.7031  0.2046  1.0190
  159SAPE   HN317710   4.009   6.177   6.215 -1.9568 -1.6979  1.7168
  159SAPE   C1217711   4.080   6.160   6.017  0.3870 -1.0205 -0.7977
  159SAPE  H12A17712   4.106   6.268   6.018  0.1964 -0.9327  2.0454
  159SAPE  H12B17713   4.022   6.134   5.925 -2.9070 -0.0685  0.8655
  159SAPE   C1117714   4.201   6.072   6.050  0.8353 -0.5275 -0.3613
  159SAPE  H11A17715   4.244   6.059   5.948  0.4147  0.3406 -0.6577
  159SAPE  H11B17716   4.160   5.981   6.098 -1.1470  0.6563  0.2961
  159SAPE     P17717   4.420   6.091   6.194  0.0946  0.5508 -0.1075
  159SAPE   O1317718   4.389   5.991   6.296  0.1300  0.5641 -0.4098
  159SAPE   O1417719   4.508   6.041   6.087  0.2201  0.9615 -0.2314
  159SAPE   O1217720   4.284   6.150   6.135  0.0873  0.2631  0.1867
  159SAPE   O1117721   4.492   6.216   6.256 -0.0338 -0.0643 -0.1673
  159SAPE    C117722   4.433   6.297   6.358 -0.0252 -0.4215 -0.1620
  159SAPE    HA17723   4.428   6.405   6.332 -0.9077 -0.4168 -0.0023
  159SAPE    HB17724   4.325   6.272   6.363 -0.1043 -0.3552 -1.2399
  159SAPE    C217725   4.494   6.286   6.493  0.0918  0.1388 -0.2583
  159SAPE    HS17726   4.601   6.303   6.466  0.6380 -0.4984  1.3952
  159SAPE   O2117727   4.462   6.161   6.548 -0.0871  0.3004  0.3715
  159SAPE   C2117728   4.563   6.104   6.617  0.2479 -0.9714  0.2612
  159SAPE   O2217729   4.670   6.161   6.644  0.4064  0.9284  0.0924
  159SAPE   C2217730   4.516   5.978   6.678  0.5864 -0.5291 -0.0491
  159SAPE   H2R17731   4.430   5.993   6.746 -0.2905 -0.6681 -1.0982
  159SAPE   H2S17732   4.470   5.912   6.602 -2.1026  0.6480  0.4416
  159SAPE    C317733   4.454   6.406   6.582  0.8770  0.3283  0.4267
  159SAPE    HX17734   4.348   6.393   6.614  1.2095  1.6123  2.2274
  159SAPE    HY17735   4.463   6.505   6.534  2.3060  0.0007 -0.0194
  159SAPE   O3117736   4.532   6.417   6.704  0.4498  0.3680 -0.4569
  159SAPE   C3117737   4.657   6.467   6.696 -0.3533  0.5029  0.1845
  159SAPE   O3217738   4.707   6.511   6.592 -0.1338 -0.2092  0.1267
  159SAPE   C3217739   4.731   6.441   6.826 -0.5530  0.2720  0.4357
  159SAPE   H2X17740   4.826   6.498   6.826 -0.1019 -0.4433  1.4473
  159SAPE   H2Y17741   4.731   6.330   6.831 -1.2021  0.1887 -1.0543
  159SAPE   C2317742   4.631   5.904   6.750  0.1011 -0.3438 -0.0892
  159SAPE   H3R17743   4.724   5.883   6.693 -0.4997  0.4450 -1.4009
  159SAPE   H3S17744   4.586   5.804   6.765 -1.8293  0.6032  0.7858
  159SAPE   C2417745   4.660   5.966   6.887  0.7525  0.1645 -0.1770
  159SAPE   H4R17746   4.684   6.073   6.865 -1.1042  1.1623  2.1835
  159SAPE   H4S17747   4.761   5.930   6.913  1.0352  0.8571 -0.2845
  159SAPE   C2517748   4.553   5.942   6.993 -0.3082  0.6396  0.0244
  159SAPE   H5R17749   4.454   5.914   6.953 -0.4063  1.5383 -0.4047
  159SAPE   C2617750   4.572   5.962   7.122  0.4268  0.2568 -0.3457
  159SAPE   H6R17751   4.489   5.941   7.191  2.6474  0.9987  2.8014
  159SAPE   C2717752   4.697   6.003   7.196  0.1302  0.6201  0.7064
  159SAPE   H7R17753   4.790   5.996   7.136 -0.6648 -1.3384 -0.4135
  159SAPE   H7S17754   4.713   5.923   7.271  0.5272 -0.2375 -0.2605
  159SAPE   C2817755   4.698   6.134   7.267 -0.3121  0.7178 -0.7158
  159SAPE   H8R17756   4.669   6.222   7.207 -3.5857  0.5308  0.3829
  159SAPE   C2917757   4.725   6.158   7.401  0.2569  0.1209 -0.0346
  159SAPE   H9R17758   4.718   6.262   7.435  0.4249  0.1104  0.0330
  159SAPE  C21017759   4.769   6.061   7.506 -0.2567  0.4617 -1.0633
  159SAPE  H10R17760   4.867   6.085   7.552 -1.8538 -0.1876  3.1480
  159SAPE  H10S17761   4.785   5.959   7.463  4.0042  1.6059 -2.6915
  159SAPE  C21117762   4.664   6.079   7.614 -0.2258  0.4585 -0.0677
  159SAPE  H11R17763   4.585   6.002   7.609  1.3666 -1.2439  0.0364
  159SAPE  C21217764   4.682   6.163   7.725  0.2125  0.5120 -0.1743
  159SAPE  H12R17765   4.599   6.182   7.795  0.3437  1.9654 -0.3919
  159SAPE  C21317766   4.793   6.261   7.745  0.0069  0.1491 -0.0723
  159SAPE  H13R17767   4.746   6.357   7.778 -0.1667 -0.0841  0.3678
  159SAPE  H13S17768   4.845   6.276   7.648 -1.0492 -1.2046 -0.8804
  159SAPE  C21417769   4.898   6.225   7.841  0.0635 -0.4026  0.8177
  159SAPE  H14R17770   4.994   6.188   7.803 -1.3265 -2.3438 -1.0666
  159SAPE  C21517771   4.880   6.221   7.971 -0.1769  0.5109 -0.0729
  159SAPE  H15R17772   4.971   6.207   8.031 -0.2975 -0.1484 -0.0384
  159SAPE  C21617773   4.756   6.237   8.056  0.1610  0.2985 -0.2181
  159SAPE  H16R17774   4.700   6.141   8.050  1.7463 -0.7428  0.9409
  159SAPE  H16S17775   4.704   6.329   8.023  0.2479  0.8543  1.1566
  159SAPE  C21717776   4.787   6.256   8.204  0.9928 -0.7073  0.6220
  159SAPE  H17R17777   4.689   6.268   8.255  0.1943  1.5996 -1.2902
  159SAPE  H17S17778   4.844   6.350   8.223 -0.5111  0.0335  1.6562
  159SAPE  C21817779   4.865   6.146   8.278 -0.0134  0.0215 -0.2118
  159SAPE  H18R17780   4.957   6.123   8.220  1.0798  1.3682  0.9117
  159SAPE  H18S17781   4.799   6.058   8.263  0.1921  0.2454 -3.0953
  159SAPE  C21917782   4.894   6.175   8.425  0.0945  0.2674  0.0610
  159SAPE  H19R17783   4.795   6.204   8.466 -0.2421  0.3607 -0.7863
  159SAPE  H19S17784   4.953   6.269   8.428 -1.0410  0.9932  0.2707
  159SAPE  C22017785   4.950   6.060   8.504 -0.8276 -0.4953  0.4613
  159SAPE  H20R17786   5.037   6.017   8.449  1.7902 -0.0323  3.9085
  159SAPE  H20S17787   4.870   5.983   8.502  0.6435 -2.0955  0.2152
  159SAPE  H20T17788   4.968   6.082   8.611  1.1412  0.6490 -0.0621
  159SAPE   C3317789   4.654   6.495   6.951 -0.2193  0.5321  0.1388
  159SAPE   H3X17790   4.595   6.408   6.987 -0.0880 -0.1690 -1.2367
  159SAPE   H3Y17791   4.583   6.576   6.927  1.5902  2.8776  2.1795
  159SAPE   C3417792   4.744   6.544   7.063 -0.4250 -0.2834 -0.5414
  159SAPE   H4X17793   4.778   6.645   7.034 -1.4925  0.1225 -0.4379
  159SAPE   H4Y17794   4.835   6.480   7.068  1.2805  2.1042  0.3870
  159SAPE   C3517795   4.667   6.562   7.194  0.4708  0.4483  0.0986
  159SAPE   H5X17796   4.649   6.466   7.247 -0.2638 -1.0655 -2.6640
  159SAPE   H5Y17797   4.565   6.605   7.184 -0.0088 -0.7354 -0.3222
  159SAPE   C3617798   4.751   6.646   7.291 -0.4566 -0.2543 -0.7526
  159SAPE   H6X17799   4.741   6.757   7.286  1.3854 -0.0662 -0.9632
  159SAPE   H6Y17800   4.860   6.634   7.277 -0.4476  0.4982 -1.4142
  159SAPE   C3717801   4.723   6.604   7.440  0.2196  0.3651 -0.2589
  159SAPE   H7X17802   4.757   6.501   7.463 -0.1709  0.0673 -0.9819
  159SAPE   H7Y17803   4.614   6.608   7.456  0.0831 -1.5540 -0.4913
  159SAPE   C3817804   4.786   6.707   7.534 -0.0686  0.0926 -0.5639
  159SAPE   H8X17805   4.715   6.791   7.546 -3.0656 -2.2763 -0.4135
  159SAPE   H8Y17806   4.886   6.746   7.505 -0.8176  1.9320 -0.7735
  159SAPE   C3917807   4.793   6.644   7.672  0.0418 -0.9340  0.1704
  159SAPE   H9X17808   4.868   6.563   7.675  0.1477 -0.8594 -0.2857
  159SAPE   H9Y17809   4.693   6.596   7.686 -0.7065  1.0832  2.4576
  159SAPE  C31017810   4.813   6.741   7.788 -0.0996  0.6386  0.3704
  159SAPE  H10X17811   4.733   6.816   7.807 -0.1403  0.9671 -0.9911
  159SAPE  H10Y17812   4.905   6.802   7.773  0.3821 -0.5581 -1.9830
  159SAPE  C31117813   4.832   6.661   7.915  0.1820 -0.3144  0.9888
  159SAPE  H11X17814   4.915   6.588   7.908 -0.6161 -1.5778  3.3016
  159SAPE  H11Y17815   4.743   6.596   7.933  0.7865 -2.0877 -1.8932
  159SAPE  C31217816   4.849   6.740   8.045  0.2786  0.1898  0.0521
  159SAPE  H12X17817   4.756   6.795   8.070  0.2513  0.2025 -0.0745
  159SAPE  H12Y17818   4.929   6.815   8.028 -1.0873  1.9513  0.9945
  159SAPE  C31317819   4.872   6.652   8.171  0.4112 -0.7451  0.7612
  159SAPE  H13X17820   4.970   6.601   8.159  0.5581 -0.2626 -0.2005
  159SAPE  H13Y17821   4.791   6.576   8.169 -0.2286 -0.0747  0.3186
  159SAPE  C31417822   4.869   6.729   8.301  0.0667  0.3136 -0.1200
  159SAPE  H14X17823   4.775   6.788   8.305 -0.7205 -0.6815 -2.1123
  159SAPE  H14Y17824   4.951   6.803   8.305 -0.2891  0.9208 -2.3893
  159SAPE  C31517825   4.878   6.632   8.421  0.1308 -1.0044  0.2516
  159SAPE  H15X17826   4.976   6.582   8.412  1.8068  1.2765  3.6027
  159SAPE  H15Y17827   4.800   6.554   8.438 -1.8235  0.9755  0.9123
  159SAPE  C31617828   4.876   6.712   8.558 -1.0015 -0.1335 -0.3787
  159SAPE  H16X17829   4.847   6.643   8.640 -1.9040  0.1410 -0.4555
  159SAPE  H16Y17830   4.786   6.776   8.552 -0.7163  0.2231 -0.8737
  159SAPE  C31717831   5.014   6.782   8.589 -0.1299 -0.5290 -0.3033
  159SAPE  H17X17832   5.033   6.856   8.509  0.7983 -0.2789  0.1366
  159SAPE  H17Y17833   5.101   6.713   8.595  0.7619  0.4474 -1.4844
  159SAPE  C31817834   5.007   6.857   8.720  0.4266 -0.3940 -0.2182
  159SAPE  H18X17835   4.983   6.794   8.809  0.5275 -0.2048 -0.0565
  159SAPE  H18Y17836   4.937   6.943   8.716  2.8178  1.6702 -0.0667
  159SAPE  H18Z17837   5.105   6.904   8.742 -0.6094  1.9589 -0.3924
  160SAPE     N17838   6.320   5.060   6.488 -0.2560  0.6437  0.2419
  160SAPE   HN117839   6.299   5.043   6.588 -2.7751 -1.3042 -0.5465
  160SAPE   HN217840   6.404   5.121   6.476 -0.2825  0.6907  0.2932
  160SAPE   HN317841   6.240   5.104   6.438 -0.9017 -2.5720 -1.8009
  160SAPE   C1217842   6.343   4.933   6.410  0.5585 -0.2453 -0.3240
  160SAPE  H12A17843   6.383   4.860   6.485  0.5452  0.2089  0.1326
  160SAPE  H12B17844   6.416   4.949   6.328 -1.3539  2.7469 -1.6066
  160SAPE   C1117845   6.203   4.887   6.346  0.1359 -0.0039 -0.3519
  160SAPE  H11A17846   6.225   4.798   6.283 -0.7066  0.3959 -1.2557
  160SAPE  H11B17847   6.170   4.965   6.274  1.8578  0.8484 -0.2636
  160SAPE     P17848   5.999   4.739   6.422 -0.1731  0.1908 -0.1786
  160SAPE   O1317849   5.866   4.796   6.397  0.1466  0.8978 -0.6926
  160SAPE   O1417850   6.050   4.638   6.321  0.6292  0.5115  0.2416
  160SAPE   O1217851   6.099   4.861   6.435 -0.0545 -0.5635 -0.5569
  160SAPE   O1117852   5.999   4.681   6.569 -0.3774 -0.3339 -0.3792
  160SAPE    C117853   6.125   4.651   6.634  0.2314  0.1418  0.4624
  160SAPE    HA17854   6.190   4.601   6.559  1.2409 -0.2274  1.5431
  160SAPE    HB17855   6.179   4.744   6.664  1.0107 -0.1152 -0.1094
  160SAPE    C217856   6.115   4.556   6.751 -0.2227 -0.2670  0.2161
  160SAPE    HS17857   6.091   4.453   6.717  1.8362 -0.2344 -1.5323
  160SAPE   O2117858   6.032   4.609   6.857  0.9109  0.2589 -1.0646
  160SAPE   C2117859   5.910   4.554   6.855 -0.4297  0.0220 -1.6259
  160SAPE   O2217860   5.851   4.511   6.758  0.4997  0.0696  0.4925
  160SAPE   C2217861   5.856   4.550   6.994 -0.0498 -0.0061 -0.9023
  160SAPE   H2R17862   5.947   4.559   7.057 -1.8757 -1.0567  2.0932
  160SAPE   H2S17863   5.787   4.634   7.014  1.1982  1.1587 -1.2597
  160SAPE    C317864   6.251   4.533   6.807 -0.1743 -0.0284 -0.5031
  160SAPE    HX17865   6.292   4.633   6.831  0.8261 -0.1289 -1.6572
  160SAPE    HY17866   6.321   4.486   6.734 -0.5361 -1.1424 -0.1601
  160SAPE   O3117867   6.243   4.439   6.916  0.0057  1.2574  0.0917
  160SAPE   C3117868   6.358   4.433   6.990 -0.5186 -0.6221  0.9710
  160SAPE   O3217869   6.460   4.497   6.970 -0.8253 -0.4146  0.1343
  160SAPE   C3217870   6.339   4.330   7.097 -0.4532  0.1876 -0.8482
  160SAPE   H2X17871   6.431   4.269   7.105  0.5841  1.9015  4.6170
  160SAPE   H2Y17872   6.259   4.261   7.064 -2.9874  2.4778  0.0965
  160SAPE   C2317873   5.789   4.415   7.037 -0.6721  0.7960  1.0709
  160SAPE   H3R17874   5.859   4.329   7.030 -1.8786 -0.1444  0.0856
  160SAPE   H3S17875   5.710   4.383   6.966  0.9031 -1.6681  0.2893
  160SAPE   C2417876   5.745   4.427   7.185  0.1575 -0.0042  0.2352
  160SAPE   H4R17877   5.666   4.505   7.193  0.7646  0.6721 -0.1968
  160SAPE   H4S17878   5.830   4.469   7.241  0.6713  1.3584 -1.4595
  160SAPE   C2517879   5.691   4.299   7.244  0.2404 -0.2202 -0.2028
  160SAPE   H5R17880   5.692   4.211   7.178  0.4986 -0.0208 -0.4685
  160SAPE   C2617881   5.641   4.287   7.368 -0.1539  0.5803 -0.1146
  160SAPE   H6R17882   5.594   4.190   7.388 -1.6404  1.4038  0.5845
  160SAPE   C2717883   5.609   4.396   7.465 -0.5058 -0.7493 -0.1203
  160SAPE   H7R17884   5.670   4.487   7.451 -0.0363 -0.7074  1.8245
  160SAPE   H7S17885   5.651   4.360   7.562  0.6150 -0.5924 -0.5443
  160SAPE   C2817886   5.462   4.430   7.478 -0.0217  0.2810  0.4701
  160SAPE   H8R17887   5.418   4.476   7.388  1.9774  0.4932 -0.4566
  160SAPE   C2917888   5.395   4.428   7.597  0.1923 -0.4232 -0.1467
  160SAPE   H9R17889   5.285   4.434   7.596  0.2693  1.9065 -0.8047
  160SAPE  C21017890   5.450   4.395   7.732 -0.0240 -0.0069  0.5184
  160SAPE  H10R17891   5.378   4.427   7.811 -0.8471 -0.0889 -0.1919
  160SAPE  H10S17892   5.543   4.453   7.755  0.6171 -1.3056  1.3126
  160SAPE  C21117893   5.501   4.253   7.742 -0.2435  0.0733  0.4848
  160SAPE  H11R17894   5.463   4.183   7.666 -2.2018  2.8913 -1.3230
  160SAPE  C21217895   5.556   4.189   7.853 -0.1840 -0.5621 -0.2080
  160SAPE  H12R17896   5.589   4.085   7.847  2.3923  0.2112 -0.9540
  160SAPE  C21317897   5.600   4.266   7.975 -0.4201 -0.4692 -0.7800
  160SAPE  H13R17898   5.655   4.359   7.951  0.6944 -1.1867 -1.0870
  160SAPE  H13S17899   5.680   4.203   8.020 -1.4243  0.7687  3.2105
  160SAPE  C21417900   5.494   4.291   8.081 -1.0160 -0.1456 -0.1034
  160SAPE  H14R17901   5.390   4.312   8.052 -1.2831 -1.2619 -0.0154
  160SAPE  C21517902   5.516   4.286   8.212 -0.6578  0.0701 -0.1828
  160SAPE  H15R17903   5.438   4.305   8.288  0.7685  1.1100  1.1124
  160SAPE  C21617904   5.640   4.244   8.283  0.2937 -0.4628  1.0755
  160SAPE  H16R17905   5.712   4.329   8.273  1.2005 -1.3874 -0.7931
  160SAPE  H16S17906   5.683   4.157   8.229  0.1437  0.3289 -0.3583
  160SAPE  C21717907   5.607   4.215   8.430  0.0398 -0.4518  0.2169
  160SAPE  H17R17908   5.553   4.300   8.477  1.3522  0.9218 -0.6709
  160SAPE  H17S17909   5.705   4.217   8.483  1.0841  0.9850 -1.6390
  160SAPE  C21817910   5.536   4.084   8.456 -0.0915 -0.2439  0.3717
  160SAPE  H18R17911   5.596   3.996   8.423 -1.3689 -0.5128 -1.3761
  160SAPE  H18S17912   5.442   4.074   8.397  0.9940  0.3244 -1.5238
  160SAPE  C21917913   5.499   4.070   8.605  0.0428 -0.1984 -0.5487
  160SAPE  H19R17914   5.399   4.118   8.614  0.5135  0.5740  0.8305
  160SAPE  H19S17915   5.564   4.122   8.679  0.6781  0.7006 -1.7089
  160SAPE  C22017916   5.487   3.924   8.644  0.2644  0.1017  0.3150
  160SAPE  H20R17917   5.414   3.884   8.571  1.3082  1.5446 -1.6477
  160SAPE  H20S17918   5.456   3.916   8.750 -3.4488  1.9239 -0.4712
  160SAPE  H20T17919   5.585   3.872   8.631  0.7239  1.6498 -4.1478
  160SAPE   C3317920   6.301   4.390   7.235  0.1021  0.6319  0.2829
  160SAPE   H3X17921   6.365   4.480   7.254  1.2853 -0.7085  3.3423
  160SAPE   H3Y17922   6.312   4.316   7.317 -1.0943  1.8502  1.6192
  160SAPE   C3417923   6.154   4.443   7.242  0.2208  0.3903  0.4779
  160SAPE   H4X17924   6.092   4.363   7.198  0.7872 -0.1099  0.5673
  160SAPE   H4Y17925   6.149   4.531   7.174  0.4222  0.6063  0.7372
  160SAPE   C3517926   6.097   4.465   7.379 -0.0920  0.5750  0.1464
  160SAPE   H5X17927   6.004   4.523   7.359  0.7089  1.3377 -1.5759
  160SAPE   H5Y17928   6.163   4.522   7.447  1.7936 -1.1475 -0.1630
  160SAPE   C3617929   6.042   4.340   7.453  0.1987  0.2992  0.8632
  160SAPE   H6X17930   6.135   4.283   7.477  0.1875  0.6743  1.8366
  160SAPE   H6Y17931   5.990   4.271   7.383 -0.1495  0.4622  0.9621
  160SAPE   C3717932   5.956   4.370   7.583  0.1955  0.6184 -0.0299
  160SAPE   H7X17933   5.905   4.276   7.612 -1.2774  1.2231 -0.5231
  160SAPE   H7Y17934   5.877   4.447   7.569 -1.5064 -0.9412  0.5629
  160SAPE   C3817935   6.041   4.423   7.698 -0.3775  0.5102  0.0433
  160SAPE   H8X17936   6.091   4.516   7.663  3.2081 -1.0775  0.4648
  160SAPE   H8Y17937   6.116   4.341   7.713 -1.9835 -1.1716 -0.7399
  160SAPE   C3917938   5.963   4.452   7.821  0.0294 -0.1421  0.1762
  160SAPE   H9X17939   6.044   4.476   7.893 -0.4643 -2.3079  1.5208
  160SAPE   H9Y17940   5.909   4.361   7.855  0.0414 -1.0866 -2.1273
  160SAPE  C31017941   5.852   4.560   7.826  0.3448  0.3760 -0.4473
  160SAPE  H10X17942   5.757   4.529   7.778  0.8310  0.6127 -1.6026
  160SAPE  H10Y17943   5.889   4.651   7.773 -0.9652  0.2485 -1.6534
  160SAPE  C31117944   5.835   4.619   7.966 -0.6173 -0.8332 -0.3742
  160SAPE  H11X17945   5.927   4.676   7.992  0.3623 -1.9010 -1.3475
  160SAPE  H11Y17946   5.831   4.532   8.035 -1.9846 -0.7581 -0.3355
  160SAPE  C31217947   5.710   4.701   7.976  0.3150 -0.2742 -0.3287
  160SAPE  H12X17948   5.614   4.654   7.947  0.7978 -0.5705 -1.5037
  160SAPE  H12Y17949   5.718   4.789   7.909 -1.8684  1.5363  1.6194
  160SAPE  C31317950   5.681   4.755   8.117  0.3598  0.1782 -0.0664
  160SAPE  H13X17951   5.603   4.834   8.109 -1.6702 -1.5052  1.7051
  160SAPE  H13Y17952   5.770   4.810   8.154 -0.8722  0.4647  2.6879
  160SAPE  C31417953   5.625   4.647   8.217  0.4594 -0.5799  0.9815
  160SAPE  H14X17954   5.693   4.560   8.202  3.3216  1.7323 -0.2301
  160SAPE  H14Y17955   5.521   4.618   8.189  0.4475 -1.1482  1.5762
  160SAPE  C31517956   5.616   4.701   8.367 -0.6674  1.1089  0.1520
  160SAPE  H15X17957   5.534   4.776   8.362 -1.3251  0.3226 -2.3899
  160SAPE  H15Y17958   5.708   4.751   8.406 -0.6502  0.9981  0.2552
  160SAPE  C31617959   5.587   4.581   8.469 -0.0626 -0.1075  0.4848
  160SAPE  H16X17960   5.676   4.515   8.471 -0.2269 -0.3186  1.5461
  160SAPE  H16Y17961   5.501   4.525   8.426  0.8360 -1.5125  0.4581
  160SAPE  C31717962   5.531   4.626   8.609 -0.2345  0.1338 -0.0048
  160SAPE  H17X17963   5.473   4.720   8.597 -2.6244 -1.2805 -0.0506
  160SAPE  H17Y17964   5.623   4.642   8.668 -0.3419  2.7358 -0.4263
  160SAPE  C31817965   5.454   4.516   8.674  0.5839  0.0958  0.2153
  160SAPE  H18X17966   5.530   4.438   8.696 -1.1591 -1.5644  0.5151
  160SAPE  H18Y17967   5.377   4.464   8.613  1.0043 -1.7879  1.2241
  160SAPE  H18Z17968   5.408   4.532   8.773 -2.0678 -3.7161 -0.2039
  161SOPE     N17969   2.232   2.636  10.571  0.0286  0.2333  0.5657
  161SOPE   HN117970   2.301   2.710  10.596  0.4059  0.8218 -1.9190
  161SOPE   HN217971   2.162   2.686  10.513  0.5425 -0.4406 -0.6874
  161SOPE   HN317972   2.191   2.598  10.659  0.6057 -0.9569  0.3500
  161SOPE   C1217973   2.285   2.526  10.477  0.4063 -0.8191 -0.6922
  161SOPE  H12A17974   2.371   2.475  10.525 -1.4679 -1.8421  1.8082
  161SOPE  H12B17975   2.308   2.575  10.380  0.8592  1.6019  0.5518
  161SOPE   C1117976   2.184   2.412  10.462 -0.0624  0.4348 -0.0270
  161SOPE  H11A17977   2.220   2.328  10.399  0.2423  0.2991  0.3266
  161SOPE  H11B17978   2.098   2.455  10.405 -1.7637 -1.2481  1.1554
  161SOPE     P17979   2.220   2.248  10.681 -0.0716 -0.0517 -0.1808
  161SOPE   O1317980   2.137   2.129  10.696  0.2914  0.2526  0.3034
  161SOPE   O1417981   2.262   2.313  10.805 -0.1532 -0.0274  0.0892
  161SOPE   O1217982   2.145   2.359  10.592 -0.2129  0.6092  0.1746
  161SOPE   O1117983   2.354   2.224  10.598  0.2483 -0.4246  0.0210
  161SOPE    C117984   2.351   2.117  10.505  0.4175  0.5871 -0.8739
  161SOPE    HA17985   2.262   2.126  10.439  1.0012 -0.4026 -1.8252
  161SOPE    HB17986   2.337   2.022  10.561 -0.8134  0.9052 -0.6046
  161SOPE    C217987   2.476   2.102  10.414 -0.3762 -0.7938  0.2740
  161SOPE    HS17988   2.558   2.100  10.489 -0.8358 -2.3235  0.7711
  161SOPE   O2117989   2.473   2.212  10.320  0.2375 -0.1073 -0.0071
  161SOPE   C2117990   2.585   2.285  10.310  0.5853  0.2933 -1.0662
  161SOPE   O2217991   2.679   2.268  10.383 -0.2766 -0.7102 -0.3571
  161SOPE   C2217992   2.573   2.390  10.197 -0.0634 -0.4956 -0.2152
  161SOPE   H2R17993   2.583   2.492  10.240  2.4989 -0.0039 -1.7356
  161SOPE   H2S17994   2.479   2.363  10.145 -0.1518 -2.4746  0.8725
  161SOPE    C317995   2.480   1.968  10.341  0.3726 -0.0434  0.3451
  161SOPE    HX17996   2.397   1.973  10.267  1.3580  2.5678 -0.7071
  161SOPE    HY17997   2.466   1.879  10.406  2.6156 -0.8366 -0.1807
  161SOPE   O3117998   2.605   1.953  10.274 -0.3249 -0.5915 -0.3224
  161SOPE   C3117999   2.714   1.938  10.351 -0.3829  0.5083  0.0766
  161SOPE   O3218000   2.714   1.916  10.470  0.1546 -0.2458 -0.0329
  161SOPE   C3218001   2.838   1.937  10.263 -0.4445 -0.1164  0.4483
  161SOPE   H2X18002   2.866   1.833  10.233  3.5038  1.4708 -2.1403
  161SOPE   H2Y18003   2.917   1.979  10.328  0.0456 -1.2800  0.6268
  161SOPE   C2318004   2.689   2.357  10.098  0.2367  0.0356 -0.6106
  161SOPE   H3R18005   2.670   2.253  10.066 -1.5692  0.3604 -0.6771
  161SOPE   H3S18006   2.789   2.368  10.146  0.6468 -0.2043 -1.4032
  161SOPE   C2418007   2.696   2.451   9.979  0.1221 -0.7759  0.3992
  161SOPE   H4R18008   2.630   2.538   9.996  0.8959 -0.2339  0.7127
  161SOPE   H4S18009   2.799   2.494   9.985  0.8013 -2.2294 -0.2386
  161SOPE   C2518010   2.656   2.374   9.851 -0.0411 -0.4941  0.1122
  161SOPE   H5R18011   2.741   2.307   9.824 -0.2147 -1.4784  1.8621
  161SOPE   H5S18012   2.568   2.308   9.863  0.3787 -1.2681 -0.9054
  161SOPE   C2618013   2.627   2.484   9.738 -0.8348  0.7535  0.0281
  161SOPE   H6R18014   2.522   2.509   9.762 -0.8003  1.3023 -0.3849
  161SOPE   H6S18015   2.695   2.571   9.747  1.2666 -0.6742 -0.8807
  161SOPE   C2718016   2.642   2.431   9.595  0.2131 -0.1117  0.4556
  161SOPE   H7R18017   2.747   2.399   9.580  0.3463 -1.3648  3.3894
  161SOPE   H7S18018   2.599   2.329   9.600 -1.2253  0.4233 -0.4807
  161SOPE   C2818019   2.596   2.523   9.481  0.0161  1.0490 -0.0031
  161SOPE   H8R18020   2.600   2.458   9.391  1.4429  0.4120  0.4995
  161SOPE   H8S18021   2.489   2.538   9.505  0.2682  2.3846  0.3537
  161SOPE   C2918022   2.670   2.657   9.464  0.1669  0.2769 -0.6610
  161SOPE   H9118023   2.749   2.681   9.536  0.9378 -3.6474  0.0443
  161SOPE  C21018024   2.643   2.752   9.375 -0.2796  0.0973 -0.5442
  161SOPE  H10118025   2.692   2.850   9.382  1.0361 -0.2387 -3.4722
  161SOPE  C21118026   2.553   2.754   9.262 -0.2742 -0.2126 -0.3828
  161SOPE  H11R18027   2.480   2.837   9.269 -0.3048 -0.3223  0.7921
  161SOPE  H11S18028   2.489   2.663   9.266 -0.0438 -0.3391  0.9005
  161SOPE  C21218029   2.647   2.765   9.132  0.4885  0.8600 -0.6040
  161SOPE  H12R18030   2.730   2.692   9.125  0.0055  0.2839 -0.4074
  161SOPE  H12S18031   2.689   2.868   9.137  2.7352 -0.0860  1.2474
  161SOPE  C21318032   2.548   2.754   9.016 -1.3727  0.0054  0.0892
  161SOPE  H13R18033   2.462   2.823   9.026 -1.9125  0.1239 -3.7491
  161SOPE  H13S18034   2.509   2.651   9.004  1.0507 -1.2250  1.8248
  161SOPE  C21418035   2.604   2.790   8.877 -0.2111 -0.7091  0.6954
  161SOPE  H14R18036   2.675   2.709   8.852 -0.1965 -0.0991 -1.4217
  161SOPE  H14S18037   2.661   2.885   8.881 -1.0623 -0.1756  0.5491
  161SOPE  C21518038   2.488   2.784   8.769 -0.2422  0.0996  0.5713
  161SOPE  H15R18039   2.409   2.849   8.813 -1.2357 -0.9403  0.3524
  161SOPE  H15S18040   2.461   2.677   8.758  0.4098 -0.0945  0.7870
  161SOPE  C21618041   2.517   2.842   8.624 -0.0574  0.2446  0.1657
  161SOPE  H16R18042   2.537   2.760   8.553 -0.2903  1.8240 -1.8043
  161SOPE  H16S18043   2.601   2.913   8.632  0.1887 -0.1789  1.6167
  161SOPE  C21718044   2.396   2.930   8.570 -0.2679  0.4876 -0.5429
  161SOPE  H17R18045   2.419   2.976   8.472 -1.5634 -1.5943 -1.9090
  161SOPE  H17S18046   2.389   3.014   8.642 -2.6972 -0.6458  0.6724
  161SOPE  C21818047   2.263   2.860   8.542  0.2316  0.7885  0.2743
  161SOPE  H18R18048   2.270   2.795   8.452 -0.6019 -0.6431  1.2102
  161SOPE  H18S18049   2.193   2.946   8.543 -0.1491  0.5238 -1.0995
  161SOPE  H18T18050   2.234   2.785   8.618 -0.5451 -0.4834 -1.2004
  161SOPE   C3318051   2.835   2.025  10.135  0.1014 -0.3882 -0.6576
  161SOPE   H3X18052   2.785   2.122  10.159  0.5165 -0.8799  2.5338
  161SOPE   H3Y18053   2.778   1.985  10.048  1.2477  3.2315 -3.3335
  161SOPE   C3418054   2.974   2.057  10.086 -0.8830 -0.1590 -0.3833
  161SOPE   H4X18055   3.020   1.962  10.052 -0.4676 -0.7678  1.7046
  161SOPE   H4Y18056   3.035   2.100  10.169  1.0788  2.6933 -3.0695
  161SOPE   C3518057   2.981   2.156   9.977  0.8777 -0.3844  0.0575
  161SOPE   H5X18058   2.927   2.248  10.009 -0.1844 -0.6525 -0.8882
  161SOPE   H5Y18059   2.912   2.127   9.894 -0.2137  0.9176  0.4699
  161SOPE   C3618060   3.132   2.201   9.940  0.7030 -0.5160 -0.4405
  161SOPE   H6X18061   3.201   2.115   9.924 -1.0109 -2.1744  0.6024
  161SOPE   H6Y18062   3.167   2.268  10.021  0.8259  0.1428 -1.0339
  161SOPE   C3718063   3.139   2.291   9.813  0.3162 -0.1733 -0.0545
  161SOPE   H7X18064   3.240   2.326   9.782 -0.2089 -0.5954 -2.4982
  161SOPE   H7Y18065   3.077   2.380   9.838 -0.8332 -0.9239 -0.1896
  161SOPE   C3818066   3.076   2.231   9.687  0.5209  0.5411 -0.0383
  161SOPE   H8X18067   2.969   2.204   9.701  0.6098  1.0712  2.1036
  161SOPE   H8Y18068   3.129   2.140   9.652  1.9372  1.6682 -0.9366
  161SOPE   C3918069   3.066   2.332   9.572 -0.2284  0.8139  1.2695
  161SOPE   H9X18070   3.167   2.379   9.566 -0.4279  1.0465 -1.2454
  161SOPE   H9Y18071   2.993   2.413   9.593 -1.8782 -0.4846  0.7446
  161SOPE  C31018072   3.039   2.254   9.440 -0.1012 -1.2452 -0.1872
  161SOPE  H10X18073   2.947   2.197   9.464 -0.9593  0.0989 -0.1594
  161SOPE  H10Y18074   3.108   2.168   9.426 -1.3815 -2.3710  0.3059
  161SOPE  C31118075   3.016   2.346   9.322 -0.1677 -0.5693  0.8685
  161SOPE  H11X18076   3.117   2.356   9.278 -0.8187 -1.0715 -0.8012
  161SOPE  H11Y18077   2.979   2.445   9.355 -2.1474 -1.5255  1.7445
  161SOPE  C31218078   2.925   2.283   9.210 -0.1973  0.0519 -0.5743
  161SOPE  H12X18079   2.835   2.248   9.265  1.0591 -0.1690  1.4631
  161SOPE  H12Y18080   2.975   2.193   9.166 -0.2267 -1.5991  2.5035
  161SOPE  C31318081   2.890   2.381   9.097  0.7143 -0.2284 -0.2401
  161SOPE  H13X18082   2.977   2.422   9.040 -0.1687  1.8680 -0.1447
  161SOPE  H13Y18083   2.849   2.473   9.143  0.0225 -0.3761 -0.5471
  161SOPE  C31418084   2.788   2.319   8.998  0.1713 -0.7463 -1.1156
  161SOPE  H14X18085   2.702   2.275   9.053 -0.6775  0.5692 -1.3340
  161SOPE  H14Y18086   2.840   2.234   8.948  1.4572  0.1304 -1.2902
  161SOPE  C31518087   2.744   2.417   8.894  0.6543 -0.4933 -0.1111
  161SOPE  H15X18088   2.829   2.452   8.831  0.3426 -1.4414 -1.0805
  161SOPE  H15Y18089   2.696   2.505   8.942  1.3331 -0.4810  0.5626
  161SOPE  C31618090   2.642   2.358   8.792 -0.0128 -0.5172  0.0777
  161SOPE  H16X18091   2.591   2.437   8.735  0.1124 -0.4061  0.1196
  161SOPE  H16Y18092   2.564   2.306   8.852 -1.5314  1.2592 -0.3025
  161SOPE  C31718093   2.714   2.258   8.697  0.2228  0.1211  0.0232
  161SOPE  H17X18094   2.638   2.203   8.636  0.0373 -1.5874  1.7201
  161SOPE  H17Y18095   2.764   2.176   8.752 -1.4196 -2.1009 -1.6087
  161SOPE  C31818096   2.833   2.314   8.611 -0.6394 -0.2833 -0.0376
  161SOPE  H18X18097   2.785   2.399   8.556 -0.0430  0.7517  1.0045
  161SOPE  H18Y18098   2.867   2.240   8.536  0.9195 -0.5555  0.8993
  161SOPE  H18Z18099   2.913   2.344   8.681 -0.1796 -0.1862 -0.5980
  162SOPE     N18100   1.724   0.527  10.564  0.2421 -0.1044 -0.1558
  162SOPE   HN118101   1.647   0.547  10.497  1.4361  0.5741 -1.3743
  162SOPE   HN218102   1.689   0.525  10.662  0.2232  0.1982 -0.1562
  162SOPE   HN318103   1.791   0.606  10.557 -1.9769  1.8549 -0.6419
  162SOPE   C1218104   1.782   0.398  10.521  1.0487 -0.1662  0.2621
  162SOPE  H12A18105   1.832   0.411  10.422  1.0814 -2.0049 -0.0151
  162SOPE  H12B18106   1.688   0.340  10.503  0.0791  1.0849  1.1724
  162SOPE   C1118107   1.875   0.341  10.626  0.3118 -0.2451  0.6368
  162SOPE  H11A18108   1.922   0.245  10.595  0.2484 -0.3436  0.8439
  162SOPE  H11B18109   1.817   0.319  10.718  0.8235  0.7415  1.2092
  162SOPE     P18110   2.098   0.398  10.762 -0.3665  0.6603 -0.5639
  162SOPE   O1318111   2.152   0.268  10.723 -0.5606  0.5077  0.2174
  162SOPE   O1418112   2.053   0.417  10.902 -0.1285 -0.5444  0.2284
  162SOPE   O1218113   1.985   0.435  10.660  0.7153 -0.6611  0.5439
  162SOPE   O1118114   2.214   0.499  10.728 -0.0742  0.0355  0.2648
  162SOPE    C118115   2.189   0.598  10.623 -0.4301  0.3071 -1.1284
  162SOPE    HA18116   2.267   0.677  10.632  1.3413 -1.0636 -3.2812
  162SOPE    HB18117   2.088   0.644  10.622 -0.6554 -0.1057  0.3200
  162SOPE    C218118   2.227   0.528  10.487  0.4360  0.0811 -0.9612
  162SOPE    HS18119   2.157   0.444  10.467 -1.9271  1.2690  1.6856
  162SOPE   O2118120   2.366   0.494  10.476 -0.1079  0.6344  0.5336
  162SOPE   C2118121   2.387   0.371  10.423  0.4838 -0.0589  0.0373
  162SOPE   O2218122   2.300   0.294  10.387 -0.0179  0.0471 -0.1058
  162SOPE   C2218123   2.540   0.350  10.393 -0.6322  0.0207 -0.1450
  162SOPE   H2R18124   2.575   0.257  10.443  0.7797  1.8836  2.6334
  162SOPE   H2S18125   2.594   0.438  10.435 -0.3944  1.2049 -2.7266
  162SOPE    C318126   2.188   0.635  10.376  0.1768 -0.0189 -0.2742
  162SOPE    HX18127   2.271   0.706  10.399 -1.1868  0.2285  5.1739
  162SOPE    HY18128   2.092   0.678  10.410  0.3421 -0.4720  0.8105
  162SOPE   O3118129   2.198   0.580  10.239 -0.2561  0.2001 -0.2763
  162SOPE   C3118130   2.101   0.502  10.208 -0.1043  0.1115  0.2175
  162SOPE   O3218131   1.998   0.469  10.274 -0.5214 -0.2199  0.7014
  162SOPE   C3218132   2.145   0.442  10.069  0.0810  0.2948 -0.0870
  162SOPE   H2X18133   2.232   0.380  10.100 -1.0188 -0.2374  2.1258
  162SOPE   H2Y18134   2.177   0.520   9.997  1.3227  0.6324  0.8008
  162SOPE   C2318135   2.572   0.351  10.242 -0.3709  0.4543  0.9607
  162SOPE   H3R18136   2.534   0.451  10.210 -0.0566 -0.2598 -1.9150
  162SOPE   H3S18137   2.507   0.273  10.196 -0.4424 -0.1884  2.1204
  162SOPE   C2418138   2.720   0.322  10.209 -0.2106  0.3555 -0.1472
  162SOPE   H4R18139   2.782   0.389  10.273 -1.2470 -1.4513  2.9419
  162SOPE   H4S18140   2.743   0.220  10.245 -0.6076  0.5294  0.6201
  162SOPE   C2518141   2.769   0.327  10.067  0.3668 -0.4717 -0.2687
  162SOPE   H5R18142   2.780   0.433  10.034  0.6871  0.6325  3.0151
  162SOPE   H5S18143   2.862   0.266  10.064  0.1237 -0.8217 -0.9546
  162SOPE   C2618144   2.675   0.256   9.956  0.1079  0.0087  0.4868
  162SOPE   H6R18145   2.630   0.160   9.987 -1.2549  0.4100 -0.1563
  162SOPE   H6S18146   2.590   0.325   9.943  0.1178 -0.2748 -1.2885
  162SOPE   C2718147   2.756   0.238   9.821 -0.4264  0.4743 -0.5615
  162SOPE   H7R18148   2.817   0.324   9.786  0.5361  0.1437  0.2572
  162SOPE   H7S18149   2.827   0.159   9.853 -3.0169 -1.4205  0.8540
  162SOPE   C2818150   2.672   0.189   9.701  0.6419  0.6149 -0.0499
  162SOPE   H8R18151   2.622   0.095   9.730  1.7380  0.0420  0.0220
  162SOPE   H8S18152   2.595   0.265   9.676  2.9966  2.6166 -1.8232
  162SOPE   C2918153   2.748   0.168   9.571 -0.2953  0.1309  0.6606
  162SOPE   H9118154   2.806   0.074   9.578 -1.3681 -0.5666  0.3504
  162SOPE  C21018155   2.754   0.253   9.464 -0.3687  0.0967 -0.3500
  162SOPE  H10118156   2.816   0.236   9.375 -0.4772  0.6936 -0.5445
  162SOPE  C21118157   2.693   0.388   9.450 -0.2822 -0.2429  0.1822
  162SOPE  H11R18158   2.769   0.469   9.456 -0.5276 -0.0508  0.8209
  162SOPE  H11S18159   2.614   0.411   9.524  0.7060 -0.1302  1.2452
  162SOPE  C21218160   2.611   0.415   9.316 -0.0956  0.0465 -0.4094
  162SOPE  H12R18161   2.529   0.343   9.292 -1.2391  0.6043  1.6013
  162SOPE  H12S18162   2.674   0.404   9.226 -0.4761 -1.5180 -0.5159
  162SOPE  C21318163   2.553   0.562   9.310  0.5738  0.6627  0.0563
  162SOPE  H13R18164   2.646   0.621   9.327  0.4989  0.4153  1.4816
  162SOPE  H13S18165   2.485   0.580   9.396 -0.0687  0.3155 -0.3780
  162SOPE  C21418166   2.496   0.600   9.177  0.0980 -0.0150 -0.1041
  162SOPE  H14R18167   2.448   0.699   9.191 -0.8653 -0.8384  3.4979
  162SOPE  H14S18168   2.421   0.519   9.162  0.3249 -0.2875  0.2206
  162SOPE  C21518169   2.587   0.601   9.047  0.6681 -0.0065  0.1290
  162SOPE  H15R18170   2.627   0.498   9.036  0.9887  0.1789 -0.4780
  162SOPE  H15S18171   2.681   0.658   9.061  1.0051 -1.1515  3.4024
  162SOPE  C21618172   2.518   0.649   8.914 -0.4403 -1.1247  0.3545
  162SOPE  H16R18173   2.467   0.747   8.925  3.3372  1.2436 -1.3676
  162SOPE  H16S18174   2.432   0.579   8.906 -1.9233  0.4834  1.4458
  162SOPE  C21718175   2.604   0.652   8.788  0.0124  0.1171 -0.2243
  162SOPE  H17R18176   2.646   0.550   8.780  0.1535  0.1702 -0.1811
  162SOPE  H17S18177   2.689   0.723   8.805 -0.0877 -0.2222  2.0722
  162SOPE  C21818178   2.532   0.696   8.669  0.1122  0.3166  0.4214
  162SOPE  H18R18179   2.607   0.716   8.590  0.2698  0.1079  0.5158
  162SOPE  H18S18180   2.481   0.795   8.676  0.5015  0.4759  1.0710
  162SOPE  H18T18181   2.453   0.624   8.638 -1.0677  0.1570  3.4421
  162SOPE   C3318182   2.040   0.341  10.008 -0.6255 -0.5605 -0.0828
  162SOPE   H3X18183   1.939   0.389  10.000 -0.4876 -0.1258  0.6535
  162SOPE   H3Y18184   2.024   0.253  10.074 -0.6261  0.3687  1.1925
  162SOPE   C3418185   2.086   0.286   9.874 -0.2628 -0.0443  0.4592
  162SOPE   H4X18186   2.112   0.178   9.877  0.3988 -0.0515 -2.2817
  162SOPE   H4Y18187   2.176   0.338   9.835  0.2344  0.4331  2.1879
  162SOPE   C3518188   1.972   0.305   9.769  0.6432  0.0752  0.0718
  162SOPE   H5X18189   1.969   0.410   9.735 -0.8484  0.2106  0.5252
  162SOPE   H5Y18190   1.878   0.282   9.824  0.9628 -0.8242  0.2650
  162SOPE   C3618191   1.982   0.208   9.643 -0.2898 -0.2505  0.3355
  162SOPE   H6X18192   1.981   0.100   9.666 -0.2416 -0.6624 -1.4660
  162SOPE   H6Y18193   2.086   0.218   9.605  0.6964  0.4296  2.9734
  162SOPE   C3718194   1.875   0.235   9.532  0.3287 -0.0769 -0.1309
  162SOPE   H7X18195   1.873   0.341   9.498 -0.1899 -0.0394 -0.0038
  162SOPE   H7Y18196   1.773   0.219   9.573  0.1791 -0.4219 -0.6284
  162SOPE   C3818197   1.886   0.148   9.400  0.2163 -0.4337 -0.2382
  162SOPE   H8X18198   1.826   0.060   9.430 -0.0500  0.2906  1.4663
  162SOPE   H8Y18199   1.994   0.127   9.384  0.2080 -1.1995  0.6349
  162SOPE   C3918200   1.815   0.218   9.281 -0.2563  0.6555 -0.5221
  162SOPE   H9X18201   1.874   0.304   9.244  0.3134 -0.6812 -2.9894
  162SOPE   H9Y18202   1.717   0.249   9.324  0.7778  1.2827  1.4673
  162SOPE  C31018203   1.775   0.121   9.166  0.0973  0.6216 -0.2271
  162SOPE  H10X18204   1.688   0.150   9.104 -0.9194 -2.1471 -0.2501
  162SOPE  H10Y18205   1.746   0.023   9.211  0.9386 -0.5736 -2.1422
  162SOPE  C31118206   1.885   0.098   9.066 -0.4793  0.7111 -0.6012
  162SOPE  H11X18207   1.980   0.067   9.113 -0.1706  0.1713 -1.5456
  162SOPE  H11Y18208   1.911   0.195   9.017  1.7146  0.9913  0.9732
  162SOPE  C31218209   1.843   0.010   8.953 -0.7423 -0.4150 -0.0559
  162SOPE  H12X18210   1.748   0.043   8.907 -0.7785  0.8490  0.8694
  162SOPE  H12Y18211   1.823  -0.093   8.989 -1.5023  0.0733  0.9351
  162SOPE  C31318212   1.959   0.005   8.852  0.9376 -0.4272 -0.1890
  162SOPE  H13X18213   2.049  -0.023   8.910  0.5232  0.4805  0.9506
  162SOPE  H13Y18214   1.966   0.114   8.829 -0.7597  0.5049  3.1113
  162SOPE  C31418215   1.927  -0.080   8.736 -0.0135 -0.1459  0.5808
  162SOPE  H14X18216   1.996  -0.056   8.652 -1.2997 -0.4784 -0.6078
  162SOPE  H14Y18217   1.821  -0.060   8.711  0.4749  0.0548 -1.5577
  162SOPE  C31518218   1.942  -0.232   8.760  0.1163 -0.2678 -0.8243
  162SOPE  H15X18219   1.864  -0.260   8.833  0.6265 -0.5791 -0.3863
  162SOPE  H15Y18220   2.046  -0.244   8.797 -0.6329  0.7118  1.8235
  162SOPE  C31618221   1.925  -0.323   8.639 -0.3337 -0.1159 -0.3620
  162SOPE  H16X18222   2.013  -0.307   8.573  0.3077 -0.7587  0.3261
  162SOPE  H16Y18223   1.835  -0.301   8.577 -0.4143  1.1894  0.1773
  162SOPE  C31718224   1.932  -0.470   8.672 -0.3561  0.5611  0.0336
  162SOPE  H17X18225   1.859  -0.494   8.753 -0.5055  2.3753  0.4687
  162SOPE  H17Y18226   2.034  -0.503   8.701 -0.6108 -2.1699 -1.7763
  162SOPE  C31818227   1.899  -0.570   8.564  0.3655  0.0262  0.9254
  162SOPE  H18X18228   1.968  -0.558   8.478  0.4303  0.6829  1.0592
  162SOPE  H18Y18229   1.801  -0.545   8.519  0.4840 -2.1115 -0.7010
  162SOPE  H18Z18230   1.909  -0.674   8.601 -1.0224 -0.9371 -1.2413
  163SOPE     N18231   4.157   6.141  11.192  0.5547 -0.3848  0.2955
  163SOPE   HN118232   4.187   6.150  11.291 -1.1352 -0.8231  0.8934
  163SOPE   HN218233   4.223   6.184  11.125  0.9644 -0.9235  0.3464
  163SOPE   HN318234   4.064   6.188  11.185 -0.5815 -2.5552 -0.1774
  163SOPE   C1218235   4.146   6.009  11.134  0.2483 -0.5105 -0.9377
  163SOPE  H12A18236   4.077   5.950  11.198 -1.2296  1.5922 -0.5149
  163SOPE  H12B18237   4.252   5.974  11.132  0.3235 -0.3071 -0.6517
  163SOPE   C1118238   4.114   6.022  10.985  0.7172 -1.1580  0.2697
  163SOPE  H11A18239   4.144   5.928  10.933  3.6268 -0.2154  0.0568
  163SOPE  H11B18240   4.175   6.100  10.935 -2.2763  2.3592  1.6439
  163SOPE     P18241   3.894   6.034  10.841  0.2468 -0.1762 -0.0835
  163SOPE   O1318242   3.804   6.155  10.824 -0.5091  0.4753 -0.5018
  163SOPE   O1418243   3.830   5.903  10.871  0.3817 -0.4223  0.7469
  163SOPE   O1218244   3.982   6.072  10.964  0.1137 -0.0500 -0.7133
  163SOPE   O1118245   4.001   6.027  10.732  0.2963  0.9934  0.4214
  163SOPE    C118246   4.055   6.143  10.664 -0.2833  0.9655 -0.9007
  163SOPE    HA18247   4.157   6.113  10.631 -0.3735  0.7507 -0.9889
  163SOPE    HB18248   4.069   6.224  10.738 -0.0459  0.5236 -0.4572
  163SOPE    C218249   3.985   6.186  10.533  0.4951  0.5569 -0.0610
  163SOPE    HS18250   3.918   6.272  10.555 -0.2131  0.3600 -1.4016
  163SOPE   O2118251   3.914   6.078  10.471  0.5974  0.5488  0.1556
  163SOPE   C2118252   3.783   6.086  10.466 -0.4985 -0.3731 -0.6038
  163SOPE   O2218253   3.723   6.194  10.473  0.0150  0.2587 -0.3248
  163SOPE   C2218254   3.714   5.940  10.460 -0.2135 -0.1706 -0.7250
  163SOPE   H2R18255   3.682   5.914  10.563 -0.8471 -0.2015 -0.9211
  163SOPE   H2S18256   3.799   5.869  10.451  0.0366 -0.3284  2.1995
  163SOPE    C318257   4.083   6.259  10.429 -0.5232  0.6701 -0.6746
  163SOPE    HX18258   4.169   6.193  10.403 -0.8793 -0.0737 -0.0049
  163SOPE    HY18259   4.131   6.343  10.483  1.2302 -2.2714  2.8088
  163SOPE   O3118260   4.021   6.299  10.308 -0.3761 -0.0675  0.4122
  163SOPE   C3118261   3.942   6.399  10.306 -0.0972 -0.5278 -0.3070
  163SOPE   O3218262   3.913   6.474  10.397 -0.1109  0.4874 -0.0385
  163SOPE   C3218263   3.884   6.407  10.168 -0.0726  0.2682  0.3632
  163SOPE   H2X18264   3.818   6.496  10.172  0.2623  0.4714  2.4025
  163SOPE   H2Y18265   3.836   6.307  10.155 -1.2863  0.6143  1.8862
  163SOPE   C2318266   3.596   5.927  10.365  0.7963  0.1211 -0.8143
  163SOPE   H3R18267   3.536   6.018  10.385 -2.9698 -2.4011  0.4140
  163SOPE   H3S18268   3.526   5.843  10.386  1.1215 -0.0894 -0.5696
  163SOPE   C2418269   3.613   5.915  10.211 -0.2647 -0.7242 -0.8967
  163SOPE   H4R18270   3.512   5.890  10.172 -0.8594 -0.0832  0.1724
  163SOPE   H4S18271   3.653   6.008  10.166 -2.2984  1.1166  0.8124
  163SOPE   C2518272   3.692   5.788  10.184 -0.1431  0.1107  0.1826
  163SOPE   H5R18273   3.793   5.793  10.230 -1.0837 -0.8440  2.4706
  163SOPE   H5S18274   3.650   5.699  10.235 -0.0286  0.8191  1.5523
  163SOPE   C2618275   3.716   5.756  10.035 -0.8877 -0.7610  0.4456
  163SOPE   H6R18276   3.770   5.850  10.011  0.4911 -1.2440  1.5550
  163SOPE   H6S18277   3.795   5.678  10.021 -1.0066 -1.2061  2.0959
  163SOPE   C2718278   3.585   5.730   9.949  0.2902  0.3032  0.3932
  163SOPE   H7R18279   3.545   5.629   9.970 -1.9417  0.6329 -1.8050
  163SOPE   H7S18280   3.503   5.795   9.988 -0.3584 -0.4512  0.3128
  163SOPE   C2818281   3.595   5.756   9.790  0.1778  0.2921 -0.3473
  163SOPE   H8R18282   3.496   5.789   9.753  0.1806 -2.3377 -3.0742
  163SOPE   H8S18283   3.660   5.846   9.785  0.2396  0.3321  0.7768
  163SOPE   C2918284   3.647   5.641   9.704 -0.4761 -0.7126 -0.7176
  163SOPE   H9118285   3.583   5.552   9.713 -0.2835 -0.7455  0.5268
  163SOPE  C21018286   3.764   5.631   9.640  0.0553 -1.0341  0.8731
  163SOPE  H10118287   3.786   5.546   9.574  0.6921 -0.7029  0.6465
  163SOPE  C21118288   3.875   5.736   9.627  0.6752 -0.0793  0.1693
  163SOPE  H11R18289   3.963   5.682   9.669  0.3858 -0.5305  0.1923
  163SOPE  H11S18290   3.869   5.831   9.685 -0.5181  0.5401 -0.9126
  163SOPE  C21218291   3.886   5.779   9.482 -0.7713  0.1317  0.8027
  163SOPE  H12R18292   3.793   5.826   9.445 -0.7319 -0.8376 -0.5883
  163SOPE  H12S18293   3.903   5.688   9.421  0.4237  0.0824  1.1670
  163SOPE  C21318294   4.005   5.873   9.448 -0.2620  0.7906  0.0936
  163SOPE  H13R18295   4.097   5.822   9.482  0.5753  1.3625 -1.2482
  163SOPE  H13S18296   3.989   5.960   9.515  1.3651  0.7356  0.5824
  163SOPE  C21418297   4.022   5.922   9.306  0.4611  0.5111 -0.1558
  163SOPE  H14R18298   4.103   5.997   9.290  0.0272  1.4314  1.6431
  163SOPE  H14S18299   3.926   5.977   9.289  1.7421  2.5522 -1.2071
  163SOPE  C21518300   4.041   5.805   9.208  0.4598  0.5876  0.7779
  163SOPE  H15R18301   3.965   5.725   9.211  0.2324  0.8275  1.4553
  163SOPE  H15S18302   4.140   5.766   9.242  0.4495 -0.4754 -0.3116
  163SOPE  C21618303   4.052   5.862   9.065  0.1362 -0.5919 -0.2329
  163SOPE  H16R18304   4.109   5.957   9.061 -3.3092  1.6161 -2.9273
  163SOPE  H16S18305   3.949   5.888   9.033  0.1501 -0.1897  0.0376
  163SOPE  C21718306   4.119   5.765   8.970  0.2540  0.2213  0.4473
  163SOPE  H17R18307   4.065   5.669   8.962  2.7098 -1.0913 -1.9641
  163SOPE  H17S18308   4.219   5.740   9.012  0.9034 -0.6899 -1.5584
  163SOPE  C21818309   4.123   5.821   8.827  0.7814  0.8466 -0.0076
  163SOPE  H18R18310   4.016   5.829   8.796  0.6422 -0.6371  0.0444
  163SOPE  H18S18311   4.164   5.748   8.754 -0.7800 -0.4826  0.3792
  163SOPE  H18T18312   4.174   5.920   8.817 -0.0869  1.3256  0.1531
  163SOPE   C3318313   3.995   6.430  10.061 -0.0017  0.2977  0.4641
  163SOPE   H3X18314   4.076   6.354  10.065 -2.1566 -2.1787 -0.1293
  163SOPE   H3Y18315   4.039   6.531  10.067 -1.6630  1.2309 -1.7130
  163SOPE   C3418316   3.938   6.419   9.921 -0.0369  0.1867 -0.6231
  163SOPE   H4X18317   3.874   6.509   9.913  0.1499  0.4129  0.3147
  163SOPE   H4Y18318   3.875   6.327   9.924 -0.4897  0.4803 -0.9677
  163SOPE   C3518319   4.043   6.407   9.810  0.0411 -0.2710 -0.5078
  163SOPE   H5X18320   4.090   6.307   9.808  3.4597  1.0768  2.4531
  163SOPE   H5Y18321   4.118   6.487   9.828 -0.5759 -0.0977  1.5684
  163SOPE   C3618322   3.978   6.422   9.671  0.6006 -0.5119 -1.2516
  163SOPE   H6X18323   3.943   6.525   9.647  0.3472  0.5177  2.8706
  163SOPE   H6Y18324   3.889   6.355   9.668 -1.1681  1.4807  1.9699
  163SOPE   C3718325   4.070   6.370   9.552 -0.0398  0.0218 -0.5545
  163SOPE   H7X18326   4.104   6.270   9.586  1.7566  0.5406 -0.6989
  163SOPE   H7Y18327   4.151   6.445   9.533  0.3303 -0.6033 -1.5427
  163SOPE   C3818328   3.983   6.337   9.429 -0.1402  0.4916  0.5628
  163SOPE   H8X18329   3.917   6.426   9.418 -0.6434 -0.0616 -1.3006
  163SOPE   H8Y18330   3.917   6.250   9.451  0.2280  0.3044  0.9477
  163SOPE   C3918331   4.053   6.315   9.293  0.4124 -0.0300  0.2590
  163SOPE   H9X18332   4.087   6.210   9.293  0.5663  0.0187  0.1894
  163SOPE   H9Y18333   4.134   6.390   9.285 -0.9637  1.3892 -1.4222
  163SOPE  C31018334   3.954   6.339   9.176  0.4012  0.2204  0.3440
  163SOPE  H10X18335   3.895   6.433   9.183 -0.1678 -0.2558  2.7692
  163SOPE  H10Y18336   3.879   6.257   9.172  0.6560  0.0287 -1.4397
  163SOPE  C31118337   4.005   6.328   9.029 -0.3453  0.1339  0.3106
  163SOPE  H11X18338   4.040   6.223   9.018 -0.7268 -0.0145  0.5045
  163SOPE  H11Y18339   4.077   6.405   8.994  2.3523 -0.5934  3.6814
  163SOPE  C31218340   3.890   6.341   8.928 -0.6146  0.0261 -0.1817
  163SOPE  H12X18341   3.803   6.293   8.977  0.9922 -1.3635  1.4645
  163SOPE  H12Y18342   3.927   6.298   8.833 -0.3394  0.3242 -0.2113
  163SOPE  C31318343   3.844   6.490   8.916 -0.4725 -0.6559  0.0982
  163SOPE  H13X18344   3.931   6.548   8.878 -0.8075 -0.0201  0.2870
  163SOPE  H13Y18345   3.806   6.528   9.014  0.0179  0.4370 -0.1221
  163SOPE  C31418346   3.747   6.506   8.802 -0.0250  0.1425 -0.0094
  163SOPE  H14X18347   3.656   6.445   8.819 -0.9526  0.5861 -2.8273
  163SOPE  H14Y18348   3.789   6.451   8.716  2.1054  1.4266  0.1535
  163SOPE  C31518349   3.717   6.654   8.758  0.6141 -0.1688  0.8126
  163SOPE  H15X18350   3.640   6.653   8.677  1.8478  3.2745 -0.6122
  163SOPE  H15Y18351   3.800   6.715   8.716 -1.5350  0.8483 -2.3125
  163SOPE  C31618352   3.653   6.738   8.868 -0.0324  0.0362  0.0893
  163SOPE  H16X18353   3.584   6.672   8.925 -0.2300  0.0162 -0.1692
  163SOPE  H16Y18354   3.590   6.812   8.813 -0.2880 -0.1283  0.1563
  163SOPE  C31718355   3.746   6.815   8.960 -0.5564  0.2194  0.3944
  163SOPE  H17X18356   3.802   6.741   9.020  0.2332  1.5728  1.3646
  163SOPE  H17Y18357   3.689   6.883   9.026  1.3766  0.1778  2.1819
  163SOPE  C31818358   3.850   6.898   8.888 -0.5013  0.9114  0.9730
  163SOPE  H18X18359   3.816   6.969   8.809 -0.8673  0.5028  0.7578
  163SOPE  H18Y18360   3.913   6.828   8.830 -0.5841 -0.6081  2.6535
  163SOPE  H18Z18361   3.915   6.942   8.967  0.4993 -0.9677  1.2414
  164SOPE     N18362   0.287   0.818  10.630 -0.0473  0.5953  0.1672
  164SOPE   HN118363   0.222   0.897  10.613 -0.5548  0.1741  0.1417
  164SOPE   HN218364   0.377   0.850  10.672  0.2189  2.3195 -1.5420
  164SOPE   HN318365   0.320   0.791  10.535  0.1183  1.4595 -0.0314
  164SOPE   C1218366   0.218   0.704  10.706  0.1953  0.5428  0.2246
  164SOPE  H12A18367   0.153   0.744  10.787  2.2393  0.4966  1.9783
  164SOPE  H12B18368   0.304   0.657  10.758  0.6790 -0.7624 -1.6521
  164SOPE   C1118369   0.155   0.610  10.609  0.4178 -0.3561 -0.4027
  164SOPE  H11A18370   0.083   0.667  10.546 -0.1956  1.0981  1.4957
  164SOPE  H11B18371   0.101   0.532  10.668  0.9098  0.4920  1.2345
  164SOPE     P18372   0.232   0.437  10.419  0.3362  0.5033  0.2545
  164SOPE   O1318373   0.217   0.308  10.491  0.1281  0.5190 -0.3321
  164SOPE   O1418374   0.341   0.444  10.320  0.0914  0.1647 -0.3927
  164SOPE   O1218375   0.255   0.548  10.534  0.4919 -0.0853 -0.1629
  164SOPE   O1118376   0.089   0.472  10.350 -0.2890  0.3696  0.6802
  164SOPE    C118377   0.092   0.581  10.254  0.2056  0.6705  0.1620
  164SOPE    HA18378   0.158   0.554  10.169 -1.4937  1.2267 -1.3797
  164SOPE    HB18379   0.136   0.667  10.310 -1.3694  2.6054 -1.4357
  164SOPE    C218380  -0.050   0.605  10.200 -0.0767  0.4964  0.2354
  164SOPE    HS18381  -0.111   0.513  10.205 -0.3008  0.6543  0.3938
  164SOPE   O2118382  -0.013   0.651  10.068  0.4787  0.1020 -0.1804
  164SOPE   C2118383  -0.115   0.623   9.981  0.8244 -0.4110  1.0861
  164SOPE   O2218384  -0.219   0.573  10.010 -0.0678  0.2765  0.3220
  164SOPE   C2218385  -0.060   0.664   9.842 -0.1872 -0.0181  0.4523
  164SOPE   H2R18386   0.049   0.648   9.831  0.7427  4.2617  1.6094
  164SOPE   H2S18387  -0.073   0.774   9.831  1.0347  0.2222  1.2403
  164SOPE    C318388  -0.132   0.698  10.278 -0.4715 -0.8107  0.2555
  164SOPE    HX18389  -0.104   0.674  10.383  0.4016 -1.5076 -0.1227
  164SOPE    HY18390  -0.240   0.677  10.265 -0.6531 -0.8364  1.6357
  164SOPE   O3118391  -0.094   0.833  10.243 -0.1137 -0.2434 -0.1820
  164SOPE   C3118392  -0.181   0.935  10.252 -0.2460  0.0789  0.2837
  164SOPE   O3218393  -0.288   0.927  10.307  0.5295  0.1818 -0.2986
  164SOPE   C3218394  -0.128   1.055  10.177  0.5973  0.2569 -0.3939
  164SOPE   H2X18395  -0.022   1.066  10.210  0.0757  0.3846  1.3272
  164SOPE   H2Y18396  -0.183   1.145  10.211  0.4725 -0.5201  1.6626
  164SOPE   C2318397  -0.138   0.593   9.719  0.2233  0.3940 -0.9735
  164SOPE   H3R18398  -0.244   0.625   9.729  0.6201  1.6574 -0.5800
  164SOPE   H3S18399  -0.123   0.484   9.735  0.1588  0.4818 -0.2974
  164SOPE   C2418400  -0.085   0.637   9.584 -0.0388  0.2939  0.7522
  164SOPE   H4R18401  -0.093   0.747   9.566  1.3022  0.1304 -1.1325
  164SOPE   H4S18402   0.022   0.612   9.573 -0.3077 -0.9015  0.7969
  164SOPE   C2518403  -0.161   0.572   9.461  0.4411 -0.2522  0.0546
  164SOPE   H5R18404  -0.164   0.462   9.472  0.8814 -0.1978  0.7691
  164SOPE   H5S18405  -0.268   0.599   9.470  0.3977 -0.5592  0.4967
  164SOPE   C2618406  -0.098   0.620   9.332  0.1614 -0.1635 -0.2244
  164SOPE   H6R18407  -0.139   0.722   9.318 -2.0747 -1.1541 -1.3985
  164SOPE   H6S18408   0.009   0.625   9.362 -0.0093 -0.4331  0.4431
  164SOPE   C2718409  -0.150   0.545   9.206  0.3213 -0.3167 -0.3060
  164SOPE   H7R18410  -0.113   0.441   9.222  0.2246 -0.3671 -0.4000
  164SOPE   H7S18411  -0.261   0.539   9.193  0.1514  2.5191 -0.6760
  164SOPE   C2818412  -0.085   0.595   9.076  0.1921  0.3810  0.5281
  164SOPE   H8R18413  -0.131   0.553   8.984 -1.7590  0.5489  1.3858
  164SOPE   H8S18414  -0.084   0.706   9.075 -1.4938  0.4246  1.0538
  164SOPE   C2918415   0.060   0.554   9.067 -0.4197  0.0528  0.4720
  164SOPE   H9118416   0.101   0.534   9.167 -1.3432  0.6024  0.9757
  164SOPE  C21018417   0.133   0.533   8.954 -0.0198  0.0599  0.3681
  164SOPE  H10118418   0.228   0.484   8.980  0.6237  0.2878 -1.4136
  164SOPE  C21118419   0.089   0.544   8.806  0.3993  0.3635  0.3457
  164SOPE  H11R18420  -0.004   0.605   8.804 -1.3168 -2.0511 -2.2823
  164SOPE  H11S18421   0.067   0.444   8.762  0.2332 -0.6611  2.6200
  164SOPE  C21218422   0.196   0.619   8.722  0.3913 -0.2321 -0.3733
  164SOPE  H12R18423   0.297   0.572   8.730  0.1555 -1.0489 -1.8060
  164SOPE  H12S18424   0.193   0.720   8.767 -0.4853 -1.1308  1.7098
  164SOPE  C21318425   0.183   0.627   8.571  0.0148 -0.0288 -0.9129
  164SOPE  H13R18426   0.086   0.581   8.539 -0.0049 -1.1560  0.6440
  164SOPE  H13S18427   0.269   0.574   8.525  1.4814  1.5386 -0.0344
  164SOPE  C21418428   0.180   0.775   8.537 -1.1132 -0.0886 -0.1355
  164SOPE  H14R18429   0.271   0.823   8.579 -2.8642  2.1444  1.3699
  164SOPE  H14S18430   0.087   0.817   8.582 -2.2942 -1.4552 -1.2386
  164SOPE  C21518431   0.169   0.793   8.388  0.1420  0.2146  0.2918
  164SOPE  H15R18432   0.086   0.730   8.351  0.1159  0.9960 -1.0661
  164SOPE  H15S18433   0.264   0.760   8.341 -0.2549  0.4378 -0.6945
  164SOPE  C21618434   0.140   0.943   8.358 -0.1166 -0.2051  0.7684
  164SOPE  H16R18435   0.233   0.995   8.388  0.0231 -0.0667  0.1160
  164SOPE  H16S18436   0.060   0.993   8.416  0.4367 -0.8385  2.1216
  164SOPE  C21718437   0.104   0.958   8.211  0.2721 -0.3586  0.5131
  164SOPE  H17R18438   0.004   0.910   8.202 -0.2286  0.6284  0.6987
  164SOPE  H17S18439   0.178   0.896   8.155 -0.5777 -0.5969 -0.3797
  164SOPE  C21818440   0.103   1.103   8.153 -0.1095  0.8155 -0.6602
  164SOPE  H18R18441   0.183   1.161   8.205  0.3387 -0.4694  0.1391
  164SOPE  H18S18442   0.002   1.143   8.178 -0.7578  0.0544 -2.0013
  164SOPE  H18T18443   0.111   1.102   8.043  2.2307  3.4863 -0.6587
  164SOPE   C3318444  -0.139   1.037  10.025 -0.3610  0.2553 -0.3809
  164SOPE   H3X18445  -0.096   0.943   9.985 -0.9227  0.8581 -2.5325
  164SOPE   H3Y18446  -0.081   1.121   9.980  0.4969 -0.1365 -0.0249
  164SOPE   C3418447  -0.283   1.047   9.976 -0.0164 -0.0104 -0.0872
  164SOPE   H4X18448  -0.328   1.147   9.995 -1.1737 -0.3640 -0.8912
  164SOPE   H4Y18449  -0.325   0.961  10.032  0.7754 -0.3300  0.0303
  164SOPE   C3518450  -0.308   1.027   9.820  0.3714 -0.5043  0.6673
  164SOPE   H5X18451  -0.416   1.038   9.797  1.1122  0.7337 -2.7228
  164SOPE   H5Y18452  -0.276   0.922   9.801 -0.6853 -1.1287  2.1570
  164SOPE   C3618453  -0.230   1.132   9.728 -0.3731  0.3290  0.7626
  164SOPE   H6X18454  -0.138   1.165   9.780 -0.5316  2.5498 -0.2527
  164SOPE   H6Y18455  -0.285   1.224   9.699  0.0269  0.2993 -0.1393
  164SOPE   C3718456  -0.203   1.066   9.587 -0.5471  0.6476 -0.6636
  164SOPE   H7X18457  -0.159   0.965   9.604 -0.2058  1.2885  3.1387
  164SOPE   H7Y18458  -0.123   1.111   9.524  1.7213 -2.4862 -0.2466
  164SOPE   C3818459  -0.332   1.049   9.498  0.5743 -0.4433  0.4837
  164SOPE   H8X18460  -0.372   1.151   9.477  4.1182  0.6263 -2.0788
  164SOPE   H8Y18461  -0.403   0.997   9.566  1.3541 -0.5270  1.2550
  164SOPE   C3918462  -0.327   0.947   9.378 -0.1016 -0.5001  0.0817
  164SOPE   H9X18463  -0.298   0.850   9.424 -2.0964 -0.5116  1.4904
  164SOPE   H9Y18464  -0.242   0.968   9.310 -0.7566 -0.5623 -0.7774
  164SOPE  C31018465  -0.455   0.941   9.301  0.3466  0.1259 -0.0425
  164SOPE  H10X18466  -0.508   1.039   9.292  0.3785  0.1660  0.1948
  164SOPE  H10Y18467  -0.533   0.888   9.360 -0.8548  1.3438 -0.4647
  164SOPE  C31118468  -0.446   0.870   9.167  0.3512  0.6113 -0.9302
  164SOPE  H11X18469  -0.546   0.827   9.146  0.6393 -1.1017  0.8901
  164SOPE  H11Y18470  -0.380   0.781   9.172  2.6175  2.1041 -2.2734
  164SOPE  C31218471  -0.390   0.961   9.057 -0.1106  0.2289  0.6147
  164SOPE  H12X18472  -0.300   1.008   9.101  0.4082  0.4401 -0.6318
  164SOPE  H12Y18473  -0.450   1.046   9.017  1.4575 -0.1834 -3.0514
  164SOPE  C31318474  -0.345   0.878   8.934 -0.0484 -0.4553 -0.1053
  164SOPE  H13X18475  -0.433   0.818   8.904  0.4485 -1.2482  0.0053
  164SOPE  H13Y18476  -0.272   0.803   8.971 -0.6204 -1.8525 -1.6969
  164SOPE  C31418477  -0.292   0.961   8.812  0.0206 -0.6704 -0.1726
  164SOPE  H14X18478  -0.227   1.041   8.851 -0.8859 -0.2034  0.3938
  164SOPE  H14Y18479  -0.378   1.006   8.758  0.6519  0.4013 -0.3204
  164SOPE  C31518480  -0.221   0.871   8.711 -1.0142 -0.2673 -0.0460
  164SOPE  H15X18481  -0.282   0.803   8.648  2.8227 -2.7961 -1.3878
  164SOPE  H15Y18482  -0.147   0.806   8.763  0.6667  0.9217 -0.8403
  164SOPE  C31618483  -0.150   0.939   8.597 -0.7771 -0.2985  0.1513
  164SOPE  H16X18484  -0.101   0.859   8.537 -0.8307 -0.0376 -0.2461
  164SOPE  H16Y18485  -0.077   1.011   8.639 -2.6443  2.3582 -0.8747
  164SOPE  C31718486  -0.240   1.004   8.486  0.6644 -0.6023  0.5061
  164SOPE  H17X18487  -0.162   1.038   8.414 -0.3017  0.4271 -0.0846
  164SOPE  H17Y18488  -0.298   1.083   8.539 -1.6159 -2.1164  0.4138
  164SOPE  C31818489  -0.350   0.914   8.415  0.5725 -0.4590  0.5912
  164SOPE  H18X18490  -0.414   0.987   8.362 -3.3040 -1.9273  2.7770
  164SOPE  H18Y18491  -0.415   0.862   8.489 -0.2833 -0.2613 -0.0075
  164SOPE  H18Z18492  -0.294   0.854   8.341 -0.3875 -0.6411  0.0003
  165SOPE     N18493   6.707   3.744  11.089  0.3303 -0.4624  0.0167
  165SOPE   HN118494   6.623   3.697  11.128 -0.2057  0.2576 -0.2471
  165SOPE   HN218495   6.741   3.689  11.008 -1.2225 -0.6863 -0.5059
  165SOPE   HN318496   6.785   3.746  11.158  1.3271 -0.4676 -1.0811
  165SOPE   C1218497   6.671   3.883  11.063 -0.5603  0.1079 -0.0299
  165SOPE  H12A18498   6.765   3.942  11.065 -1.1381  1.0966 -0.9730
  165SOPE  H12B18499   6.612   3.919  11.150 -0.8114 -1.9088  0.6738
  165SOPE   C1118500   6.594   3.899  10.929 -0.5035 -0.2582  0.4484
  165SOPE  H11A18501   6.662   3.880  10.843 -1.7891  0.0132 -0.6513
  165SOPE  H11B18502   6.553   4.001  10.913 -1.2377 -0.9666 -2.7826
  165SOPE     P18503   6.440   3.713  10.821 -0.1719  0.6698 -0.2553
  165SOPE   O1318504   6.293   3.703  10.849 -0.3674 -0.6615  0.2747
  165SOPE   O1418505   6.523   3.594  10.829  0.2928  0.1958 -0.4970
  165SOPE   O1218506   6.488   3.809  10.940  0.2099  0.4043  0.3183
  165SOPE   O1118507   6.468   3.793  10.695 -0.1332  0.0075 -0.2569
  165SOPE    C118508   6.485   3.735  10.563  0.0911  0.3505 -0.3297
  165SOPE    HA18509   6.394   3.678  10.536  2.1360 -3.1806 -0.3518
  165SOPE    HB18510   6.558   3.653  10.571 -2.5670 -2.0927  0.7191
  165SOPE    C218511   6.531   3.850  10.468  0.8221 -0.3219 -0.3049
  165SOPE    HS18512   6.606   3.910  10.525 -2.0940  2.9454  0.4391
  165SOPE   O2118513   6.425   3.932  10.415 -0.3282  1.1411  0.4833
  165SOPE   C2118514   6.445   4.057  10.417  0.5030 -0.6521 -0.0441
  165SOPE   O2218515   6.544   4.112  10.465 -0.4080 -0.6800 -0.1718
  165SOPE   C2218516   6.313   4.133  10.366  0.2273 -0.0739  0.3692
  165SOPE   H2R18517   6.244   4.121  10.453  0.2731 -0.7654  0.3149
  165SOPE   H2S18518   6.272   4.101  10.268  0.8504  2.0307 -0.6389
  165SOPE    C318519   6.619   3.786  10.351 -0.2583  0.6120 -0.6261
  165SOPE    HX18520   6.539   3.741  10.289 -1.2686  0.5674  0.6626
  165SOPE    HY18521   6.697   3.717  10.389 -0.3267  0.9172  0.0902
  165SOPE   O3118522   6.693   3.889  10.286  0.0206  0.4236  0.3110
  165SOPE   C3118523   6.716   3.856  10.160 -0.9127 -0.2876 -0.1852
  165SOPE   O3218524   6.689   3.751  10.110 -0.1066 -0.3436  0.6250
  165SOPE   C3218525   6.795   3.962  10.084 -0.5565  0.1307 -0.1980
  165SOPE   H2X18526   6.899   3.939  10.118 -0.6183  0.0945 -0.0356
  165SOPE   H2Y18527   6.775   4.065  10.118  1.6489  0.6134 -0.1784
  165SOPE   C2318528   6.345   4.290  10.353  0.0482  0.3068 -0.1070
  165SOPE   H3R18529   6.399   4.325  10.444 -3.0938  2.9184  0.9349
  165SOPE   H3S18530   6.248   4.344  10.351  0.7515  1.5847 -0.7786
  165SOPE   C2418531   6.427   4.324  10.228 -0.3487  0.3802  1.2511
  165SOPE   H4R18532   6.473   4.425  10.226  1.9347 -0.5980 -1.2929
  165SOPE   H4S18533   6.517   4.259  10.225 -1.4305 -1.1877 -1.9452
  165SOPE   C2518534   6.351   4.297  10.095  0.7530  0.3594  0.4080
  165SOPE   H5R18535   6.297   4.200  10.097 -1.0979  1.3292 -0.1580
  165SOPE   H5S18536   6.269   4.372  10.088 -1.9143 -2.3802 -0.1747
  165SOPE   C2618537   6.436   4.293   9.963  0.7084 -0.2511 -0.3624
  165SOPE   H6R18538   6.488   4.391   9.961 -0.3867  0.3364 -1.1353
  165SOPE   H6S18539   6.514   4.214   9.968 -2.3888 -3.6308 -0.8854
  165SOPE   C2718540   6.353   4.283   9.834  0.2721  0.5481 -0.0562
  165SOPE   H7R18541   6.334   4.176   9.812  1.1587  0.1234  1.0803
  165SOPE   H7S18542   6.254   4.333   9.843  0.5653  1.4929 -1.8047
  165SOPE   C2818543   6.417   4.355   9.713  0.4944  0.2545 -0.1759
  165SOPE   H8R18544   6.336   4.360   9.637  0.1694  3.7209  0.2008
  165SOPE   H8S18545   6.452   4.457   9.741  1.5919 -0.2940  0.5102
  165SOPE   C2918546   6.545   4.281   9.668  0.1939 -0.0306  0.5200
  165SOPE   H9118547   6.611   4.239   9.745  3.7569  1.7314 -1.3013
  165SOPE  C21018548   6.584   4.274   9.542 -0.1623 -0.2118  0.1554
  165SOPE  H10118549   6.672   4.215   9.512  0.7593  1.2421 -0.0977
  165SOPE  C21118550   6.513   4.329   9.417 -0.4195  0.4370  0.2464
  165SOPE  H11R18551   6.428   4.393   9.447 -1.0474  0.0522 -0.6542
  165SOPE  H11S18552   6.472   4.240   9.365 -1.8653  0.1064  1.8514
  165SOPE  C21218553   6.599   4.405   9.310 -0.1567 -0.0154 -0.1832
  165SOPE  H12R18554   6.667   4.482   9.353  1.4337 -2.3414  1.7153
  165SOPE  H12S18555   6.529   4.456   9.241  1.0703  1.7460 -0.2030
  165SOPE  C21318556   6.680   4.306   9.223 -0.3215 -0.2444 -0.8340
  165SOPE  H13R18557   6.622   4.224   9.177 -0.6604 -0.3464 -0.2358
  165SOPE  H13S18558   6.771   4.265   9.271  0.0235  0.8241 -0.5397
  165SOPE  C21418559   6.745   4.392   9.107  0.4373  0.1471 -0.0387
  165SOPE  H14R18560   6.808   4.459   9.170 -1.0658  0.3167  1.3678
  165SOPE  H14S18561   6.662   4.446   9.058  1.8372  1.9300 -0.5390
  165SOPE  C21518562   6.816   4.297   9.012  0.0074 -0.7393 -0.7989
  165SOPE  H15R18563   6.752   4.212   8.981  1.7310 -2.3778 -0.0912
  165SOPE  H15S18564   6.895   4.244   9.070 -1.1707 -1.6468  0.0128
  165SOPE  C21618565   6.856   4.372   8.886 -0.3855 -0.6907 -0.1911
  165SOPE  H16R18566   6.903   4.296   8.820 -2.1323 -2.2592  0.2971
  165SOPE  H16S18567   6.933   4.449   8.911 -1.0246  1.9804 -5.2148
  165SOPE  C21718568   6.738   4.428   8.804 -0.0859 -0.2149 -0.0306
  165SOPE  H17R18569   6.673   4.501   8.856 -0.2914  2.0584 -3.1679
  165SOPE  H17S18570   6.673   4.344   8.772  0.8648  0.3798 -4.1752
  165SOPE  C21818571   6.787   4.496   8.679 -0.6195 -0.2215  0.4674
  165SOPE  H18R18572   6.710   4.557   8.627 -0.5508  0.1430  0.7901
  165SOPE  H18S18573   6.822   4.424   8.601  2.4964  0.1056  1.4317
  165SOPE  H18T18574   6.874   4.564   8.688  1.1488 -1.6912 -3.1868
  165SOPE   C3318575   6.789   3.946   9.924 -0.4350 -0.3211 -0.9947
  165SOPE   H3X18576   6.687   3.977   9.893 -1.1116 -2.3320 -0.9112
  165SOPE   H3Y18577   6.800   3.839   9.898 -0.6696 -0.6223  0.0997
  165SOPE   C3418578   6.889   4.032   9.851 -0.5464  0.9649  0.3297
  165SOPE   H4X18579   6.991   4.003   9.885  0.7162  0.0403 -3.7434
  165SOPE   H4Y18580   6.867   4.139   9.872 -1.3689  0.8578  0.0281
  165SOPE   C3518581   6.890   4.002   9.696 -0.0313 -0.2053 -0.8234
  165SOPE   H5X18582   6.802   4.046   9.645 -0.8597  0.1805  0.8584
  165SOPE   H5Y18583   6.898   3.893   9.676  3.3656 -0.0199 -1.0885
  165SOPE   C3618584   7.012   4.065   9.633 -0.5312  0.3287  0.5406
  165SOPE   H6X18585   7.097   4.028   9.693 -0.8561  0.4889  1.1087
  165SOPE   H6Y18586   7.024   4.174   9.650  0.1925  0.6133 -1.4841
  165SOPE   C3718587   7.041   4.029   9.488  0.1945 -0.9427 -0.3106
  165SOPE   H7X18588   6.978   4.100   9.431  0.5105  0.6407  1.2477
  165SOPE   H7Y18589   7.014   3.925   9.459  1.4773 -0.9893 -1.4535
  165SOPE   C3818590   7.191   4.050   9.455  0.1649  0.0130  0.2031
  165SOPE   H8X18591   7.259   3.964   9.470  0.1523 -0.0505 -0.0890
  165SOPE   H8Y18592   7.223   4.145   9.501  1.3813 -0.3975  0.2266
  165SOPE   C3918593   7.198   4.081   9.303 -0.3789  0.1498  0.0093
  165SOPE   H9X18594   7.185   4.191   9.290  0.4037  0.6695  2.9631
  165SOPE   H9Y18595   7.118   4.022   9.253  0.3066  1.1191 -2.3632
  165SOPE  C31018596   7.330   4.034   9.237  0.7213 -0.1549 -0.0777
  165SOPE  H10X18597   7.362   3.939   9.285  2.7651  1.3856  1.8106
  165SOPE  H10Y18598   7.411   4.108   9.254 -1.4368  2.5158 -0.6850
  165SOPE  C31118599   7.323   4.008   9.089 -0.2565 -1.0997  0.0903
  165SOPE  H11X18600   7.281   4.092   9.030  3.2008 -0.0410 -1.1373
  165SOPE  H11Y18601   7.249   3.927   9.075 -0.3536 -0.9191 -0.4481
  165SOPE  C31218602   7.462   3.973   9.021 -0.1498  0.0673 -0.0652
  165SOPE  H12X18603   7.507   3.893   9.083 -1.8155  0.0610  1.2063
  165SOPE  H12Y18604   7.533   4.057   9.035 -0.4909  0.3780 -0.1737
  165SOPE  C31318605   7.456   3.924   8.876 -0.2780 -0.1402  0.3985
  165SOPE  H13X18606   7.431   4.008   8.807  1.5242 -0.1803 -0.3476
  165SOPE  H13Y18607   7.380   3.842   8.874  0.1802 -0.6173 -2.9345
  165SOPE  C31418608   7.588   3.878   8.821  0.1156 -0.4065  0.3246
  165SOPE  H14X18609   7.631   3.794   8.879 -0.2275  0.3569  1.7271
  165SOPE  H14Y18610   7.657   3.965   8.830  0.5119 -0.4565 -1.6517
  165SOPE  C31518611   7.580   3.837   8.673 -0.1748 -0.0255 -0.0843
  165SOPE  H15X18612   7.512   3.904   8.616 -1.0421  0.1272  1.0850
  165SOPE  H15Y18613   7.523   3.742   8.664  0.9084 -0.6396 -0.6670
  165SOPE  C31618614   7.718   3.810   8.608 -0.6599  0.6408  0.5514
  165SOPE  H16X18615   7.785   3.898   8.606  0.1753  0.0115 -2.0245
  165SOPE  H16Y18616   7.703   3.774   8.504  2.0925 -0.8529  0.5820
  165SOPE  C31718617   7.819   3.707   8.676  0.1826  0.4634 -0.1698
  165SOPE  H17X18618   7.764   3.612   8.688 -0.3452  0.9113  1.1466
  165SOPE  H17Y18619   7.850   3.744   8.776  1.5166  2.1981 -1.1532
  165SOPE  C31818620   7.942   3.682   8.585  0.1677 -0.8391 -0.1805
  165SOPE  H18X18621   8.001   3.770   8.553 -0.7802  0.0557  0.4330
  165SOPE  H18Y18622   7.897   3.634   8.496 -0.3224 -0.3236 -0.2192
  165SOPE  H18Z18623   8.016   3.611   8.628  0.8726 -0.3227 -0.5210
  166SOPE     N18624   4.601   3.565  10.948 -0.5211 -0.1302 -0.0742
  166SOPE   HN118625   4.542   3.646  10.921 -0.1656  0.7645  1.7115
  166SOPE   HN218626   4.604   3.575  11.051 -1.5116  1.6151 -0.1738
  166SOPE   HN318627   4.693   3.586  10.902 -1.1876  2.5225 -0.3756
  166SOPE   C1218628   4.541   3.434  10.909  0.7211  0.6294 -0.7631
  166SOPE  H12A18629   4.432   3.444  10.927  0.2119  2.6843 -4.1348
  166SOPE  H12B18630   4.587   3.363  10.980 -1.0624  1.5769  1.4615
  166SOPE   C1118631   4.564   3.389  10.759 -0.2390 -0.7313  0.8896
  166SOPE  H11A18632   4.527   3.467  10.690  0.0765  0.0274  1.5527
  166SOPE  H11B18633   4.504   3.302  10.724 -0.6844  0.1828 -0.6976
  166SOPE     P18634   4.796   3.493  10.676 -0.2039 -0.0365 -0.4858
  166SOPE   O1318635   4.933   3.432  10.645  0.6013  0.2906 -0.6395
  166SOPE   O1418636   4.794   3.599  10.779 -0.4729 -0.4176  0.0234
  166SOPE   O1218637   4.706   3.376  10.727  0.1500 -0.5570  0.0137
  166SOPE   O1118638   4.726   3.538  10.541  0.0094 -0.0232  0.4288
  166SOPE    C118639   4.790   3.507  10.416 -0.4871 -0.1600  1.0571
  166SOPE    HA18640   4.897   3.536  10.421 -0.5857  0.8966 -1.5318
  166SOPE    HB18641   4.746   3.566  10.333  0.0938  1.5967  1.9386
  166SOPE    C218642   4.776   3.359  10.372 -0.3707  0.0450 -0.0785
  166SOPE    HS18643   4.819   3.291  10.450  2.2295 -0.2904 -1.6675
  166SOPE   O2118644   4.832   3.338  10.237  0.0425 -0.6059  0.2282
  166SOPE   C2118645   4.954   3.296  10.222 -0.4310  0.6695  0.0951
  166SOPE   O2218646   5.027   3.252  10.315  0.7204  0.4851  0.0571
  166SOPE   C2218647   4.991   3.302  10.074 -0.2362  1.2171  0.8388
  166SOPE   H2R18648   4.913   3.247  10.017 -0.3390  0.2043  1.9131
  166SOPE   H2S18649   5.087   3.245  10.072 -2.3111 -2.6607 -1.3535
  166SOPE    C318650   4.624   3.322  10.364  0.2450  0.3954  0.3380
  166SOPE    HX18651   4.578   3.349  10.462  1.5595 -1.0609  1.4139
  166SOPE    HY18652   4.627   3.212  10.347  0.4652 -0.2995  3.9452
  166SOPE   O3118653   4.556   3.393  10.259 -0.1746 -1.1348 -0.1948
  166SOPE   C3118654   4.543   3.327  10.136 -0.1526 -0.1449 -0.2619
  166SOPE   O3218655   4.574   3.215  10.114  0.4724  0.3799 -0.0294
  166SOPE   C3218656   4.472   3.423  10.044  0.2189 -0.2388  0.1792
  166SOPE   H2X18657   4.528   3.519  10.034  0.7439 -0.3535  1.8131
  166SOPE   H2Y18658   4.369   3.449  10.077  0.3272 -1.0436  1.1915
  166SOPE   C2318659   5.016   3.440  10.012 -0.2053 -0.1115 -0.3101
  166SOPE   H3R18660   5.111   3.478  10.055 -1.5845 -0.4761  3.4653
  166SOPE   H3S18661   4.937   3.515  10.037 -0.6927 -0.6106 -0.3218
  166SOPE   C2418662   5.021   3.430   9.859  0.0876  0.4547 -0.3639
  166SOPE   H4R18663   4.943   3.359   9.823  0.2066 -0.5036  1.1869
  166SOPE   H4S18664   4.993   3.526   9.810  1.3349  0.8524 -0.3146
  166SOPE   C2518665   5.158   3.379   9.815  0.1085  0.3706 -0.0846
  166SOPE   H5R18666   5.235   3.453   9.848  0.2241  0.9598 -1.5999
  166SOPE   H5S18667   5.192   3.286   9.866  0.0820  1.9196  2.9366
  166SOPE   C2618668   5.150   3.357   9.654  0.0442 -0.7561 -0.0208
  166SOPE   H6R18669   5.066   3.286   9.636  1.0713 -1.8583 -0.6011
  166SOPE   H6S18670   5.133   3.457   9.610  0.5192 -1.6456 -2.3277
  166SOPE   C2718671   5.282   3.292   9.596 -0.0463 -0.1865  0.0084
  166SOPE   H7R18672   5.363   3.351   9.645 -2.9336  2.4867  1.9732
  166SOPE   H7S18673   5.285   3.188   9.635 -1.4944 -0.0713  0.5106
  166SOPE   C2818674   5.291   3.274   9.443  0.0777 -0.5613 -0.2784
  166SOPE   H8R18675   5.202   3.212   9.419  0.9946 -1.6824 -0.9109
  166SOPE   H8S18676   5.277   3.372   9.392  0.0453 -0.4041  0.0257
  166SOPE   C2918677   5.419   3.220   9.396  0.0815 -0.9077 -0.6038
  166SOPE   H9118678   5.507   3.231   9.462 -0.6810 -1.0748  0.4713
  166SOPE  C21018679   5.436   3.177   9.272 -0.5835  0.0648 -0.3221
  166SOPE  H10118680   5.534   3.135   9.246  0.0526 -0.2513  2.2505
  166SOPE  C21118681   5.329   3.169   9.170 -0.0027  0.0334  0.2087
  166SOPE  H11R18682   5.353   3.221   9.075 -0.0684  2.0610  1.2654
  166SOPE  H11S18683   5.237   3.220   9.206 -0.2003 -1.0405  1.3209
  166SOPE  C21218684   5.279   3.025   9.140  0.9839  0.0005  0.1102
  166SOPE  H12R18685   5.170   3.032   9.122  1.0843  1.4894 -0.0223
  166SOPE  H12S18686   5.279   2.978   9.241  0.2852  2.2014  1.2061
  166SOPE  C21318687   5.357   2.927   9.054  0.0001 -0.1584  0.3758
  166SOPE  H13R18688   5.299   2.833   9.049 -2.2411  1.0898  1.2313
  166SOPE  H13S18689   5.456   2.901   9.096 -0.1794 -0.1062  0.8322
  166SOPE  C21418690   5.365   2.991   8.911  0.3853 -0.0768 -0.2490
  166SOPE  H14R18691   5.390   3.097   8.935 -0.1566 -0.0264  0.0977
  166SOPE  H14S18692   5.261   2.986   8.873  1.0962  2.4384 -2.9009
  166SOPE  C21518693   5.461   2.926   8.810  0.1187  0.0314 -0.1184
  166SOPE  H15R18694   5.457   2.982   8.714 -2.0387  0.3811  0.1106
  166SOPE  H15S18695   5.427   2.823   8.788 -0.1970 -0.3762  2.0809
  166SOPE  C21618696   5.603   2.912   8.869  0.1213 -0.5512 -0.4638
  166SOPE  H16R18697   5.595   2.820   8.931  0.1861  0.8496  1.7263
  166SOPE  H16S18698   5.625   3.002   8.929 -1.0125 -0.4253 -0.2091
  166SOPE  C21718699   5.710   2.893   8.758  0.5678  0.3630  0.4467
  166SOPE  H17R18700   5.681   2.826   8.674 -3.1333  2.4427 -0.1520
  166SOPE  H17S18701   5.797   2.837   8.797  2.0038 -0.9742 -4.1240
  166SOPE  C21818702   5.757   3.027   8.705 -0.1550  0.0493 -0.9096
  166SOPE  H18R18703   5.705   3.062   8.613  1.8103  0.1175 -2.0465
  166SOPE  H18S18704   5.861   3.009   8.670 -0.2917 -2.6459 -0.0910
  166SOPE  H18T18705   5.770   3.109   8.779 -0.2250 -2.0061  1.4714
  166SOPE   C3318706   4.465   3.358   9.905  0.2585 -0.0288  0.3844
  166SOPE   H3X18707   4.568   3.321   9.886  0.8213  2.3198 -1.6077
  166SOPE   H3Y18708   4.462   3.444   9.834  1.1316 -1.3050 -1.2571
  166SOPE   C3418709   4.349   3.262   9.885  0.4709  0.4655  0.1541
  166SOPE   H4X18710   4.251   3.315   9.882  1.2467  2.0780  1.6795
  166SOPE   H4Y18711   4.351   3.190   9.970  4.2442 -0.0400 -0.1884
  166SOPE   C3518712   4.351   3.181   9.763  0.0262 -0.5525  0.7394
  166SOPE   H5X18713   4.423   3.100   9.785 -0.4770 -1.1719  0.1319
  166SOPE   H5Y18714   4.384   3.240   9.674  0.5193  0.1984  1.3949
  166SOPE   C3618715   4.217   3.113   9.733  0.4027  0.0015 -0.1727
  166SOPE   H6X18716   4.167   3.175   9.656  0.8449 -0.4747 -0.8515
  166SOPE   H6Y18717   4.154   3.118   9.825 -0.4253  0.0511 -0.7309
  166SOPE   C3718718   4.231   2.972   9.688  0.4176 -0.2157  0.5672
  166SOPE   H7X18719   4.128   2.930   9.678  0.3660  0.4616 -2.8546
  166SOPE   H7Y18720   4.275   2.912   9.771 -0.7541 -1.6444  0.2056
  166SOPE   C3818721   4.304   2.951   9.557  0.6969 -0.1689  0.1675
  166SOPE   H8X18722   4.298   2.842   9.539  1.4412 -0.2126  0.1386
  166SOPE   H8Y18723   4.411   2.983   9.563 -0.1568  3.3951 -1.0718
  166SOPE   C3918724   4.230   3.019   9.432  0.2274  0.4245  0.0133
  166SOPE   H9X18725   4.248   3.129   9.434 -2.2788  0.8795  0.7780
  166SOPE   H9Y18726   4.122   2.996   9.448  0.1497  0.3260 -0.6411
  166SOPE  C31018727   4.274   2.963   9.302 -0.5798  0.0875  0.1317
  166SOPE  H10X18728   4.277   2.852   9.301 -0.2605  0.0585  1.6917
  166SOPE  H10Y18729   4.375   3.000   9.275  0.0640 -0.7857  1.2427
  166SOPE  C31118730   4.175   3.011   9.196 -0.1916 -0.4478  0.5672
  166SOPE  H11X18731   4.176   3.122   9.200  1.6127 -0.2521 -2.3792
  166SOPE  H11Y18732   4.076   2.962   9.207  0.3676 -2.4593 -2.2700
  166SOPE  C31218733   4.229   2.997   9.050  0.3032  0.1482  0.6412
  166SOPE  H12X18734   4.224   2.887   9.037  0.3375  0.0286  1.5595
  166SOPE  H12Y18735   4.337   3.025   9.045  0.6083 -1.1377 -2.1520
  166SOPE  C31318736   4.154   3.057   8.936  0.5274  0.2965  0.4509
  166SOPE  H13X18737   4.207   3.030   8.842  3.1416  0.5602  1.7505
  166SOPE  H13Y18738   4.160   3.168   8.940 -1.6012  0.4360  1.1913
  166SOPE  C31418739   4.010   3.016   8.926  0.2563  0.5741  0.8193
  166SOPE  H14X18740   3.967   3.059   9.019 -1.0458  1.6011 -0.2143
  166SOPE  H14Y18741   3.993   2.906   8.917 -2.1677  1.0495 -1.5629
  166SOPE  C31518742   3.942   3.092   8.810 -0.7365  0.5404  0.5037
  166SOPE  H15X18743   4.008   3.178   8.785 -1.0063  0.3960 -0.8125
  166SOPE  H15Y18744   3.840   3.130   8.834 -1.7758 -1.2662 -0.7447
  166SOPE  C31618745   3.940   3.021   8.672 -0.2257 -0.1845  0.0243
  166SOPE  H16X18746   3.966   2.914   8.689 -2.1772 -0.4819  1.5421
  166SOPE  H16Y18747   4.024   3.054   8.607  0.3601 -2.4162 -0.4458
  166SOPE  C31718748   3.802   3.032   8.586 -0.3472 -0.0481 -0.1368
  166SOPE  H17X18749   3.713   3.042   8.652 -0.0913 -3.3183  0.8788
  166SOPE  H17Y18750   3.775   2.936   8.537 -1.7975  0.0335  0.4787
  166SOPE  C31818751   3.816   3.147   8.490  0.1579  0.2530 -0.8209
  166SOPE  H18X18752   3.727   3.132   8.424  0.3121  0.8670 -1.1780
  166SOPE  H18Y18753   3.907   3.163   8.430 -0.2014  1.5447 -1.0448
  166SOPE  H18Z18754   3.806   3.244   8.544 -0.6814 -0.5905  0.6208
  167SOPE     N18755   2.474   2.059   5.818  0.2463  0.9738 -0.2799
  167SOPE   HN118756   2.399   2.070   5.889 -1.4596  0.1962 -1.8532
  167SOPE   HN218757   2.564   2.086   5.862  1.6691  0.5087 -2.7038
  167SOPE   HN318758   2.458   2.123   5.738 -0.7930  0.3043 -0.6246
  167SOPE   C1218759   2.462   1.915   5.760 -0.0595  0.3297 -0.5035
  167SOPE  H12A18760   2.541   1.918   5.682  1.1450  0.7922  0.7003
  167SOPE  H12B18761   2.364   1.900   5.709  0.6634  0.0711 -1.8470
  167SOPE   C1118762   2.499   1.811   5.865 -0.0968  0.0318  0.1455
  167SOPE  H11A18763   2.502   1.705   5.830  1.1252  0.0312  0.1962
  167SOPE  H11B18764   2.423   1.805   5.945 -2.6396 -1.8994 -2.2414
  167SOPE     P18765   2.690   1.748   6.025 -0.1770  0.2594 -0.2479
  167SOPE   O1318766   2.828   1.795   6.073  0.1502  0.8203  0.3698
  167SOPE   O1418767   2.676   1.606   5.983  0.6490  0.0122  0.1574
  167SOPE   O1218768   2.629   1.847   5.917 -0.5314  0.3559 -0.1382
  167SOPE   O1118769   2.589   1.761   6.150 -0.4337 -0.0123  0.3384
  167SOPE    C118770   2.555   1.890   6.202 -0.0010 -0.2068  0.8707
  167SOPE    HA18771   2.448   1.885   6.232  0.4971 -0.5538  2.6878
  167SOPE    HB18772   2.574   1.977   6.136  1.7982 -0.7316  0.6500
  167SOPE    C218773   2.635   1.916   6.334  0.2361  0.7760 -0.2849
  167SOPE    HS18774   2.741   1.924   6.301  0.2422 -0.3168 -0.5658
  167SOPE   O2118775   2.607   1.810   6.431 -0.1549  0.4410  0.3052
  167SOPE   C2118776   2.710   1.768   6.493 -0.0619 -0.3332 -0.0376
  167SOPE   O2218777   2.823   1.812   6.478 -0.6071 -0.2086 -0.4677
  167SOPE   C2218778   2.668   1.660   6.602  0.5037 -0.1150  0.2684
  167SOPE   H2R18779   2.688   1.561   6.557 -0.5611  0.1999 -0.9492
  167SOPE   H2S18780   2.562   1.671   6.631 -0.3062  0.2995 -2.5360
  167SOPE    C318781   2.601   2.056   6.392 -0.7168  0.0577  0.4252
  167SOPE    HX18782   2.491   2.055   6.397 -0.7723 -0.9017 -0.5416
  167SOPE    HY18783   2.617   2.143   6.325 -0.4956  0.2068  0.6678
  167SOPE   O3118784   2.662   2.092   6.521  0.4913  0.0988  0.4007
  167SOPE   C3118785   2.795   2.116   6.510 -1.2205 -0.4250  0.3758
  167SOPE   O3218786   2.857   2.128   6.406 -0.2788 -0.4391 -0.5659
  167SOPE   C3218787   2.856   2.093   6.645  0.4414 -0.2951 -0.3848
  167SOPE   H2X18788   2.869   1.983   6.656 -0.8137 -0.5598 -1.2714
  167SOPE   H2Y18789   2.783   2.127   6.721 -0.1672 -0.2079 -0.9910
  167SOPE   C2318790   2.752   1.664   6.736  0.1940  0.3766  0.4758
  167SOPE   H3R18791   2.862   1.667   6.724  0.2978  1.5882  1.5644
  167SOPE   H3S18792   2.736   1.561   6.774  1.8513 -0.0892 -0.0151
  167SOPE   C2418793   2.710   1.767   6.843  0.1770  0.7089  0.1921
  167SOPE   H4R18794   2.724   1.867   6.796  0.0146 -0.3795 -2.2995
  167SOPE   H4S18795   2.603   1.750   6.868  0.5414  0.9759  2.1686
  167SOPE   C2518796   2.787   1.765   6.976  0.1309  0.1815  0.0650
  167SOPE   H5R18797   2.794   1.662   7.017  2.1996  0.8374  1.5233
  167SOPE   H5S18798   2.889   1.797   6.946 -0.6696  2.8642 -0.0168
  167SOPE   C2618799   2.730   1.880   7.063  0.2030  0.0005  0.5178
  167SOPE   H6R18800   2.742   1.979   7.014  3.1485 -0.7154 -0.4067
  167SOPE   H6S18801   2.623   1.861   7.087  0.6402 -0.0355  2.7289
  167SOPE   C2718802   2.800   1.879   7.204  0.5977  0.3470  0.1567
  167SOPE   H7R18803   2.827   1.781   7.247  1.7966  0.8250  0.5440
  167SOPE   H7S18804   2.894   1.930   7.175 -0.4704  0.7409 -3.0031
  167SOPE   C2818805   2.721   1.964   7.302  0.0009 -0.3424  0.7360
  167SOPE   H8R18806   2.613   1.944   7.282  0.4598 -0.2526 -2.2372
  167SOPE   H8S18807   2.748   1.941   7.408  3.5295 -1.7480 -0.3167
  167SOPE   C2918808   2.737   2.112   7.273  0.1835  0.0467  0.0183
  167SOPE   H9118809   2.687   2.157   7.186  1.9269  0.8921 -0.6107
  167SOPE  C21018810   2.812   2.203   7.348 -0.2554 -0.5882 -0.2005
  167SOPE  H10118811   2.812   2.311   7.325  2.9585 -0.0288  1.7948
  167SOPE  C21118812   2.902   2.179   7.470  0.0167 -0.0696  0.4405
  167SOPE  H11R18813   3.007   2.195   7.436 -0.7854  1.7918 -1.3522
  167SOPE  H11S18814   2.892   2.077   7.513  0.0828 -1.1008 -1.8328
  167SOPE  C21218815   2.875   2.276   7.590  0.6416  0.5039 -0.6443
  167SOPE  H12R18816   2.920   2.229   7.680  0.5991 -0.0033 -0.8835
  167SOPE  H12S18817   2.767   2.279   7.614  0.8946 -2.7924  1.4626
  167SOPE  C21318818   2.924   2.418   7.574  0.1436 -0.2822 -0.1589
  167SOPE  H13R18819   2.889   2.457   7.476 -0.0061  2.6010  0.9521
  167SOPE  H13S18820   3.035   2.419   7.578  0.1923  0.7573 -1.0842
  167SOPE  C21418821   2.867   2.500   7.685  0.0972 -0.4380  0.5679
  167SOPE  H14R18822   2.773   2.539   7.639 -0.1029 -0.7562  0.7042
  167SOPE  H14S18823   2.926   2.592   7.705  0.5755  0.0661 -2.6188
  167SOPE  C21518824   2.850   2.435   7.825  0.7289  0.0120  0.7275
  167SOPE  H15R18825   2.940   2.375   7.851  0.8408 -0.5982 -0.9410
  167SOPE  H15S18826   2.773   2.354   7.820  0.5560  0.2434 -0.7971
  167SOPE  C21618827   2.814   2.528   7.942  0.5157  0.3783  0.1813
  167SOPE  H16R18828   2.910   2.581   7.957  0.8943 -0.0079 -0.7923
  167SOPE  H16S18829   2.795   2.460   8.028  0.8675  1.0528  0.8019
  167SOPE  C21718830   2.686   2.617   7.927 -0.5656 -0.0401 -0.0336
  167SOPE  H17R18831   2.694   2.663   7.826  1.1313 -1.0173 -0.3958
  167SOPE  H17S18832   2.679   2.698   8.003 -0.0651  1.1258 -1.1971
  167SOPE  C21818833   2.551   2.551   7.922 -0.1478  0.9772 -1.1421
  167SOPE  H18R18834   2.467   2.624   7.921 -0.7915  0.2860  0.0892
  167SOPE  H18S18835   2.537   2.481   8.007  1.2853 -1.5630 -2.8762
  167SOPE  H18T18836   2.543   2.488   7.831  0.4724 -4.3253  2.0620
  167SOPE   C3318837   2.993   2.164   6.662  0.5391  0.3602 -0.1762
  167SOPE   H3X18838   3.001   2.275   6.651  2.5331  0.3579  0.7620
  167SOPE   H3Y18839   3.070   2.115   6.598  0.8043  2.4456 -1.5662
  167SOPE   C3418840   3.032   2.166   6.811  0.4576  0.9383 -0.2865
  167SOPE   H4X18841   2.946   2.193   6.876  0.8218  1.9623 -0.2077
  167SOPE   H4Y18842   3.107   2.244   6.836  0.7590  0.4087  0.5203
  167SOPE   C3518843   3.074   2.026   6.860  1.2636  0.6872 -0.1795
  167SOPE   H5X18844   3.139   1.970   6.789 -0.3703 -4.2222  1.7374
  167SOPE   H5Y18845   2.981   1.964   6.856  2.0320 -0.6755  1.6830
  167SOPE   C3618846   3.128   2.022   7.003  0.3179  0.0188  0.1900
  167SOPE   H6X18847   3.053   2.063   7.074  2.0372  0.6266  1.7192
  167SOPE   H6Y18848   3.214   2.092   6.999 -0.2750  0.7211 -0.4046
  167SOPE   C3718849   3.194   1.891   7.042 -0.7102  0.4546 -0.0854
  167SOPE   H7X18850   3.269   1.862   6.965 -0.4429 -1.4068  0.8207
  167SOPE   H7Y18851   3.113   1.816   7.029 -2.1171  1.9639 -0.2888
  167SOPE   C3818852   3.244   1.879   7.187 -0.6604  0.0157 -0.3855
  167SOPE   H8X18853   3.161   1.898   7.259  0.7672 -0.9040  1.5987
  167SOPE   H8Y18854   3.318   1.958   7.210  0.0133 -0.8264  0.4174
  167SOPE   C3918855   3.300   1.742   7.239 -0.0105  0.2689  0.2920
  167SOPE   H9X18856   3.378   1.703   7.171  0.7926  1.5527  0.4561
  167SOPE   H9Y18857   3.207   1.681   7.246 -0.4831  0.8311 -0.8062
  167SOPE  C31018858   3.374   1.766   7.375 -0.5664  0.0981 -0.2355
  167SOPE  H10X18859   3.296   1.814   7.437 -0.3360 -0.6401  0.6538
  167SOPE  H10Y18860   3.455   1.841   7.365  0.1622 -0.7381 -0.8356
  167SOPE  C31118861   3.419   1.636   7.442  0.8340 -0.4682  0.4685
  167SOPE  H11X18862   3.511   1.598   7.394  0.5063 -1.5785  0.6987
  167SOPE  H11Y18863   3.338   1.560   7.433 -1.2283  1.6139  0.1841
  167SOPE  C31218864   3.450   1.657   7.590  0.0362  0.5684  0.2355
  167SOPE  H12X18865   3.362   1.707   7.636  0.7333  0.7639  1.4053
  167SOPE  H12Y18866   3.540   1.720   7.609  0.0272  1.1009 -1.3098
  167SOPE  C31318867   3.489   1.526   7.663 -1.2070  0.9272  0.1743
  167SOPE  H13X18868   3.552   1.471   7.591 -1.2827 -1.2107  1.6224
  167SOPE  H13Y18869   3.401   1.458   7.670  0.3887 -1.4083 -1.0091
  167SOPE  C31418870   3.553   1.557   7.800  0.3561  0.1344 -0.2716
  167SOPE  H14X18871   3.488   1.595   7.881  2.4469  1.6184  0.8072
  167SOPE  H14Y18872   3.642   1.623   7.793  3.9565 -3.8607  2.7528
  167SOPE  C31518873   3.597   1.428   7.875  0.5643  0.0786 -0.4648
  167SOPE  H15X18874   3.667   1.380   7.804 -1.1270  1.2215 -3.0830
  167SOPE  H15Y18875   3.514   1.356   7.892 -0.2377  0.8050 -1.1753
  167SOPE  C31618876   3.652   1.452   8.013 -0.0970  0.4104 -0.5047
  167SOPE  H16X18877   3.755   1.489   7.994  0.5342 -1.3061 -0.5917
  167SOPE  H16Y18878   3.672   1.354   8.062  0.1469  1.1740  0.9909
  167SOPE  C31718879   3.576   1.546   8.103  0.0359 -0.4720 -0.0085
  167SOPE  H17X18880   3.471   1.547   8.069  0.5229 -1.1192 -1.6518
  167SOPE  H17Y18881   3.611   1.650   8.091 -1.2842  0.0011  0.1165
  167SOPE  C31818882   3.591   1.513   8.252 -0.1624 -1.1271 -0.7206
  167SOPE  H18X18883   3.550   1.417   8.290 -0.1712 -0.6662  0.4737
  167SOPE  H18Y18884   3.540   1.589   8.315 -0.7855 -0.5566 -1.8820
  167SOPE  H18Z18885   3.696   1.503   8.288 -0.0857 -2.2949 -1.2229
  168SOPE     N18886   3.291   3.877   6.158 -0.5578  0.3391 -0.3803
  168SOPE   HN118887   3.199   3.895   6.114 -0.5332  1.5229  0.0213
  168SOPE   HN218888   3.368   3.932   6.116  0.5023 -1.1067 -0.4261
  168SOPE   HN318889   3.312   3.779   6.128 -0.6595  0.2011 -0.0064
  168SOPE   C1218890   3.290   3.877   6.312 -0.5854  0.3812 -0.3162
  168SOPE  H12A18891   3.364   3.797   6.328  0.8261  1.4194 -1.3271
  168SOPE  H12B18892   3.185   3.861   6.345  0.1919  0.2874  2.3071
  168SOPE   C1118893   3.333   4.011   6.370 -0.5246 -0.5815  0.3097
  168SOPE  H11A18894   3.441   4.024   6.348 -0.4030  0.5786  1.4538
  168SOPE  H11B18895   3.318   4.013   6.480  1.3399  0.1839  0.5848
  168SOPE     P18896   3.307   4.265   6.302  0.0652 -0.2315 -0.2665
  168SOPE   O1318897   3.196   4.345   6.247 -0.7234  0.5763  0.1547
  168SOPE   O1418898   3.436   4.273   6.228  0.7877  0.0140 -0.3281
  168SOPE   O1218899   3.263   4.113   6.308 -0.2280  0.2755 -0.0846
  168SOPE   O1118900   3.341   4.298   6.451  0.5462 -0.6528 -0.5571
  168SOPE    C118901   3.240   4.298   6.553 -0.6626 -0.4095 -0.3049
  168SOPE    HA18902   3.228   4.197   6.595  0.5498  0.7940  3.3183
  168SOPE    HB18903   3.141   4.325   6.510 -0.5030  1.8287  0.5708
  168SOPE    C218904   3.287   4.407   6.644  0.4378  0.2444 -0.3624
  168SOPE    HS18905   3.373   4.461   6.599 -0.8989  0.9563 -2.1786
  168SOPE   O2118906   3.307   4.346   6.775  0.0278 -0.4964  0.3369
  168SOPE   C2118907   3.411   4.396   6.844 -0.2410 -0.0802 -1.0149
  168SOPE   O2218908   3.511   4.454   6.802  0.7433 -0.2856  0.0342
  168SOPE   C2218909   3.381   4.356   6.990 -1.0892  0.3111 -0.1440
  168SOPE   H2R18910   3.325   4.260   7.001 -1.0710  0.2304 -0.7551
  168SOPE   H2S18911   3.309   4.431   7.030 -0.8914  0.1278  0.5776
  168SOPE    C318912   3.181   4.520   6.664  0.0784 -0.2365  0.0741
  168SOPE    HX18913   3.082   4.481   6.695 -0.2686  0.7734  0.2900
  168SOPE    HY18914   3.170   4.568   6.564  1.1824 -1.0674 -0.4727
  168SOPE   O3118915   3.217   4.620   6.768 -0.4617 -0.5034 -0.0523
  168SOPE   C3118916   3.287   4.721   6.718  0.0900 -0.1238 -0.3333
  168SOPE   O3218917   3.331   4.722   6.603 -0.1169 -0.8360 -0.7665
  168SOPE   C3218918   3.324   4.815   6.828 -0.5645  0.0155 -0.0948
  168SOPE   H2X18919   3.263   4.793   6.918 -1.9806 -0.9222 -1.2452
  168SOPE   H2Y18920   3.303   4.919   6.798  0.2766  0.9273  2.2498
  168SOPE   C2318921   3.507   4.358   7.095  0.1589 -0.2019 -0.2550
  168SOPE   H3R18922   3.542   4.463   7.103 -0.9779  0.1119  1.0259
  168SOPE   H3S18923   3.585   4.284   7.066 -0.1170  0.0370 -1.6586
  168SOPE   C2418924   3.444   4.307   7.224 -0.5802  0.3633 -0.9138
  168SOPE   H4R18925   3.353   4.363   7.252 -1.0779 -0.9847  0.2973
  168SOPE   H4S18926   3.422   4.200   7.201  0.0651 -0.4558  1.9485
  168SOPE   C2518927   3.539   4.300   7.343  0.2519  0.2652  0.4346
  168SOPE   H5R18928   3.641   4.270   7.310 -0.1179  0.2075 -0.6901
  168SOPE   H5S18929   3.561   4.401   7.384 -1.3544 -0.1131  2.3585
  168SOPE   C2618930   3.486   4.198   7.448 -0.0019  0.4747 -0.5796
  168SOPE   H6R18931   3.393   4.243   7.489  0.4538  0.8477  0.0731
  168SOPE   H6S18932   3.457   4.100   7.405  1.8584 -0.0901 -0.6559
  168SOPE   C2718933   3.575   4.189   7.572  0.3094  0.2624 -0.6693
  168SOPE   H7R18934   3.681   4.182   7.539 -0.1203 -0.4559 -1.9471
  168SOPE   H7S18935   3.554   4.273   7.643 -0.9357  0.5603 -1.3664
  168SOPE   C2818936   3.548   4.061   7.651  0.0135  0.7361 -0.6452
  168SOPE   H8R18937   3.447   4.076   7.696  0.0782  2.7067 -1.1014
  168SOPE   H8S18938   3.549   3.967   7.591 -1.1633  1.4314 -1.8168
  168SOPE   C2918939   3.633   4.033   7.772 -1.0032  0.5051  0.8159
  168SOPE   H9118940   3.589   4.068   7.866  0.8466  2.1783  1.1057
  168SOPE  C21018941   3.754   3.975   7.765  0.2165 -0.5063 -0.1383
  168SOPE  H10118942   3.795   3.953   7.864 -1.6579 -1.5808  0.4497
  168SOPE  C21118943   3.827   3.924   7.650  0.3207 -0.7733  0.5802
  168SOPE  H11R18944   3.825   4.005   7.574 -1.9007 -1.4015 -0.1187
  168SOPE  H11S18945   3.770   3.848   7.593  0.9370  0.9061 -2.5115
  168SOPE  C21218946   3.962   3.872   7.678  0.4616  0.4849 -0.2294
  168SOPE  H12R18947   4.022   3.935   7.747  0.1870 -0.1744  0.6224
  168SOPE  H12S18948   4.021   3.857   7.585 -2.5803 -2.0869 -1.9379
  168SOPE  C21318949   3.948   3.735   7.752  0.1848  0.3311  0.8309
  168SOPE  H13R18950   3.958   3.653   7.677  0.2535  0.7595  0.3680
  168SOPE  H13S18951   3.855   3.732   7.814  0.4173 -0.2737  1.1568
  168SOPE  C21418952   4.051   3.714   7.863  0.0300 -0.0369  0.9059
  168SOPE  H14R18953   4.142   3.747   7.808 -0.9516  2.7220  0.8099
  168SOPE  H14S18954   4.050   3.603   7.875 -1.0794 -0.1215  0.1999
  168SOPE  C21518955   4.024   3.796   7.978  0.1799 -0.2533 -0.1129
  168SOPE  H15R18956   3.981   3.897   7.957  0.6478  0.2227  1.1028
  168SOPE  H15S18957   4.118   3.822   8.031 -1.5302  1.8513  2.1279
  168SOPE  C21618958   3.930   3.726   8.068  0.5113  0.2869 -0.6528
  168SOPE  H16R18959   3.963   3.625   8.098  1.8842  0.3051 -1.9847
  168SOPE  H16S18960   3.843   3.691   8.009  0.2094  0.6574 -0.4323
  168SOPE  C21718961   3.887   3.796   8.195 -0.6140  0.0973 -0.8934
  168SOPE  H17R18962   3.890   3.906   8.184  1.1227  0.2655  0.8382
  168SOPE  H17S18963   3.961   3.782   8.276 -1.5052  3.4603  0.6950
  168SOPE  C21818964   3.742   3.754   8.240 -0.6485  0.3159 -0.3677
  168SOPE  H18R18965   3.715   3.797   8.339  0.1813 -1.4195  0.6609
  168SOPE  H18S18966   3.727   3.644   8.243 -0.0919  0.2548  1.5095
  168SOPE  H18T18967   3.671   3.805   8.171 -1.9440 -1.0593 -0.1082
  168SOPE   C3318968   3.468   4.815   6.873 -0.2409  0.0367 -0.8446
  168SOPE   H3X18969   3.533   4.875   6.806  0.0331  0.7361  0.0328
  168SOPE   H3Y18970   3.507   4.711   6.874 -2.0996 -0.7049 -0.9244
  168SOPE   C3418971   3.497   4.870   7.017  0.0325  0.3615 -0.5491
  168SOPE   H4X18972   3.450   4.966   7.046 -0.7471 -0.3097  0.4442
  168SOPE   H4Y18973   3.608   4.873   7.029  0.0518 -0.7933 -0.3872
  168SOPE   C3518974   3.457   4.756   7.117  1.2586 -0.7313  0.1415
  168SOPE   H5X18975   3.476   4.655   7.075  0.2833 -0.2569 -1.5740
  168SOPE   H5Y18976   3.346   4.763   7.128  1.1057 -3.8680  1.5330
  168SOPE   C3618977   3.513   4.774   7.260  0.6305  0.0783  0.2496
  168SOPE   H6X18978   3.515   4.883   7.282  1.0775  0.0662  0.2746
  168SOPE   H6Y18979   3.613   4.727   7.254  0.9714  0.7044  0.8730
  168SOPE   C3718980   3.439   4.697   7.371 -0.0810 -0.3546 -0.6968
  168SOPE   H7X18981   3.436   4.589   7.342  0.7408 -1.4150  2.6922
  168SOPE   H7Y18982   3.333   4.730   7.375  0.1726  0.7219 -2.0742
  168SOPE   C3818983   3.495   4.722   7.511 -0.2299  0.4824 -0.0443
  168SOPE   H8X18984   3.480   4.831   7.526 -0.0995  0.5041 -0.0679
  168SOPE   H8Y18985   3.602   4.694   7.506  0.3342  2.4697 -0.0067
  168SOPE   C3918986   3.447   4.634   7.626 -0.5992 -0.6724 -0.3800
  168SOPE   H9X18987   3.441   4.530   7.588  1.9871 -0.8747 -0.4009
  168SOPE   H9Y18988   3.344   4.667   7.652 -0.4071 -0.2534 -0.1422
  168SOPE  C31018989   3.541   4.641   7.751  1.5064 -0.0174  0.5216
  168SOPE  H10X18990   3.562   4.748   7.774 -0.1428  0.7056 -1.1321
  168SOPE  H10Y18991   3.633   4.588   7.717  0.7891 -0.6849 -0.4324
  168SOPE  C31118992   3.481   4.582   7.881  1.0888 -0.3042 -0.3153
  168SOPE  H11X18993   3.568   4.575   7.951  0.0892  3.1452  1.5377
  168SOPE  H11Y18994   3.442   4.483   7.852 -0.4638  0.7992 -2.1681
  168SOPE  C31218995   3.372   4.664   7.955 -0.5500 -0.2712 -0.0995
  168SOPE  H12X18996   3.284   4.663   7.887  0.3784  1.9998 -1.4572
  168SOPE  H12Y18997   3.418   4.765   7.961  0.0185 -0.5435  0.1852
  168SOPE  C31318998   3.338   4.610   8.091  0.4258 -0.4638 -0.1837
  168SOPE  H13X18999   3.431   4.607   8.153 -0.7365 -2.0356  1.5987
  168SOPE  H13Y19000   3.291   4.511   8.106  2.5142 -1.6468 -0.9476
  168SOPE  C31419001   3.253   4.712   8.165 -0.0679  0.2915  0.3501
  168SOPE  H14X19002   3.191   4.765   8.090 -0.0100  0.2982  0.3060
  168SOPE  H14Y19003   3.325   4.787   8.203 -0.5021  1.0968 -0.3819
  168SOPE  C31519004   3.166   4.659   8.285 -0.3154 -0.7573  0.0126
  168SOPE  H15X19005   3.097   4.586   8.238 -1.5192  1.4038 -1.7737
  168SOPE  H15Y19006   3.092   4.729   8.330 -2.9251 -1.2980 -3.0490
  168SOPE  C31619007   3.251   4.578   8.384 -0.6431 -0.1749 -0.2691
  168SOPE  H16X19008   3.339   4.639   8.415 -0.0120 -1.5331  0.7483
  168SOPE  H16Y19009   3.280   4.481   8.336 -1.4628 -1.6545  2.0477
  168SOPE  C31719010   3.181   4.545   8.517  0.5565  0.2779 -0.0515
  168SOPE  H17X19011   3.223   4.452   8.559  2.3978  1.4448  0.8244
  168SOPE  H17Y19012   3.071   4.533   8.509  0.3765  1.9233 -0.4371
  168SOPE  C31819013   3.197   4.645   8.625  0.5764 -0.7031 -0.2468
  168SOPE  H18X19014   3.300   4.684   8.638 -0.1987  1.4354 -0.1636
  168SOPE  H18Y19015   3.159   4.592   8.715 -2.0664 -0.3540 -1.0734
  168SOPE  H18Z19016   3.115   4.719   8.621  0.7648 -0.3841  1.1721
  169SOPE     N19017   6.168   5.427   5.895 -0.4034 -0.3620 -0.1015
  169SOPE   HN119018   6.102   5.346   5.892 -1.5208  0.4703  1.1599
  169SOPE   HN219019   6.119   5.516   5.877  3.2238  1.8192 -0.1912
  169SOPE   HN319020   6.231   5.410   5.814 -1.6387 -2.5576 -0.7022
  169SOPE   C1219021   6.243   5.465   6.022 -0.0449 -0.0709 -0.1808
  169SOPE  H12A19022   6.169   5.511   6.090  0.4628 -2.9594  2.5995
  169SOPE  H12B19023   6.313   5.546   5.992  1.2338 -1.6887 -1.8569
  169SOPE   C1119024   6.321   5.350   6.089  0.0288 -0.2165 -0.2961
  169SOPE  H11A19025   6.387   5.395   6.166 -0.9543  0.8618 -0.0556
  169SOPE  H11B19026   6.393   5.309   6.015 -0.8932 -0.6655 -0.9667
  169SOPE     P19027   6.132   5.297   6.257  0.1836 -0.4193  0.1807
  169SOPE   O1319028   6.138   5.194   6.364  0.4077 -0.1809  0.0600
  169SOPE   O1419029   5.994   5.330   6.208  0.3078  0.5345 -0.7479
  169SOPE   O1219030   6.233   5.251   6.147 -0.1573 -0.4441 -0.2457
  169SOPE   O1119031   6.193   5.435   6.301  0.2779  0.0575 -0.5182
  169SOPE    C119032   6.280   5.454   6.411  0.2387 -0.0915 -0.1362
  169SOPE    HA19033   6.323   5.556   6.404 -1.1875  0.6778  1.6726
  169SOPE    HB19034   6.372   5.392   6.405 -0.4383 -1.4098  1.9326
  169SOPE    C219035   6.208   5.440   6.546  0.1779  0.2751 -0.4415
  169SOPE    HS19036   6.161   5.340   6.560  0.4417 -0.1612 -2.3655
  169SOPE   O2119037   6.111   5.541   6.558  0.6571  0.1948  0.4519
  169SOPE   C2119038   6.002   5.518   6.622 -0.1152  0.5063  0.2545
  169SOPE   O2219039   5.967   5.407   6.663  0.2051  0.3363  0.1127
  169SOPE   C2219040   5.921   5.647   6.642  0.3067 -0.7291 -0.2123
  169SOPE   H2R19041   5.884   5.683   6.544  1.3791 -0.6029 -0.5768
  169SOPE   H2S19042   5.992   5.721   6.684  1.1203 -1.5419 -0.1266
  169SOPE    C319043   6.315   5.466   6.652  0.1184  0.3276  0.6713
  169SOPE    HX19044   6.351   5.570   6.638 -1.5969  1.1238  1.8186
  169SOPE    HY19045   6.395   5.393   6.629  0.7172  0.5574  1.9473
  169SOPE   O3119046   6.271   5.445   6.790  0.2760 -0.0529  0.5870
  169SOPE   C3119047   6.355   5.481   6.884  0.4041  0.5287 -0.8084
  169SOPE   O3219048   6.468   5.526   6.867 -0.1081 -0.4030 -0.0055
  169SOPE   C3219049   6.296   5.455   7.023 -0.3144  0.0691 -0.2495
  169SOPE   H2X19050   6.372   5.388   7.070  0.1073  0.1094 -0.8582
  169SOPE   H2Y19051   6.198   5.403   7.017  0.2280 -0.9012 -1.3444
  169SOPE   C2319052   5.807   5.621   6.747  0.0066  0.5298  0.3802
  169SOPE   H3R19053   5.735   5.552   6.698  1.3132  1.0225 -2.4377
  169SOPE   H3S19054   5.757   5.719   6.765 -0.4176  0.5272 -0.7420
  169SOPE   C2419055   5.857   5.579   6.883  0.8128 -0.3173  0.4328
  169SOPE   H4R19056   5.917   5.485   6.884  1.1427 -0.1443  2.7377
  169SOPE   H4S19057   5.930   5.656   6.917  0.3503 -0.4842  1.8707
  169SOPE   C2519058   5.750   5.560   6.998 -1.1107  0.1318  0.2467
  169SOPE   H5R19059   5.679   5.645   7.005  0.3570  1.3353  0.8967
  169SOPE   H5S19060   5.692   5.470   6.967 -0.3785 -0.1891 -0.2192
  169SOPE   C2619061   5.806   5.534   7.133  0.4050  0.7089 -0.2802
  169SOPE   H6R19062   5.887   5.458   7.135 -0.9600 -0.8215 -0.1771
  169SOPE   H6S19063   5.842   5.634   7.165  1.2735 -0.3030  2.1473
  169SOPE   C2719064   5.706   5.470   7.229 -0.7003  0.1304  0.5420
  169SOPE   H7R19065   5.638   5.558   7.230 -1.3848 -0.3409 -0.9044
  169SOPE   H7S19066   5.642   5.398   7.173  0.1694 -0.7099  0.6053
  169SOPE   C2819067   5.765   5.419   7.366  0.9260  0.0375  0.1694
  169SOPE   H8R19068   5.860   5.363   7.355  0.8374 -0.5726  2.1986
  169SOPE   H8S19069   5.783   5.513   7.423 -0.7661  0.9485 -0.7199
  169SOPE   C2919070   5.668   5.343   7.450 -0.4855  0.1655 -0.2610
  169SOPE   H9119071   5.598   5.279   7.395 -1.8918  1.2864  0.1666
  169SOPE  C21019072   5.648   5.364   7.585  0.0085  1.0479  0.0741
  169SOPE  H10119073   5.581   5.290   7.631  1.2778  0.4413  0.9793
  169SOPE  C21119074   5.723   5.459   7.672 -0.1711 -0.4668 -0.1806
  169SOPE  H11R19075   5.693   5.565   7.682 -2.3580 -1.0181 -0.4315
  169SOPE  H11S19076   5.829   5.459   7.639 -0.0311 -0.0236  0.2564
  169SOPE  C21219077   5.712   5.407   7.817  0.3629  0.2093 -0.0497
  169SOPE  H12R19078   5.765   5.311   7.834  1.7917  0.8179 -0.9082
  169SOPE  H12S19079   5.602   5.403   7.837  0.1458  1.0636 -0.9671
  169SOPE  C21319080   5.785   5.498   7.921 -0.2687 -0.3885 -0.4417
  169SOPE  H13R19081   5.742   5.600   7.913  0.0120 -0.1020  1.3412
  169SOPE  H13S19082   5.891   5.504   7.886 -0.1059 -0.8437 -0.0517
  169SOPE  C21419083   5.786   5.450   8.068 -0.5309 -0.2448  0.0960
  169SOPE  H14R19084   5.844   5.527   8.123 -1.0190 -1.0599  1.8418
  169SOPE  H14S19085   5.850   5.359   8.071 -0.3267 -0.0860  0.5412
  169SOPE  C21519086   5.642   5.423   8.129 -0.4681  0.6022 -0.5598
  169SOPE  H15R19087   5.596   5.334   8.082  0.8994 -0.6944  0.4811
  169SOPE  H15S19088   5.577   5.509   8.103 -2.8046 -1.5577 -2.3657
  169SOPE  C21619089   5.653   5.405   8.280 -0.5729  0.4042  1.2589
  169SOPE  H16R19090   5.737   5.464   8.321  1.7545 -0.9020 -1.2896
  169SOPE  H16S19091   5.674   5.299   8.306  0.2999 -0.0385 -1.0053
  169SOPE  C21719092   5.526   5.425   8.360  0.1297  0.3785  0.7055
  169SOPE  H17R19093   5.446   5.350   8.349 -0.8419  1.4384  0.3667
  169SOPE  H17S19094   5.488   5.520   8.317 -0.7936 -0.0729  0.5164
  169SOPE  C21819095   5.553   5.447   8.510  0.2929 -0.1389  0.2013
  169SOPE  H18R19096   5.550   5.347   8.557 -2.6831 -1.6533 -2.7935
  169SOPE  H18S19097   5.478   5.511   8.562  0.4421 -0.4438  0.8031
  169SOPE  H18T19098   5.650   5.501   8.516 -1.4665  3.5896 -1.2041
  169SOPE   C3319099   6.279   5.586   7.105  0.5862  0.3296  0.1079
  169SOPE   H3X19100   6.208   5.649   7.047 -0.0095  0.2705  0.7621
  169SOPE   H3Y19101   6.380   5.631   7.117  1.0262 -0.5747 -0.1416
  169SOPE   C3419102   6.217   5.559   7.243 -0.4857  0.4427  0.5063
  169SOPE   H4X19103   6.108   5.538   7.237 -0.5845  0.9882  0.3244
  169SOPE   H4Y19104   6.234   5.650   7.304  1.7401  0.2178  0.3028
  169SOPE   C3519105   6.287   5.453   7.331 -0.1219  0.3686  0.2994
  169SOPE   H5X19106   6.397   5.464   7.317 -0.2794  1.2232 -0.3785
  169SOPE   H5Y19107   6.266   5.345   7.314  2.1802 -0.2098  0.7945
  169SOPE   C3619108   6.276   5.467   7.485 -1.1445  0.4218  0.1375
  169SOPE   H6X19109   6.321   5.563   7.520 -0.2155 -0.5743  1.8189
  169SOPE   H6Y19110   6.337   5.382   7.522 -0.5645  0.7151 -0.1295
  169SOPE   C3719111   6.135   5.471   7.547 -0.0168  0.3010  0.0383
  169SOPE   H7X19112   6.096   5.367   7.540 -0.0071  0.2510  0.6479
  169SOPE   H7Y19113   6.079   5.538   7.480  2.5913  2.0226 -0.5605
  169SOPE   C3819114   6.130   5.528   7.696  0.5971 -0.3228  0.0636
  169SOPE   H8X19115   6.132   5.639   7.683 -0.1544 -0.2350  0.6318
  169SOPE   H8Y19116   6.027   5.503   7.731  0.0651  0.5628 -0.7868
  169SOPE   C3919117   6.230   5.467   7.795 -0.7239 -0.3294 -0.0268
  169SOPE   H9X19118   6.330   5.484   7.750 -1.0167 -1.5487 -1.1999
  169SOPE   H9Y19119   6.216   5.358   7.813  1.9471 -0.5363  1.1266
  169SOPE  C31019120   6.230   5.546   7.925  0.5119  0.1957 -0.1852
  169SOPE  H10X19121   6.126   5.563   7.961  0.3065  0.9121 -1.0785
  169SOPE  H10Y19122   6.264   5.649   7.900  0.0828  0.9607  2.1550
  169SOPE  C31119123   6.331   5.484   8.020 -0.1469  0.3663 -0.6622
  169SOPE  H11X19124   6.384   5.570   8.065  0.1114 -1.1241  2.1463
  169SOPE  H11Y19125   6.405   5.413   7.977 -0.3089 -1.2727  1.5729
  169SOPE  C31219126   6.264   5.408   8.135 -0.7676 -0.2422  0.2530
  169SOPE  H12X19127   6.211   5.312   8.115  0.3598 -0.9977  0.7709
  169SOPE  H12Y19128   6.189   5.479   8.175  1.1130  1.3328  1.1610
  169SOPE  C31319129   6.366   5.388   8.257  0.2475 -0.2580 -0.4468
  169SOPE  H13X19130   6.313   5.408   8.352 -0.0545 -0.8883 -0.4738
  169SOPE  H13Y19131   6.436   5.474   8.250 -0.2389  0.0844 -1.2638
  169SOPE  C31419132   6.426   5.243   8.270  0.7161  0.1580 -0.1171
  169SOPE  H14X19133   6.461   5.206   8.172 -1.8344  0.0485 -1.0626
  169SOPE  H14Y19134   6.345   5.173   8.299 -0.3101  1.0411 -0.7742
  169SOPE  C31519135   6.538   5.230   8.372 -0.4151 -0.1725  0.1683
  169SOPE  H15X19136   6.586   5.330   8.378  0.5883 -0.7024  3.6829
  169SOPE  H15Y19137   6.600   5.141   8.345 -0.7787 -1.0964  2.1877
  169SOPE  C31619138   6.491   5.217   8.524  0.2617 -0.6656  0.9677
  169SOPE  H16X19139   6.417   5.136   8.535 -1.3252  0.6480  0.3862
  169SOPE  H16Y19140   6.441   5.314   8.543  2.1569  1.2847 -2.7164
  169SOPE  C31719141   6.613   5.202   8.617 -0.3698  0.4369 -0.8970
  169SOPE  H17X19142   6.640   5.094   8.623  1.3603  0.9170  1.5628
  169SOPE  H17Y19143   6.574   5.242   8.713  1.7716 -0.3597  0.3759
  169SOPE  C31819144   6.743   5.280   8.584  1.2244  0.2404  0.1707
  169SOPE  H18X19145   6.817   5.287   8.666 -0.9780  0.7181  2.2089
  169SOPE  H18Y19146   6.709   5.384   8.567  0.0971  0.1292  1.5577
  169SOPE  H18Z19147   6.787   5.237   8.491  0.8278 -0.5187  0.3288
  170SOPE     N19148   5.829   4.206   6.268  0.6549 -0.1684 -0.2405
  170SOPE   HN119149   5.831   4.286   6.335 -1.9299 -0.3135  0.1208
  170SOPE   HN219150   5.882   4.240   6.185 -1.5458  0.3882 -1.4950
  170SOPE   HN319151   5.736   4.175   6.233  0.3591  0.0554  0.3256
  170SOPE   C1219152   5.910   4.093   6.323 -0.3531 -0.0195 -0.1634
  170SOPE  H12A19153   5.856   4.062   6.415 -2.9786 -2.2889 -2.2916
  170SOPE  H12B19154   6.015   4.125   6.340  0.1325 -0.6293 -1.8148
  170SOPE   C1119155   5.901   3.978   6.221  0.1443 -0.4945  0.7050
  170SOPE  H11A19156   5.942   4.020   6.126  0.3774  2.5219  2.0206
  170SOPE  H11B19157   5.795   3.946   6.212 -0.3900  0.7983  2.0300
  170SOPE     P19158   6.147   3.867   6.238 -0.0482 -0.4145 -0.3434
  170SOPE   O1319159   6.186   3.976   6.146 -0.0325 -0.6077  0.2076
  170SOPE   O1419160   6.204   3.734   6.212  0.1163 -0.3244 -0.3497
  170SOPE   O1219161   5.980   3.867   6.253  0.0960 -0.7848 -0.6068
  170SOPE   O1119162   6.182   3.919   6.387  0.5117 -0.8617 -0.1006
  170SOPE    C119163   6.193   3.802   6.478  1.1474 -0.0066  0.3730
  170SOPE    HA19164   6.257   3.718   6.444  1.3121 -0.3820  1.5771
  170SOPE    HB19165   6.095   3.754   6.501  1.7202 -0.5997  1.6749
  170SOPE    C219166   6.239   3.843   6.622  0.0544  0.1320  0.5771
  170SOPE    HS19167   6.222   3.757   6.691  0.0517 -0.4296 -0.1159
  170SOPE   O2119168   6.186   3.964   6.676  0.1371  0.1385  0.8837
  170SOPE   C2119169   6.059   3.941   6.710 -0.2600 -0.3150  0.3229
  170SOPE   O2219170   6.001   3.836   6.723 -0.6710 -0.8961 -0.3398
  170SOPE   C2219171   6.006   4.070   6.776 -0.1171 -0.0404 -0.2575
  170SOPE   H2R19172   5.896   4.073   6.765 -0.1908 -0.0700  0.3931
  170SOPE   H2S19173   6.041   4.151   6.708  0.5800  0.2962  0.4767
  170SOPE    C319174   6.392   3.837   6.617 -0.7405  0.0429  0.2973
  170SOPE    HX19175   6.429   3.907   6.539 -1.7890 -0.1327 -0.3689
  170SOPE    HY19176   6.427   3.736   6.587  2.2333  1.1246 -0.3105
  170SOPE   O3119177   6.441   3.853   6.747  0.5917  0.1142 -0.7418
  170SOPE   C3119178   6.482   3.973   6.795  0.5466  0.0443 -0.1185
  170SOPE   O3219179   6.497   4.070   6.723  0.4320  0.2995 -0.0320
  170SOPE   C3219180   6.478   3.979   6.951  0.3008  0.2871 -0.3397
  170SOPE   H2X19181   6.415   3.889   6.966 -0.7282  0.8289 -1.2338
  170SOPE   H2Y19182   6.417   4.068   6.976  0.6191  0.3129  0.3555
  170SOPE   C2319183   6.062   4.097   6.918 -0.6456  0.0582 -0.1223
  170SOPE   H3R19184   6.038   4.203   6.942  2.9530  0.7707  0.7938
  170SOPE   H3S19185   6.172   4.086   6.919 -0.7396 -1.0355 -0.4359
  170SOPE   C2419186   5.993   4.006   7.022 -0.5229 -0.0928 -0.2955
  170SOPE   H4R19187   5.882   4.008   7.021 -0.5994 -0.0990 -3.2890
  170SOPE   H4S19188   6.023   3.900   7.006  0.4617  0.2067 -0.5152
  170SOPE   C2519189   6.043   4.033   7.167 -0.5926 -0.6501  0.1584
  170SOPE   H5R19190   6.151   4.008   7.170  0.1873  1.9458 -2.4100
  170SOPE   H5S19191   6.027   4.139   7.196 -1.6547 -1.3664  2.4131
  170SOPE   C2619192   5.964   3.954   7.268  0.5346 -0.3270  0.2936
  170SOPE   H6R19193   5.870   4.008   7.291  1.8789  1.7923  1.0927
  170SOPE   H6S19194   5.927   3.857   7.227 -1.6436  0.1000  1.1002
  170SOPE   C2719195   6.032   3.936   7.404 -0.1021 -0.0413  0.2961
  170SOPE   H7R19196   6.124   3.877   7.382 -0.4414 -2.0386  3.5162
  170SOPE   H7S19197   6.061   4.035   7.447 -2.2991  0.2412  1.2573
  170SOPE   C2819198   5.930   3.872   7.498 -0.1501  0.4171  0.3306
  170SOPE   H8R19199   5.861   3.953   7.526  0.4648  1.7016 -1.6490
  170SOPE   H8S19200   5.870   3.792   7.448  0.2993  0.2014  0.1249
  170SOPE   C2919201   5.992   3.817   7.622 -0.1668 -0.3872 -0.3566
  170SOPE   H9119202   6.026   3.713   7.615  1.4869  0.1193 -0.2616
  170SOPE  C21019203   6.007   3.878   7.740 -0.2521  0.0172  0.3374
  170SOPE  H10119204   6.051   3.826   7.827  4.4016  2.1058 -0.4151
  170SOPE  C21119205   5.963   4.022   7.772  0.0698 -0.9075  0.0390
  170SOPE  H11R19206   5.865   4.050   7.729  1.1139  1.3466 -1.0439
  170SOPE  H11S19207   6.034   4.102   7.744 -2.0251  1.5020  1.1785
  170SOPE  C21219208   5.936   4.029   7.928  0.4073  0.5561  0.0115
  170SOPE  H12R19209   5.911   4.135   7.953  0.0111  0.6236 -0.6473
  170SOPE  H12S19210   6.029   4.001   7.981  1.0168  0.5260 -1.0552
  170SOPE  C21319211   5.820   3.935   7.965  0.8956 -0.2968 -0.3587
  170SOPE  H13R19212   5.773   3.887   7.875 -2.9111  1.5468  0.4280
  170SOPE  H13S19213   5.736   3.998   8.001  0.9023 -0.6734  0.3370
  170SOPE  C21419214   5.840   3.849   8.085  0.2580  0.0274  0.4683
  170SOPE  H14R19215   5.934   3.795   8.058 -0.7235 -1.4848 -0.0453
  170SOPE  H14S19216   5.759   3.774   8.098 -0.9435  1.2564  0.2389
  170SOPE  C21519217   5.854   3.922   8.216 -0.3641 -0.0506 -0.8652
  170SOPE  H15R19218   5.754   3.967   8.235 -0.9078 -1.3136 -0.6225
  170SOPE  H15S19219   5.933   4.000   8.218 -0.7761  0.3639  0.0185
  170SOPE  C21619220   5.887   3.831   8.337  0.2144  0.5598 -0.3985
  170SOPE  H16R19221   5.986   3.781   8.329 -0.3454 -0.5931 -0.3084
  170SOPE  H16S19222   5.806   3.756   8.348  0.7209  0.1138  0.3882
  170SOPE  C21719223   5.890   3.912   8.457 -0.9641 -0.1645 -0.1898
  170SOPE  H17R19224   5.802   3.979   8.459  0.3652  1.6140  0.6924
  170SOPE  H17S19225   5.982   3.973   8.450 -0.9099 -0.2222  0.0266
  170SOPE  C21819226   5.897   3.848   8.594  0.2421  0.0280 -0.3717
  170SOPE  H18R19227   5.803   3.798   8.627  0.2584 -0.5742 -1.1974
  170SOPE  H18S19228   5.924   3.925   8.670 -3.4065 -0.8625  2.0876
  170SOPE  H18T19229   5.980   3.775   8.597  0.1275 -0.1137 -0.6108
  170SOPE   C3319230   6.613   3.978   7.031  0.1760  0.5067  0.5253
  170SOPE   H3X19231   6.672   4.071   7.013  0.4855  0.0489 -0.9336
  170SOPE   H3Y19232   6.678   3.894   7.000  0.7455  1.3267 -0.5690
  170SOPE   C3419233   6.586   3.970   7.181 -0.3410  0.1710  0.0675
  170SOPE   H4X19234   6.524   4.060   7.203 -2.5552 -1.3198  0.2381
  170SOPE   H4Y19235   6.685   3.979   7.232 -0.1452 -0.8049 -0.1197
  170SOPE   C3519236   6.521   3.841   7.212 -0.1306  0.3383 -0.5361
  170SOPE   H5X19237   6.586   3.765   7.165 -0.3680  0.7036 -1.4854
  170SOPE   H5Y19238   6.421   3.829   7.163 -0.6208 -1.8183  0.8549
  170SOPE   C3619239   6.500   3.813   7.365  0.6281 -0.5050  0.5014
  170SOPE   H6X19240   6.593   3.800   7.425  1.4323 -0.6066 -0.7387
  170SOPE   H6Y19241   6.462   3.709   7.378  0.4657 -0.6166 -0.7422
  170SOPE   C3719242   6.407   3.918   7.429 -0.6507 -0.4632 -0.0444
  170SOPE   H7X19243   6.328   3.949   7.357 -1.6906 -1.7653  0.5001
  170SOPE   H7Y19244   6.460   4.015   7.440 -2.3447  1.0703 -3.5408
  170SOPE   C3819245   6.348   3.868   7.561  0.5106  1.3129  0.2922
  170SOPE   H8X19246   6.304   3.766   7.551 -0.8509  1.4254  3.6981
  170SOPE   H8Y19247   6.263   3.935   7.586 -1.1602  0.4120 -2.4460
  170SOPE   C3919248   6.439   3.868   7.687 -0.3642 -0.1764 -1.2673
  170SOPE   H9X19249   6.493   3.964   7.677 -0.0890 -0.2321 -0.3811
  170SOPE   H9Y19250   6.503   3.777   7.689  0.1124  0.1728 -0.3469
  170SOPE  C31019251   6.362   3.881   7.818 -0.3659  0.1329  0.0069
  170SOPE  H10X19252   6.314   3.783   7.841  1.6344 -0.8069  0.4722
  170SOPE  H10Y19253   6.293   3.964   7.797 -0.1281 -0.0487 -1.6379
  170SOPE  C31119254   6.437   3.918   7.938 -0.3615  0.3007 -0.4676
  170SOPE  H11X19255   6.467   4.025   7.943 -0.9112  0.3929  2.6841
  170SOPE  H11Y19256   6.524   3.851   7.955 -2.1324 -1.5048  2.2909
  170SOPE  C31219257   6.337   3.905   8.051  0.0908  0.4670  0.0156
  170SOPE  H12X19258   6.315   3.797   8.068  2.1405  0.2477  1.8728
  170SOPE  H12Y19259   6.242   3.960   8.036 -0.8591 -0.4715  2.0597
  170SOPE  C31319260   6.388   3.951   8.186  0.0969  0.2267  0.2666
  170SOPE  H13X19261   6.418   4.056   8.168  0.4724 -0.2176 -2.0872
  170SOPE  H13Y19262   6.477   3.894   8.220 -0.5481 -0.7363  0.3708
  170SOPE  C31419263   6.279   3.950   8.288 -0.2888 -0.1331  0.3961
  170SOPE  H14X19264   6.236   3.848   8.288 -0.0589 -0.2412 -0.4191
  170SOPE  H14Y19265   6.199   4.024   8.263  2.0192  2.3158 -0.2963
  170SOPE  C31519266   6.327   3.986   8.429 -0.1718  0.1114 -0.5745
  170SOPE  H15X19267   6.410   3.922   8.464  0.4289  1.5270  0.7329
  170SOPE  H15Y19268   6.252   3.966   8.507  0.6093  0.7053  0.3503
  170SOPE  C31619269   6.352   4.139   8.455 -0.0788  0.0972  0.0507
  170SOPE  H16X19270   6.309   4.191   8.367  0.8902 -1.3518 -1.3403
  170SOPE  H16Y19271   6.461   4.156   8.447 -0.3175  1.0335 -2.0260
  170SOPE  C31719272   6.309   4.180   8.591 -0.3743 -0.8336  0.9191
  170SOPE  H17X19273   6.371   4.110   8.651  2.7868 -1.1158 -2.3001
  170SOPE  H17Y19274   6.201   4.162   8.608 -0.8684  1.8965  1.1163
  170SOPE  C31819275   6.335   4.328   8.610  0.4998 -0.9569 -0.3635
  170SOPE  H18X19276   6.271   4.389   8.543 -0.4500 -1.3838  0.1251
  170SOPE  H18Y19277   6.431   4.357   8.563 -1.0519  2.3469 -1.8405
  170SOPE  H18Z19278   6.320   4.347   8.718 -1.6176  0.0391 -0.7797
  171SOPE     N19279   6.761   6.761   6.582 -0.1336 -0.1568 -0.0677
  171SOPE   HN119280   6.762   6.776   6.479  0.3764 -1.3526 -0.2587
  171SOPE   HN219281   6.848   6.707   6.599 -0.3800 -0.3158  0.7790
  171SOPE   HN319282   6.684   6.692   6.599 -0.0193 -0.7742 -1.8440
  171SOPE   C1219283   6.750   6.888   6.656 -0.3553  0.3388  0.0730
  171SOPE  H12A19284   6.823   6.961   6.615  0.5351 -2.0556 -3.0144
  171SOPE  H12B19285   6.776   6.872   6.763 -1.0601  0.5364  0.2756
  171SOPE   C1119286   6.604   6.925   6.642  1.0516 -0.2737  0.6776
  171SOPE  H11A19287   6.584   6.992   6.728 -1.8823  1.4901 -1.1968
  171SOPE  H11B19288   6.538   6.836   6.648  0.9403 -0.3215 -0.8884
  171SOPE     P19289   6.493   7.108   6.487 -0.2462  0.2096 -0.3678
  171SOPE   O1319290   6.346   7.101   6.504 -0.5962 -0.3170  0.0939
  171SOPE   O1419291   6.539   7.178   6.363 -0.1417 -0.4710 -0.0467
  171SOPE   O1219292   6.583   6.979   6.512 -0.1152 -0.2204  0.0572
  171SOPE   O1119293   6.536   7.207   6.608 -0.2971  0.1111  0.1583
  171SOPE    C119294   6.468   7.331   6.614  0.5224  0.0780 -0.3556
  171SOPE    HA19295   6.362   7.321   6.646  1.4967 -2.2379  2.6366
  171SOPE    HB19296   6.481   7.387   6.519 -0.5106 -0.1196 -0.6227
  171SOPE    C219297   6.535   7.419   6.721 -0.0481 -0.3755 -0.7684
  171SOPE    HS19298   6.641   7.442   6.695  0.6758 -1.0608  1.3597
  171SOPE   O2119299   6.507   7.369   6.851  0.3117 -0.3646 -0.1814
  171SOPE   C2119300   6.584   7.271   6.889 -0.2522 -0.1290 -0.6208
  171SOPE   O2219301   6.695   7.247   6.843 -0.4486  0.2566  0.0085
  171SOPE   C2219302   6.532   7.203   7.015  0.6320  0.1311 -0.6766
  171SOPE   H2R19303   6.516   7.098   6.981 -2.0513  0.0648  0.5264
  171SOPE   H2S19304   6.430   7.241   7.034 -0.2864 -1.5677 -1.9253
  171SOPE    C319305   6.462   7.555   6.711 -0.2912 -0.8143 -0.2044
  171SOPE    HX19306   6.481   7.612   6.618  1.9587 -0.0616  0.6338
  171SOPE    HY19307   6.517   7.621   6.782  0.6086  1.5511 -2.9032
  171SOPE   O3119308   6.318   7.541   6.736  0.7072 -0.5615 -0.3742
  171SOPE   C3119309   6.261   7.646   6.788 -0.6411  0.0690 -0.6284
  171SOPE   O3219310   6.308   7.760   6.785  0.5489  0.0462 -0.7466
  171SOPE   C3219311   6.130   7.600   6.858 -0.4161  0.0079 -0.0569
  171SOPE   H2X19312   6.083   7.514   6.805  0.4914  1.0948 -2.8253
  171SOPE   H2Y19313   6.072   7.694   6.867  3.2018  2.3973  0.3208
  171SOPE   C2319314   6.627   7.212   7.135  0.3983  0.3724  0.4836
  171SOPE   H3R19315   6.666   7.311   7.168 -0.1697  0.7254  0.1042
  171SOPE   H3S19316   6.717   7.149   7.117  1.3409  1.3134  1.7140
  171SOPE   C2419317   6.568   7.140   7.258 -0.5462 -0.0104 -0.2115
  171SOPE   H4R19318   6.494   7.212   7.300  0.8816  0.4434  1.6517
  171SOPE   H4S19319   6.507   7.051   7.231  1.3590 -2.7682  3.5815
  171SOPE   C2519320   6.671   7.097   7.364 -0.0895 -0.5261  0.4905
  171SOPE   H5R19321   6.706   6.997   7.332 -0.7742  0.0754 -2.4586
  171SOPE   H5S19322   6.753   7.172   7.363 -0.9730  0.4805 -0.0899
  171SOPE   C2619323   6.616   7.076   7.502 -0.4900 -0.1799  0.8969
  171SOPE   H6R19324   6.586   7.178   7.535 -0.9739 -0.2350  0.6422
  171SOPE   H6S19325   6.516   7.027   7.498 -0.3604 -0.4732  1.2676
  171SOPE   C2719326   6.714   6.992   7.595  0.2410 -0.1676  0.1436
  171SOPE   H7R19327   6.730   6.891   7.554 -1.4679  0.3518 -1.9938
  171SOPE   H7S19328   6.811   7.043   7.580  0.9610 -1.4049  0.4783
  171SOPE   C2819329   6.676   7.000   7.742 -0.2993  0.4363  0.0690
  171SOPE   H8R19330   6.662   7.109   7.752 -1.3711  0.2593  0.7309
  171SOPE   H8S19331   6.574   6.976   7.779  0.3676  1.0496  2.5135
  171SOPE   C2919332   6.782   6.943   7.835  0.0306 -0.2855  0.3578
  171SOPE   H9119333   6.813   6.841   7.807  1.2881 -0.2345  1.4693
  171SOPE  C21019334   6.837   7.008   7.944 -0.4806 -0.0238  0.7865
  171SOPE  H10119335   6.921   6.953   7.989 -1.3337 -3.5663 -1.5333
  171SOPE  C21119336   6.815   7.153   7.996  0.5891  1.2130  0.3850
  171SOPE  H11R19337   6.766   7.154   8.096 -1.2713 -0.1785 -0.4681
  171SOPE  H11S19338   6.754   7.222   7.935 -0.0316  0.6534  0.3553
  171SOPE  C21219339   6.954   7.217   8.024  0.2405  0.8894 -0.2161
  171SOPE  H12R19340   6.945   7.327   8.036 -0.0750  0.9490 -0.9404
  171SOPE  H12S19341   7.024   7.213   7.937  1.5718  1.0934  0.8044
  171SOPE  C21319342   7.033   7.175   8.154 -0.4882  0.3770 -0.0605
  171SOPE  H13R19343   7.121   7.242   8.162 -0.0119  0.1896 -2.6735
  171SOPE  H13S19344   7.062   7.070   8.132  1.2449  1.2570 -2.3280
  171SOPE  C21419345   6.967   7.163   8.287  0.0874  0.3092 -1.7080
  171SOPE  H14R19346   6.883   7.090   8.294  0.8985 -0.4849  1.5687
  171SOPE  H14S19347   6.932   7.264   8.317  2.8188  2.0439 -3.9132
  171SOPE  C21519348   7.065   7.107   8.393 -0.2278 -0.3966  0.0615
  171SOPE  H15R19349   7.147   7.183   8.389  0.3623 -0.7875  2.7054
  171SOPE  H15S19350   7.128   7.018   8.370  1.4230  0.5529  0.7178
  171SOPE  C21619351   6.999   7.095   8.537 -1.2078  0.0200  0.0788
  171SOPE  H16R19352   6.928   7.178   8.553 -0.6497  0.1275  2.5303
  171SOPE  H16S19353   7.077   7.104   8.616 -1.2383 -1.3833  0.2993
  171SOPE  C21719354   6.925   6.960   8.561 -0.0270 -0.0714 -0.0900
  171SOPE  H17R19355   6.995   6.874   8.565 -0.6088 -0.5952 -1.0270
  171SOPE  H17S19356   6.860   6.953   8.472 -0.3982  1.0028  0.0755
  171SOPE  C21819357   6.838   6.945   8.687 -0.2447 -0.0172  0.3766
  171SOPE  H18R19358   6.899   6.963   8.778  1.3642 -0.7125 -0.5222
  171SOPE  H18S19359   6.785   6.849   8.706 -0.9071  0.6122  1.9407
  171SOPE  H18T19360   6.762   7.025   8.677  1.5700  1.6948 -0.3515
  171SOPE   C3319361   6.153   7.531   6.998  0.1314 -0.1599  0.0588
  171SOPE   H3X19362   6.240   7.461   6.995  1.0525  0.8321  1.8764
  171SOPE   H3Y19363   6.058   7.485   7.033  0.3282 -0.2174  0.5283
  171SOPE   C3419364   6.187   7.642   7.106 -0.1536  0.0835  0.3347
  171SOPE   H4X19365   6.085   7.671   7.138 -0.9881  0.8357 -2.6165
  171SOPE   H4Y19366   6.245   7.728   7.066 -1.9963  2.9999  3.4259
  171SOPE   C3519367   6.276   7.602   7.224  0.0623 -0.3085 -0.0846
  171SOPE   H5X19368   6.324   7.692   7.268  1.0229 -0.1454 -1.4418
  171SOPE   H5Y19369   6.369   7.551   7.190  1.1726  1.2915  0.4436
  171SOPE   C3619370   6.211   7.521   7.336  0.1250 -0.2971 -0.0273
  171SOPE   H6X19371   6.156   7.437   7.290 -1.3929  1.2214 -1.0713
  171SOPE   H6Y19372   6.132   7.584   7.382 -1.5922 -2.1204 -0.3898
  171SOPE   C3719373   6.311   7.465   7.443  0.3984 -0.0927 -0.0140
  171SOPE   H7X19374   6.361   7.548   7.499  0.7118 -1.1942  1.3916
  171SOPE   H7Y19375   6.392   7.418   7.383 -1.6936 -1.8785 -1.5772
  171SOPE   C3819376   6.249   7.374   7.551 -0.1624 -0.1426  0.1487
  171SOPE   H8X19377   6.205   7.281   7.509 -1.2465  0.2852  0.3111
  171SOPE   H8Y19378   6.160   7.422   7.596 -0.3310  1.1541 -1.4817
  171SOPE   C3919379   6.349   7.344   7.664  0.1580  0.4154 -0.0944
  171SOPE   H9X19380   6.369   7.443   7.710 -2.4777  1.0472 -0.1823
  171SOPE   H9Y19381   6.445   7.300   7.629  1.6836  2.4310  1.2898
  171SOPE  C31019382   6.297   7.247   7.770  0.3112 -0.2005 -0.1445
  171SOPE  H10X19383   6.312   7.146   7.726 -1.0032 -0.0379 -1.0407
  171SOPE  H10Y19384   6.187   7.256   7.783  0.3495 -0.0483  0.0909
  171SOPE  C31119385   6.380   7.266   7.899  0.3811 -0.0563  0.7251
  171SOPE  H11X19386   6.407   7.372   7.915  0.5352 -0.5328  4.2474
  171SOPE  H11Y19387   6.475   7.212   7.880  0.3411 -0.2760  1.1287
  171SOPE  C31219388   6.311   7.196   8.020 -0.8072 -0.2099 -0.1966
  171SOPE  H12X19389   6.283   7.096   7.983 -0.9548  0.2781 -1.4528
  171SOPE  H12Y19390   6.212   7.247   8.027  0.3053  2.0837  0.0186
  171SOPE  C31319391   6.407   7.202   8.138 -0.4695 -0.2893  0.0234
  171SOPE  H13X19392   6.408   7.304   8.182 -0.9403  0.0643 -0.7685
  171SOPE  H13Y19393   6.508   7.196   8.094  0.4539  0.4489  1.9245
  171SOPE  C31419394   6.393   7.086   8.228  0.4332  0.2093  0.0872
  171SOPE  H14X19395   6.401   6.993   8.168  1.9875 -0.3306  1.0769
  171SOPE  H14Y19396   6.292   7.088   8.274  1.5636  0.6698  2.7290
  171SOPE  C31519397   6.488   7.076   8.340  0.0536 -0.5554 -0.6881
  171SOPE  H15X19398   6.592   7.062   8.303  0.9642  1.7565  0.7576
  171SOPE  H15Y19399   6.454   6.996   8.409  0.8163 -1.6569 -1.5581
  171SOPE  C31619400   6.491   7.206   8.417  0.1813 -0.0293 -0.7421
  171SOPE  H16X19401   6.388   7.245   8.428 -0.2719 -1.5655  0.7403
  171SOPE  H16Y19402   6.568   7.264   8.361  1.7183  0.8180  2.0271
  171SOPE  C31719403   6.562   7.207   8.563  0.0789  0.2681  0.3889
  171SOPE  H17X19404   6.668   7.178   8.550  0.4141  1.2135  0.9691
  171SOPE  H17Y19405   6.509   7.126   8.618  1.8415 -1.2809 -0.0982
  171SOPE  C31819406   6.552   7.347   8.626 -0.0399  0.0953 -0.9089
  171SOPE  H18X19407   6.591   7.350   8.730  1.3178 -0.2836 -1.3808
  171SOPE  H18Y19408   6.453   7.392   8.648  1.1694  1.1241  3.3544
  171SOPE  H18Z19409   6.613   7.424   8.574 -0.0486  1.9433  1.6822
  172SOPE     N19410   0.906   2.634   5.999  0.6193  0.4758 -0.1207
  172SOPE   HN119411   0.892   2.543   5.951 -2.4309  0.8837 -0.2398
  172SOPE   HN219412   0.859   2.625   6.092  0.0313 -0.9517 -0.5249
  172SOPE   HN319413   0.844   2.703   5.952  0.1149 -1.7168 -2.9492
  172SOPE   C1219414   1.047   2.671   6.024 -0.3569 -0.4227  0.0587
  172SOPE  H12A19415   1.055   2.781   6.037  0.5586 -0.5899  1.1056
  172SOPE  H12B19416   1.104   2.658   5.930  1.8630 -0.6366  1.3459
  172SOPE   C1119417   1.099   2.599   6.139 -0.2678 -0.1082 -0.3362
  172SOPE  H11A19418   1.182   2.662   6.176 -0.0985  0.9614 -2.3920
  172SOPE  H11B19419   1.131   2.497   6.107 -1.0615 -1.0744  1.7836
  172SOPE     P19420   0.980   2.471   6.340 -0.1114  0.0604  0.2578
  172SOPE   O1319421   0.960   2.347   6.258 -0.4069 -0.0460 -0.0805
  172SOPE   O1419422   0.875   2.501   6.440 -0.6299 -0.1105 -0.4176
  172SOPE   O1219423   0.999   2.590   6.240 -0.1872 -0.3419 -0.4115
  172SOPE   O1119424   1.121   2.476   6.405 -0.5800  0.3038  0.2310
  172SOPE    C119425   1.142   2.594   6.490 -0.2994 -0.2348  0.1006
  172SOPE    HA19426   1.062   2.671   6.484  0.8465  1.2065  1.7853
  172SOPE    HB19427   1.239   2.638   6.458 -0.3684 -0.2521 -0.1331
  172SOPE    C219428   1.153   2.559   6.638 -0.2212  0.1571  0.1209
  172SOPE    HS19429   1.068   2.497   6.676 -0.3065  0.8499  1.1170
  172SOPE   O2119430   1.172   2.681   6.712  0.1292  0.1989  0.3757
  172SOPE   C2119431   1.060   2.732   6.757  0.1976 -0.0017  0.2729
  172SOPE   O2219432   0.949   2.685   6.736  0.5009 -0.3560 -0.1021
  172SOPE   C2219433   1.082   2.849   6.848 -0.4537  0.2750 -0.3323
  172SOPE   H2R19434   0.983   2.896   6.863 -0.6707 -0.5521  1.0005
  172SOPE   H2S19435   1.146   2.929   6.806 -0.0838 -0.2831 -0.8445
  172SOPE    C319436   1.274   2.465   6.656  0.0772 -0.1082 -0.0372
  172SOPE    HX19437   1.354   2.512   6.595 -0.3203  1.6032  0.7035
  172SOPE    HY19438   1.259   2.365   6.610  1.5441  0.4527 -1.8369
  172SOPE   O3119439   1.301   2.441   6.798 -0.5070 -0.2410  0.2387
  172SOPE   C3119440   1.395   2.525   6.853 -0.4237  0.1090 -0.3840
  172SOPE   O3219441   1.474   2.599   6.792  0.3146  0.3896  0.1965
  172SOPE   C3219442   1.368   2.518   7.001  0.6536  0.1205 -0.1148
  172SOPE   H2X19443   1.412   2.424   7.042  0.6636  1.1773  2.4627
  172SOPE   H2Y19444   1.259   2.515   7.020  0.7251 -1.8458  0.2168
  172SOPE   C2319445   1.128   2.811   6.991  0.0320  0.1136  0.1504
  172SOPE   H3R19446   1.238   2.800   6.983  0.3721  2.4781  0.6886
  172SOPE   H3S19447   1.074   2.726   7.037  1.2273 -1.6657 -1.5867
  172SOPE   C2419448   1.118   2.935   7.085  0.1908  0.3181  0.6646
  172SOPE   H4R19449   1.016   2.978   7.094 -0.1806 -0.7508  1.8459
  172SOPE   H4S19450   1.135   2.893   7.186 -2.4599 -1.2502  0.5714
  172SOPE   C2519451   1.211   3.053   7.047 -0.4544 -0.1355  0.4558
  172SOPE   H5R19452   1.321   3.034   7.048 -0.4989 -0.3737  1.5121
  172SOPE   H5S19453   1.183   3.101   6.950  0.5170  1.4684  0.9302
  172SOPE   C2619454   1.192   3.170   7.144 -0.7219  0.4223 -0.8535
  172SOPE   H6R19455   1.258   3.257   7.123 -1.6898  1.5309  0.4963
  172SOPE   H6S19456   1.088   3.209   7.144 -0.8719  0.0531  0.2987
  172SOPE   C2719457   1.249   3.127   7.280  0.4875  0.1656 -1.0891
  172SOPE   H7R19458   1.204   3.034   7.322 -1.1468  1.6698  0.7313
  172SOPE   H7S19459   1.356   3.101   7.277  0.4124 -0.2226 -0.6276
  172SOPE   C2819460   1.213   3.234   7.390 -0.4132  0.1182  0.1353
  172SOPE   H8R19461   1.265   3.330   7.368  1.0086 -0.4130  1.0847
  172SOPE   H8S19462   1.104   3.254   7.375 -0.3282  1.3349  0.9697
  172SOPE   C2919463   1.228   3.178   7.535  0.4748 -0.5653  0.7038
  172SOPE   H9119464   1.330   3.151   7.565  1.3953 -0.1966 -1.8582
  172SOPE  C21019465   1.140   3.171   7.632 -0.4723  0.2068 -0.0052
  172SOPE  H10119466   1.174   3.127   7.727  3.0111  1.3143 -0.5977
  172SOPE  C21119467   0.996   3.216   7.624 -0.2736  0.6581  0.2325
  172SOPE  H11R19468   0.937   3.130   7.585 -0.3061  0.3604  0.9319
  172SOPE  H11S19469   0.985   3.299   7.551  0.6196  0.1867 -0.4649
  172SOPE  C21219470   0.930   3.247   7.765 -0.1801 -0.0736 -0.1412
  172SOPE  H12R19471   0.949   3.164   7.837 -1.3764  0.6328  1.0420
  172SOPE  H12S19472   0.820   3.250   7.752 -0.1005 -1.3001 -1.2957
  172SOPE  C21319473   0.981   3.386   7.814  0.3792 -0.3357 -0.1400
  172SOPE  H13R19474   0.926   3.454   7.746 -1.4512 -0.0809  1.5142
  172SOPE  H13S19475   1.091   3.388   7.800  0.3150  1.4069 -0.5953
  172SOPE  C21419476   0.936   3.426   7.956  0.4573  0.0233  0.0230
  172SOPE  H14R19477   0.964   3.532   7.972  0.9142  0.4510 -2.9469
  172SOPE  H14S19478   0.993   3.364   8.029 -1.2061  0.8711  2.1536
  172SOPE  C21519479   0.784   3.421   7.975 -0.1090  0.0414 -0.5079
  172SOPE  H15R19480   0.755   3.315   7.957 -0.2984 -0.2110  1.1341
  172SOPE  H15S19481   0.733   3.487   7.902 -0.3221  0.2043 -0.2151
  172SOPE  C21619482   0.740   3.450   8.118 -0.2643  0.7293  0.0465
  172SOPE  H16R19483   0.631   3.459   8.097 -0.2143  1.2752 -0.0082
  172SOPE  H16S19484   0.776   3.550   8.152 -1.1580  0.3751  2.2433
  172SOPE  C21719485   0.766   3.342   8.224  0.3094 -0.4622 -0.2808
  172SOPE  H17R19486   0.872   3.308   8.230  0.9493  1.6152  2.4387
  172SOPE  H17S19487   0.699   3.259   8.193 -1.2944  0.3279  0.8738
  172SOPE  C21819488   0.721   3.384   8.367  0.2067  0.5185 -0.3795
  172SOPE  H18R19489   0.628   3.446   8.370 -1.3256 -1.6214 -1.5253
  172SOPE  H18S19490   0.802   3.455   8.397  0.5891 -0.8206  2.0036
  172SOPE  H18T19491   0.701   3.296   8.432 -2.5407  3.2320  2.8238
  172SOPE   C3319492   1.449   2.632   7.067 -0.2961  0.0749  0.5638
  172SOPE   H3X19493   1.438   2.729   7.014  1.6095  0.0934  0.1302
  172SOPE   H3Y19494   1.557   2.607   7.064  0.2543  2.0172  1.9064
  172SOPE   C3419495   1.395   2.645   7.209 -0.1271 -0.5127  0.4917
  172SOPE   H4X19496   1.407   2.543   7.249  1.2878 -0.2527  0.8110
  172SOPE   H4Y19497   1.291   2.682   7.207 -0.1736 -0.6177 -1.8096
  172SOPE   C3519498   1.485   2.724   7.298  0.0087  0.2274  0.2321
  172SOPE   H5X19499   1.476   2.831   7.268 -1.2755 -0.0877 -0.5996
  172SOPE   H5Y19500   1.592   2.695   7.284  0.3480  0.8367  1.4178
  172SOPE   C3619501   1.448   2.718   7.446  0.1902 -0.2570  0.1986
  172SOPE   H6X19502   1.492   2.804   7.502  1.1502 -0.6886  0.1203
  172SOPE   H6Y19503   1.490   2.633   7.504 -2.3321 -2.7617 -1.4340
  172SOPE   C3719504   1.295   2.713   7.470 -0.2996  0.5372  0.9271
  172SOPE   H7X19505   1.265   2.608   7.452 -1.7326  1.2643 -1.3567
  172SOPE   H7Y19506   1.240   2.772   7.394 -0.8493 -1.0320  0.0722
  172SOPE   C3819507   1.256   2.768   7.604  0.0768 -0.6220  0.2366
  172SOPE   H8X19508   1.277   2.877   7.604  1.1443 -0.7993  1.6272
  172SOPE   H8Y19509   1.313   2.718   7.686 -0.7930  0.2976  1.4363
  172SOPE   C3919510   1.108   2.749   7.623 -0.0363  0.4488 -0.3773
  172SOPE   H9X19511   1.080   2.644   7.598 -0.4684  0.7916 -1.4090
  172SOPE   H9Y19512   1.053   2.809   7.547 -0.3976  0.3324 -0.2116
  172SOPE  C31019513   1.058   2.766   7.763  0.1729  0.4573 -0.1266
  172SOPE  H10X19514   1.065   2.869   7.803 -3.4637  0.4678  0.8212
  172SOPE  H10Y19515   1.126   2.709   7.829  1.8206  2.5236  0.0489
  172SOPE  C31119516   0.905   2.724   7.774 -0.0193  0.4714 -0.1786
  172SOPE  H11X19517   0.847   2.787   7.702 -1.3315  0.6182  0.9620
  172SOPE  H11Y19518   0.871   2.743   7.878 -1.0179 -1.0174 -0.2046
  172SOPE  C31219519   0.867   2.577   7.747 -1.0536 -0.4283  0.5692
  172SOPE  H12X19520   0.933   2.507   7.803 -1.9452 -2.6122 -0.9659
  172SOPE  H12Y19521   0.873   2.551   7.640  0.6597  0.5936  0.3703
  172SOPE  C31319522   0.723   2.545   7.799  0.6069 -0.3683  0.0837
  172SOPE  H13X19523   0.685   2.454   7.747 -1.3696  0.2348  0.3719
  172SOPE  H13Y19524   0.667   2.636   7.770 -0.8118 -1.2612 -0.0930
  172SOPE  C31419525   0.710   2.530   7.958 -0.5073  0.4099  0.0242
  172SOPE  H14X19526   0.613   2.578   7.984 -2.8446 -2.5581 -2.3642
  172SOPE  H14Y19527   0.794   2.582   8.008  0.7274 -0.6352 -0.8756
  172SOPE  C31519528   0.703   2.381   7.998 -0.6080 -0.1025 -0.3127
  172SOPE  H15X19529   0.781   2.331   7.938 -0.1600 -0.0869  0.2436
  172SOPE  H15Y19530   0.604   2.337   7.972 -1.5279  0.6649  1.6248
  172SOPE  C31619531   0.743   2.338   8.146  0.4891  0.0080  0.8523
  172SOPE  H16X19532   0.852   2.361   8.155  0.6453 -0.9533  1.5776
  172SOPE  H16Y19533   0.735   2.228   8.157  1.0835 -0.2680 -1.0128
  172SOPE  C31719534   0.650   2.418   8.244  0.5030  0.7745  0.5864
  172SOPE  H17X19535   0.544   2.411   8.213  0.7531 -0.4500 -0.0683
  172SOPE  H17Y19536   0.683   2.524   8.242  2.8266  0.0963  0.0685
  172SOPE  C31819537   0.642   2.370   8.384 -0.2304  0.0612  0.2057
  172SOPE  H18X19538   0.635   2.260   8.395  0.8353  0.0238  0.6388
  172SOPE  H18Y19539   0.551   2.416   8.429  0.8841  0.0196  2.7077
  172SOPE  H18Z19540   0.725   2.406   8.450  1.0178 -0.6998 -0.8980
  173SAPI   C1219541   2.135   3.255  10.998  0.2769 -0.2680 -0.1184
  173SAPI    H219542   2.081   3.351  11.012 -2.6086 -0.5922 -5.9227
  173SAPI    O219543   2.280   3.281  11.001  0.6701  0.0436 -0.3680
  173SAPI   HO219544   2.302   3.337  10.926  1.4653  0.4317  0.1428
  173SAPI   C1319545   2.106   3.158  11.116  0.1733  1.2677  0.6125
  173SAPI    H319546   2.000   3.129  11.099  1.4549 -2.7598 -1.8963
  173SAPI    O319547   2.122   3.221  11.249 -0.2206  0.1476  0.8044
  173SAPI   HO319548   2.108   3.152  11.315 -1.3487 -1.3821 -0.9497
  173SAPI   C1419549   2.192   3.037  11.105 -0.6217  0.0533  0.9342
  173SAPI    H419550   2.300   3.064  11.099  0.0385 -2.5325 -0.5059
  173SAPI    O419551   2.185   2.957  11.226  0.7634  0.2297  0.2019
  173SAPI   HO419552   2.219   2.870  11.204 -0.7087 -0.4127  0.3639
  173SAPI   C1519553   2.142   2.968  10.981 -0.3597 -0.2623 -0.0494
  173SAPI    H519554   2.036   2.944  11.001 -0.5733  2.0858  2.3007
  173SAPI    O519555   2.218   2.843  10.970 -0.3344 -0.3227  1.1027
  173SAPI   HO519556   2.309   2.867  10.948 -1.1362  0.6739 -1.6095
  173SAPI   C1619557   2.154   3.056  10.863 -1.3865  0.0079 -0.2454
  173SAPI    H619558   2.262   3.078  10.852 -0.6075 -2.2620  2.0715
  173SAPI    O619559   2.128   2.987  10.745  0.7968  0.3660  0.2572
  173SAPI   HO619560   2.200   2.984  10.682  0.9966 -0.4240  0.5140
  173SAPI   C1119561   2.088   3.194  10.864 -0.1033 -0.0903 -0.8387
  173SAPI    H119562   1.981   3.165  10.870 -0.2039  0.4436  0.3190
  173SAPI     P19563   2.024   3.399  10.712 -0.0513 -0.1927  0.4041
  173SAPI   O1319564   2.094   3.495  10.621  0.1375 -0.0030 -0.0672
  173SAPI   O1419565   1.966   3.469  10.830  0.5131  0.1644  0.0815
  173SAPI   O1219566   2.129   3.282  10.765  0.6166  0.2123 -0.5917
  173SAPI   O1119567   1.918   3.324  10.633  0.2408  0.7504  0.0199
  173SAPI    C119568   1.951   3.240  10.524 -0.0775  0.5495 -0.1692
  173SAPI    HA19569   2.054   3.200  10.520 -0.6785 -1.1803  0.5646
  173SAPI    HB19570   1.882   3.153  10.536 -0.1559  0.9020  2.4792
  173SAPI    C219571   1.908   3.289  10.383 -0.0638 -0.9718 -0.0025
  173SAPI    HS19572   1.994   3.349  10.346 -0.0516  1.2390  3.2284
  173SAPI   O2119573   1.794   3.370  10.386  0.2393 -0.1683  0.1970
  173SAPI   C2119574   1.808   3.500  10.384  0.0257 -0.8583  0.5652
  173SAPI   O2219575   1.903   3.573  10.406 -0.1514  0.1608 -0.2686
  173SAPI   C2219576   1.672   3.556  10.350 -0.2711 -0.3731 -0.5393
  173SAPI   H2R19577   1.650   3.502  10.255 -4.9669 -0.2688  0.2492
  173SAPI   H2S19578   1.593   3.518  10.418 -1.0048 -0.8513 -1.6231
  173SAPI    C319579   1.887   3.169  10.282  0.2855  0.3813 -0.0474
  173SAPI    HX19580   1.780   3.141  10.287  0.2132  0.5595 -0.5092
  173SAPI    HY19581   1.957   3.094  10.324  0.9070  0.4840 -0.8639
  173SAPI   O3119582   1.918   3.204  10.143 -0.1540 -0.0160 -0.6858
  173SAPI   C3119583   2.048   3.186  10.108  0.6325  0.1617 -0.1720
  173SAPI   O3219584   2.130   3.140  10.180 -0.4080 -0.0246  0.0746
  173SAPI   C3219585   2.073   3.261   9.978  0.5051 -0.0407 -0.0297
  173SAPI   H2X19586   2.073   3.369  10.000 -1.6221 -0.1372  0.7192
  173SAPI   H2Y19587   1.989   3.240   9.908  0.1558 -0.8070  0.5945
  173SAPI   C2319588   1.658   3.709  10.334 -0.2690 -0.0013  0.3674
  173SAPI   H3R19589   1.759   3.735  10.296 -0.6112  0.7572 -0.0377
  173SAPI   H3S19590   1.631   3.756  10.430 -3.8110  0.4741 -0.6968
  173SAPI   C2419591   1.548   3.751  10.237 -0.5940 -0.0435  0.4976
  173SAPI   H4R19592   1.574   3.708  10.138 -1.3154  0.7511 -0.0563
  173SAPI   H4S19593   1.552   3.859  10.213 -0.4409 -0.3334 -0.8564
  173SAPI   C2519594   1.407   3.711  10.271  0.7113 -0.0700  0.1119
  173SAPI   H5R19595   1.379   3.605  10.263 -0.9261  0.1995  1.7519
  173SAPI   C2619596   1.311   3.797  10.311  0.0339  0.9403  0.5422
  173SAPI   H6R19597   1.223   3.747  10.354  0.6046  0.1673  0.8381
  173SAPI   C2719598   1.330   3.940  10.325 -0.7947  0.4895  0.6648
  173SAPI   H7R19599   1.336   3.992  10.227 -0.0849  1.0162  0.9800
  173SAPI   H7S19600   1.420   3.955  10.388 -1.2722  2.6464  0.9226
  173SAPI   C2819601   1.222   3.990  10.414  0.0338 -0.2307 -0.1639
  173SAPI   H8R19602   1.182   3.920  10.489  0.0121 -1.3720 -1.2035
  173SAPI   C2919603   1.202   4.121  10.438  0.3984 -0.0667 -0.6180
  173SAPI   H9R19604   1.121   4.148  10.508  0.6202  0.4801 -0.5634
  173SAPI  C21019605   1.267   4.242  10.369 -0.2494 -0.0581  0.5009
  173SAPI  H10R19606   1.274   4.229  10.259  0.4002  1.3230  0.3678
  173SAPI  H10S19607   1.373   4.237  10.399  0.4851  1.0139 -1.6929
  173SAPI  C21119608   1.208   4.379  10.411 -0.3187 -0.2848 -0.1219
  173SAPI  H11R19609   1.184   4.395  10.517 -0.6778  2.8881 -0.5697
  173SAPI  C21219610   1.173   4.476  10.327 -0.1089  0.4948  0.0767
  173SAPI  H12R19611   1.137   4.568  10.376  2.2659  1.7008 -0.2846
  173SAPI  C21319612   1.184   4.475  10.177 -0.0230  0.5562  0.1775
  173SAPI  H13R19613   1.174   4.372  10.139  1.4545  0.6464 -0.5180
  173SAPI  H13S19614   1.288   4.501  10.146 -0.5048 -0.0062 -2.0603
  173SAPI  C21419615   1.089   4.565  10.103 -0.5377 -0.3222  0.1608
  173SAPI  H14R19616   1.001   4.610  10.152  0.2935  0.0859  1.3135
  173SAPI  C21519617   1.098   4.582   9.973 -0.3500 -0.4711  1.2859
  173SAPI  H15R19618   1.019   4.640   9.924  0.2773 -0.6769 -0.0047
  173SAPI  C21619619   1.194   4.527   9.875 -2.1243 -0.4311  0.4146
  173SAPI  H16R19620   1.232   4.427   9.907 -1.3078 -0.5591 -0.8618
  173SAPI  H16S19621   1.278   4.595   9.851 -1.4692 -0.7857  1.6328
  173SAPI  C21719622   1.131   4.499   9.735  0.1700 -1.4457 -0.0077
  173SAPI  H17R19623   1.089   4.598   9.706 -0.6454 -1.8202 -0.1494
  173SAPI  H17S19624   1.049   4.424   9.736 -0.9713 -0.2461  0.8505
  173SAPI  C21819625   1.241   4.474   9.627 -0.4569 -0.1572 -0.0879
  173SAPI  H18R19626   1.284   4.373   9.642  0.8831  0.3211 -0.5450
  173SAPI  H18S19627   1.318   4.553   9.637  0.5911 -0.9907 -1.2071
  173SAPI  C21919628   1.176   4.477   9.490 -0.4111 -0.3842 -0.6106
  173SAPI  H19R19629   1.126   4.576   9.485 -1.0398 -0.3802  3.0478
  173SAPI  H19S19630   1.089   4.408   9.484 -0.2566 -0.5650 -0.7857
  173SAPI  C22019631   1.275   4.465   9.368  0.1342  0.5991  0.4078
  173SAPI  H20R19632   1.213   4.480   9.277 -1.9907 -3.0110  1.0616
  173SAPI  H20S19633   1.326   4.367   9.361 -2.5194 -0.7608 -3.7301
  173SAPI  H20T19634   1.345   4.550   9.378  0.0570  0.5646  1.3353
  173SAPI   C3319635   2.213   3.220   9.913 -0.7527  1.1791 -0.0388
  173SAPI   H3X19636   2.203   3.110   9.898 -1.3978  1.0759  1.0323
  173SAPI   H3Y19637   2.294   3.256   9.980  0.0929  0.9943 -0.9348
  173SAPI   C3419638   2.228   3.291   9.786  0.0608 -0.3276 -0.2831
  173SAPI   H4X19639   2.244   3.401   9.795 -2.1158 -0.0340  0.6246
  173SAPI   H4Y19640   2.139   3.290   9.719 -1.1265  0.6339  1.2061
  173SAPI   C3519641   2.341   3.237   9.695 -0.2480 -0.5231  0.2275
  173SAPI   H5X19642   2.340   3.126   9.694 -1.0374 -0.5255 -0.3786
  173SAPI   H5Y19643   2.441   3.276   9.723 -1.7256  1.8250  2.7229
  173SAPI   C3619644   2.320   3.287   9.545 -0.5508 -0.4693  0.0768
  173SAPI   H6X19645   2.324   3.398   9.546 -0.1129 -0.4832  0.6462
  173SAPI   H6Y19646   2.214   3.258   9.527 -0.1311 -3.6200  1.8779
  173SAPI   C3719647   2.407   3.218   9.444  0.4601 -0.0277 -0.8813
  173SAPI   H7X19648   2.428   3.109   9.457  2.2783  0.2295 -1.3772
  173SAPI   H7Y19649   2.509   3.264   9.445  0.1826  0.6039 -1.2289
  173SAPI   C3819650   2.355   3.226   9.298 -0.2221  0.3208  0.6921
  173SAPI   H8X19651   2.349   3.333   9.269  0.2342  0.5138  1.2858
  173SAPI   H8Y19652   2.256   3.182   9.275 -1.0075  2.6949 -0.7392
  173SAPI   C3919653   2.450   3.167   9.195 -0.4783 -0.3066  0.4500
  173SAPI   H9X19654   2.488   3.081   9.254  3.6074  0.7424 -0.3078
  173SAPI   H9Y19655   2.538   3.232   9.176 -0.1709 -0.1272  2.3309
  173SAPI  C31019656   2.382   3.121   9.064 -0.5501  0.4459  0.1635
  173SAPI  H10X19657   2.299   3.054   9.094 -0.9573  0.2180 -1.3922
  173SAPI  H10Y19658   2.459   3.066   9.006  0.9192 -0.2737  2.6437
  173SAPI  C31119659   2.339   3.232   8.974  0.5695 -0.4743  0.2069
  173SAPI  H11X19660   2.424   3.278   8.918  0.4276  1.9159  1.8070
  173SAPI  H11Y19661   2.299   3.312   9.040 -1.1524 -0.1059 -1.2138
  173SAPI  C31219662   2.230   3.195   8.869 -0.0780 -0.2766 -0.1411
  173SAPI  H12X19663   2.131   3.164   8.909 -0.5488  1.8923  0.5227
  173SAPI  H12Y19664   2.267   3.111   8.806 -0.5253 -0.4110 -0.2271
  173SAPI  C31319665   2.201   3.313   8.773 -0.4887 -0.4608  0.3471
  173SAPI  H13X19666   2.246   3.409   8.808 -0.4753 -0.6948  0.9782
  173SAPI  H13Y19667   2.092   3.332   8.776 -0.4130 -0.0471  0.5735
  173SAPI  C31419668   2.227   3.283   8.627 -0.6625  0.3805  0.7132
  173SAPI  H14X19669   2.153   3.215   8.580 -0.1192  0.8232 -0.8430
  173SAPI  H14Y19670   2.317   3.219   8.622 -1.0815 -0.2119  0.6943
  173SAPI  C31519671   2.234   3.403   8.531 -0.0244 -0.3337  1.0938
  173SAPI  H15X19672   2.304   3.474   8.580  0.8041 -2.2355  2.8020
  173SAPI  H15Y19673   2.137   3.456   8.519  1.3199  1.7563 -1.6596
  173SAPI  C31619674   2.301   3.376   8.396  0.9175 -0.9331 -0.0022
  173SAPI  H16X19675   2.241   3.298   8.346 -0.8586 -0.0059  0.5769
  173SAPI  H16Y19676   2.402   3.331   8.409  0.6362 -1.0828  1.9825
  173SAPI  C31719677   2.315   3.504   8.315 -0.9165  0.1512  0.6712
  173SAPI  H17X19678   2.370   3.575   8.380  3.5627  1.3181 -3.6915
  173SAPI  H17Y19679   2.212   3.530   8.281 -0.8960 -1.2979 -0.6229
  173SAPI  C31819680   2.404   3.492   8.197  0.7375 -0.4098  0.3009
  173SAPI  H18X19681   2.410   3.588   8.142 -1.1164 -0.1413  0.4936
  173SAPI  H18Y19682   2.357   3.408   8.141  0.4374  0.6574 -1.0843
  173SAPI  H18Z19683   2.509   3.470   8.226  2.2044  1.3476 -3.1836
  174SAPI   C1219684   5.176   3.048  10.749  0.0672  0.1328  0.9266
  174SAPI    H219685   5.232   2.970  10.694 -0.7154 -0.4492  0.9453
  174SAPI    O219686   5.224   3.175  10.718 -0.4288 -0.3002  0.6156
  174SAPI   HO219687   5.300   3.189  10.775  0.1109  0.1248 -0.1761
  174SAPI   C1319688   5.025   3.028  10.714 -0.1076 -0.4164 -0.1637
  174SAPI    H319689   5.003   2.920  10.722 -1.2749 -0.1924 -0.2570
  174SAPI    O319690   4.996   3.054  10.579  0.1469 -0.6649 -0.2400
  174SAPI   HO319691   4.920   3.011  10.540  0.5180 -2.3542  0.7969
  174SAPI   C1419692   4.948   3.124  10.804  0.3686 -1.0200 -0.0946
  174SAPI    H419693   4.976   3.227  10.776 -0.5504 -0.9385 -0.7599
  174SAPI    O419694   4.804   3.119  10.780  0.0028  0.1002 -0.3519
  174SAPI   HO419695   4.770   3.205  10.751 -4.0165 -1.7956 -2.0973
  174SAPI   C1519696   4.986   3.105  10.956  0.1586 -0.6042  0.2627
  174SAPI    H519697   4.934   3.013  10.992 -1.1377  0.3683  1.0028
  174SAPI    O519698   4.921   3.207  11.031 -0.0040  0.5511  0.3711
  174SAPI   HO519699   4.917   3.181  11.124  0.3560 -0.9553 -0.0051
  174SAPI   C1619700   5.137   3.116  10.983  0.2771 -0.2827 -0.1341
  174SAPI    H619701   5.161   3.221  10.954 -3.5526  0.9935  0.7521
  174SAPI    O619702   5.160   3.106  11.125 -0.1643  0.6008 -0.3877
  174SAPI   HO619703   5.160   3.192  11.169  2.7430  0.2846  0.4234
  174SAPI   C1119704   5.210   3.019  10.896  0.0169  0.1104 -0.3609
  174SAPI    H119705   5.175   2.915  10.915  0.5934  0.2749  1.8075
  174SAPI     P19706   5.439   2.883  10.899  0.0335 -0.3456  0.1397
  174SAPI   O1319707   5.354   2.772  10.948 -0.2457  0.0448 -0.6925
  174SAPI   O1419708   5.582   2.897  10.946 -0.5876  0.4110  0.0355
  174SAPI   O1219709   5.354   3.027  10.921  0.4744  0.0512 -0.6425
  174SAPI   O1119710   5.446   2.873  10.745 -1.0672 -0.0348 -0.1133
  174SAPI    C119711   5.547   2.810  10.664 -0.0434 -0.3882 -0.9039
  174SAPI    HA19712   5.590   2.725  10.721  0.6085  0.5947  0.1052
  174SAPI    HB19713   5.499   2.761  10.576 -2.1168 -3.7800  1.8656
  174SAPI    C219714   5.660   2.907  10.618 -0.7554 -0.6524 -0.2947
  174SAPI    HS19715   5.720   2.949  10.702 -1.1710  1.6412 -1.0703
  174SAPI   O2119716   5.617   3.024  10.537 -0.1629 -0.3090  0.4507
  174SAPI   C2119717   5.574   3.132  10.595 -0.0227  0.8920  0.0890
  174SAPI   O2219718   5.588   3.159  10.715  0.1031  0.6493  0.2334
  174SAPI   C2219719   5.509   3.228  10.497  0.4701  0.0325  0.6825
  174SAPI   H2R19720   5.423   3.170  10.458  0.0335  0.5340  0.8855
  174SAPI   H2S19721   5.470   3.322  10.542  1.0608 -0.2645  1.8610
  174SAPI    C319722   5.767   2.826  10.536 -0.6311  0.3433 -0.6791
  174SAPI    HX19723   5.717   2.790  10.444  0.2698 -0.5041 -0.8472
  174SAPI    HY19724   5.796   2.733  10.589 -0.9305  0.0300 -1.0599
  174SAPI   O3119725   5.890   2.907  10.520 -0.3068 -0.1785  0.6755
  174SAPI   C3119726   5.889   2.964  10.390  0.1506  0.3477 -0.0047
  174SAPI   O3219727   5.802   2.954  10.307  0.4082  0.0406  0.3859
  174SAPI   C3219728   6.018   3.036  10.381 -0.2573 -0.0901  0.0418
  174SAPI   H2X19729   6.094   2.971  10.429  0.4816  0.2651 -0.6414
  174SAPI   H2Y19730   6.008   3.135  10.431  3.2071 -0.2078  1.2206
  174SAPI   C2319731   5.599   3.281  10.388 -0.3614 -0.0278  0.5005
  174SAPI   H3R19732   5.628   3.192  10.328  1.5924  0.3941  0.7607
  174SAPI   H3S19733   5.696   3.321  10.424 -0.8246  2.2241 -0.5733
  174SAPI   C2419734   5.534   3.377  10.288 -0.3336  1.0150 -0.1096
  174SAPI   H4R19735   5.607   3.430  10.222 -1.8744  2.3673 -0.7775
  174SAPI   H4S19736   5.495   3.455  10.356 -2.3359  0.5291 -0.6321
  174SAPI   C2519737   5.418   3.337  10.203  0.4090  0.2844  0.1897
  174SAPI   H5R19738   5.325   3.332  10.261 -0.1379  0.0996 -0.6825
  174SAPI   C2619739   5.410   3.302  10.065  0.0429 -0.1576 -0.6730
  174SAPI   H6R19740   5.310   3.273  10.028 -0.1565 -1.7432  0.9529
  174SAPI   C2719741   5.522   3.315   9.970  0.3945 -0.4508 -0.6016
  174SAPI   H7R19742   5.570   3.414   9.985  1.4312 -1.2927  2.3562
  174SAPI   H7S19743   5.477   3.321   9.869 -1.1186 -0.0114  0.0717
  174SAPI   C2819744   5.633   3.218   9.987 -0.2155  0.6028 -0.0983
  174SAPI   H8R19745   5.681   3.214  10.086  1.0024  0.0636 -0.6883
  174SAPI   C2919746   5.694   3.143   9.886  0.8543  0.1737  0.2036
  174SAPI   H9R19747   5.773   3.070   9.908 -0.6536 -1.8836 -0.8791
  174SAPI  C21019748   5.650   3.136   9.741  0.8360 -0.0882 -1.0862
  174SAPI  H10R19749   5.588   3.227   9.724 -1.2029 -0.2547  3.7251
  174SAPI  H10S19750   5.586   3.046   9.728  0.4012 -0.2497  1.5339
  174SAPI  C21119751   5.759   3.142   9.641 -0.2355 -0.3400 -0.4368
  174SAPI  H11R19752   5.783   3.244   9.608 -1.4875 -0.1552 -0.8359
  174SAPI  C21219753   5.824   3.035   9.593 -0.1191  0.7046 -0.7243
  174SAPI  H12R19754   5.918   3.058   9.541  0.3075 -1.0557 -0.7847
  174SAPI  C21319755   5.803   2.890   9.635 -0.2974 -0.1984 -0.5554
  174SAPI  H13R19756   5.807   2.873   9.745 -0.1411  3.0861  0.0530
  174SAPI  H13S19757   5.887   2.833   9.590  0.0387  0.1473 -0.3668
  174SAPI  C21419758   5.679   2.825   9.574 -0.6223  0.7229 -0.1047
  174SAPI  H14R19759   5.585   2.856   9.622 -1.1082 -1.1963  0.2818
  174SAPI  C21519760   5.668   2.758   9.460 -0.3898  0.6100  0.5863
  174SAPI  H15R19761   5.570   2.720   9.427 -0.9554  1.9887  0.6334
  174SAPI  C21619762   5.780   2.726   9.365  0.2690  0.8074  0.0818
  174SAPI  H16R19763   5.775   2.619   9.337  0.8359  0.6730  0.4802
  174SAPI  H16S19764   5.881   2.740   9.410  0.2396 -0.1862  0.4891
  174SAPI  C21719765   5.782   2.817   9.234  0.4468 -0.1822  0.7583
  174SAPI  H17R19766   5.772   2.919   9.278 -2.6559 -1.2888  2.9602
  174SAPI  H17S19767   5.695   2.810   9.164  0.2377 -1.0140  1.0902
  174SAPI  C21819768   5.912   2.814   9.143  0.9105  0.1310 -0.3098
  174SAPI  H18R19769   5.995   2.822   9.217 -0.4784 -0.4673  1.3719
  174SAPI  H18S19770   5.912   2.900   9.073 -2.4137 -0.9827 -1.8589
  174SAPI  C21919771   5.919   2.685   9.064 -0.4509 -0.3482 -0.0655
  174SAPI  H19R19772   5.843   2.690   8.984  1.9528  0.7929 -2.4322
  174SAPI  H19S19773   5.893   2.605   9.136 -1.9187  0.0473 -0.1352
  174SAPI  C22019774   6.051   2.669   8.980  0.6841  0.9512 -0.7411
  174SAPI  H20R19775   6.137   2.653   9.050  0.0153 -1.3633 -0.3580
  174SAPI  H20S19776   6.069   2.758   8.916 -0.4839  1.4575 -0.3785
  174SAPI  H20T19777   6.046   2.577   8.918 -0.6815  0.9800 -0.6902
  174SAPI   C3319778   6.070   3.047  10.234  0.3730  0.1169  0.0877
  174SAPI   H3X19779   6.068   2.950  10.180  0.7260 -1.1289  2.1937
  174SAPI   H3Y19780   6.180   3.061  10.243  0.4874 -1.4234  1.6442
  174SAPI   C3419781   6.008   3.162  10.150 -0.6387  0.2995 -0.1975
  174SAPI   H4X19782   5.956   3.225  10.225 -0.2015 -0.5579  0.8592
  174SAPI   H4Y19783   5.941   3.126  10.069 -0.5578  1.8855 -1.0148
  174SAPI   C3519784   6.118   3.239  10.070  0.4900  0.1891 -0.6414
  174SAPI   H5X19785   6.177   3.175  10.001  0.7131 -0.6769  0.3234
  174SAPI   H5Y19786   6.186   3.283  10.146 -0.4477 -1.8508  1.5224
  174SAPI   C3619787   6.051   3.341   9.983 -0.4358 -1.2261 -0.1323
  174SAPI   H6X19788   6.003   3.422  10.042  2.4584  0.4136  0.1831
  174SAPI   H6Y19789   5.983   3.289   9.913  0.1596 -0.4219 -1.3350
  174SAPI   C3719790   6.142   3.430   9.891 -0.1492  0.4850  0.6826
  174SAPI   H7X19791   6.231   3.464   9.950 -0.2031 -0.4008  1.2996
  174SAPI   H7Y19792   6.089   3.522   9.858 -0.7846 -0.7852 -2.0998
  174SAPI   C3819793   6.195   3.356   9.773 -0.0294  0.5789 -0.5432
  174SAPI   H8X19794   6.115   3.300   9.720  1.2615 -0.7713 -1.1228
  174SAPI   H8Y19795   6.267   3.283   9.816  0.3289  1.6557  0.7222
  174SAPI   C3919796   6.258   3.454   9.671 -0.3716 -0.0634 -0.4312
  174SAPI   H9X19797   6.358   3.415   9.643 -0.1084  0.0143  0.3614
  174SAPI   H9Y19798   6.266   3.553   9.722  0.5339 -0.3695  0.0380
  174SAPI  C31019799   6.169   3.475   9.550  0.8966 -0.4628 -0.4539
  174SAPI  H10X19800   6.087   3.543   9.580  0.2207 -2.2839  2.2190
  174SAPI  H10Y19801   6.124   3.384   9.507 -1.3574  0.3192  0.1064
  174SAPI  C31119802   6.263   3.527   9.441 -0.1122  0.0656  0.0216
  174SAPI  H11X19803   6.346   3.459   9.415 -0.0569  0.0503  0.2334
  174SAPI  H11Y19804   6.313   3.611   9.493  4.4146 -2.8595  0.9220
  174SAPI  C31219805   6.197   3.570   9.308  0.5676  0.0429 -0.0311
  174SAPI  H12X19806   6.123   3.651   9.330  0.8839 -0.7462  5.0215
  174SAPI  H12Y19807   6.144   3.481   9.270 -1.3959  0.2978  1.8975
  174SAPI  C31319808   6.304   3.613   9.201 -0.3835  0.9419 -0.9123
  174SAPI  H13X19809   6.401   3.559   9.209 -1.7050 -1.6266 -1.1332
  174SAPI  H13Y19810   6.334   3.714   9.236  0.6626  0.1827  0.5224
  174SAPI  C31419811   6.264   3.612   9.056 -0.2120 -0.2474  0.8583
  174SAPI  H14X19812   6.165   3.661   9.045  1.6525  4.3479  2.0447
  174SAPI  H14Y19813   6.254   3.512   9.008  1.8186  0.4408 -1.2499
  174SAPI  C31519814   6.360   3.685   8.958  0.4612 -0.3704  0.0773
  174SAPI  H15X19815   6.463   3.645   8.953 -0.4862 -3.0402 -0.1522
  174SAPI  H15Y19816   6.378   3.786   8.999 -0.4726 -0.1349 -0.0692
  174SAPI  C31619817   6.297   3.683   8.812  0.0513  0.8447 -0.0005
  174SAPI  H16X19818   6.197   3.732   8.812 -0.7482 -0.7058 -1.0921
  174SAPI  H16Y19819   6.289   3.578   8.776  0.7535  1.2337 -1.3717
  174SAPI  C31719820   6.396   3.754   8.721  0.5605  0.4230  1.0735
  174SAPI  H17X19821   6.432   3.848   8.768  1.4012  0.2235  0.8527
  174SAPI  H17Y19822   6.338   3.792   8.635  1.4014 -1.4758 -0.4094
  174SAPI  C31819823   6.508   3.665   8.676  0.4244 -0.2369  1.0584
  174SAPI  H18X19824   6.474   3.565   8.643  0.3224 -0.7878  2.7656
  174SAPI  H18Y19825   6.584   3.644   8.754  1.0935 -0.5593  0.3345
  174SAPI  H18Z19826   6.565   3.714   8.594 -0.2842 -1.1547 -0.0070
  175SAPI   C1219827   2.604   1.345   6.241  0.4432  0.1632 -0.2109
  175SAPI    H219828   2.642   1.363   6.138  1.0148  1.0080  0.1355
  175SAPI    O219829   2.541   1.464   6.289 -0.4390  0.1416 -0.0270
  175SAPI   HO219830   2.622   1.514   6.302  0.0459 -0.8118  0.6887
  175SAPI   C1319831   2.504   1.228   6.233  0.0864  0.0472 -0.6866
  175SAPI    H319832   2.558   1.140   6.190 -1.3367 -1.7017  0.9259
  175SAPI    O319833   2.390   1.248   6.151  0.0111  0.1265 -0.6531
  175SAPI   HO319834   2.390   1.168   6.098 -1.7760 -0.3114 -0.0754
  175SAPI   C1419835   2.463   1.184   6.379 -0.1515  1.0222  0.1045
  175SAPI    H419836   2.411   1.264   6.436 -1.4398 -0.7448  1.5629
  175SAPI    O419837   2.357   1.083   6.382 -0.2057  0.8902  0.1053
  175SAPI   HO419838   2.375   1.002   6.335  1.4531 -0.3631  2.6434
  175SAPI   C1519839   2.588   1.142   6.467 -0.2202  0.2144 -0.0424
  175SAPI    H519840   2.629   1.053   6.414 -1.6519 -0.8647  0.5713
  175SAPI    O519841   2.552   1.095   6.597 -0.5247  0.8698  0.6955
  175SAPI   HO519842   2.583   1.005   6.602 -2.5867 -0.2429 -2.9609
  175SAPI   C1619843   2.689   1.261   6.469 -0.0856 -1.1253 -0.3143
  175SAPI    H619844   2.635   1.345   6.520  1.5699 -0.8475  1.0581
  175SAPI    O619845   2.804   1.244   6.550 -0.5283  0.5799  0.5202
  175SAPI   HO619846   2.874   1.308   6.532 -0.6512  1.1154  1.8063
  175SAPI   C1119847   2.720   1.303   6.327 -0.0591 -0.5467  0.2498
  175SAPI    H119848   2.765   1.209   6.287 -0.6730 -0.0301 -1.7624
  175SAPI     P19849   2.967   1.420   6.296 -0.3076  0.0762 -0.3600
  175SAPI   O1319850   3.017   1.553   6.257  0.5065 -0.5829  0.3350
  175SAPI   O1419851   2.996   1.316   6.197 -0.0494  0.6872 -0.3428
  175SAPI   O1219852   2.809   1.417   6.326  0.4497 -0.0242  0.1351
  175SAPI   O1119853   3.028   1.386   6.435 -0.3334  0.2068  0.2237
  175SAPI    C119854   3.115   1.498   6.490 -0.9741  0.6730  0.2587
  175SAPI    HA19855   3.209   1.506   6.432 -0.9268 -1.9012 -0.1370
  175SAPI    HB19856   3.066   1.598   6.491 -1.7851  0.3141 -0.8600
  175SAPI    C219857   3.164   1.469   6.633  0.0402 -0.0693 -0.1615
  175SAPI    HS19858   3.240   1.390   6.615 -0.4307 -0.0418 -2.7758
  175SAPI   O2119859   3.045   1.444   6.716  0.2495 -0.2607  0.0279
  175SAPI   C2119860   3.059   1.331   6.787 -0.3131 -0.0827  1.0919
  175SAPI   O2219861   3.153   1.255   6.787 -0.3911 -0.8704  0.6652
  175SAPI   C2219862   2.930   1.300   6.864 -0.3192  0.1265  0.0415
  175SAPI   H2R19863   2.869   1.392   6.858 -1.0455 -0.4282 -1.6041
  175SAPI   H2S19864   2.884   1.208   6.822  0.0570 -0.1071  0.1340
  175SAPI    C319865   3.239   1.593   6.679 -0.2168 -0.6588 -0.0440
  175SAPI    HX19866   3.159   1.669   6.688 -0.3343 -0.9503  1.6448
  175SAPI    HY19867   3.315   1.623   6.604 -0.0748  3.9029  1.6326
  175SAPI   O3119868   3.311   1.573   6.799  0.2951  0.1074  0.0856
  175SAPI   C3119869   3.430   1.517   6.798 -0.0629  0.1502 -0.5019
  175SAPI   O3219870   3.495   1.486   6.699  0.2215 -0.0317  0.3065
  175SAPI   C3219871   3.481   1.505   6.944  0.2368 -0.0660 -0.0040
  175SAPI   H2X19872   3.397   1.499   7.016  0.8899  2.1098  1.0088
  175SAPI   H2Y19873   3.517   1.608   6.965 -1.9275  0.9195 -0.7814
  175SAPI   C2319874   2.957   1.277   7.014 -0.0829 -0.0071  0.2222
  175SAPI   H3R19875   3.055   1.313   7.052  0.7326 -0.7320 -1.0911
  175SAPI   H3S19876   2.950   1.168   7.033 -0.3299 -0.4735 -2.1995
  175SAPI   C2419877   2.848   1.340   7.107 -1.1371  0.1662  0.1160
  175SAPI   H4R19878   2.757   1.301   7.056 -0.7786  1.0367 -1.2391
  175SAPI   H4S19879   2.852   1.449   7.085 -0.1808 -0.4053 -2.9880
  175SAPI   C2519880   2.851   1.293   7.248  0.1395 -0.3702 -0.4910
  175SAPI   H5R19881   2.823   1.187   7.258 -1.9533  0.3321  2.4538
  175SAPI   C2619882   2.893   1.357   7.361 -0.2119  0.6075  0.5003
  175SAPI   H6R19883   2.890   1.293   7.451 -0.9060 -0.3528 -0.1836
  175SAPI   C2719884   2.968   1.485   7.372 -0.7793 -0.0166  0.3014
  175SAPI   H7R19885   2.898   1.572   7.367  0.6727  1.1930  0.2987
  175SAPI   H7S19886   3.025   1.504   7.278  0.6954  1.0061  1.3736
  175SAPI   C2819887   3.055   1.510   7.486  0.4665 -0.4832 -0.5594
  175SAPI   H8R19888   3.150   1.457   7.476 -0.5227 -2.6469  0.8009
  175SAPI   C2919889   3.034   1.576   7.599 -0.4007  0.3387  0.3285
  175SAPI   H9R19890   3.117   1.569   7.671  0.5886 -0.3214 -0.8502
  175SAPI  C21019891   2.902   1.636   7.647  0.0784 -0.0853  0.5571
  175SAPI  H10R19892   2.877   1.620   7.754  0.3837  0.1380  0.6641
  175SAPI  H10S19893   2.820   1.585   7.592  1.5660  0.1329 -2.0338
  175SAPI  C21119894   2.901   1.780   7.621  0.2988 -0.1072  0.4876
  175SAPI  H11R19895   2.942   1.804   7.522  1.7913 -1.8063  0.6460
  175SAPI  C21219896   2.851   1.871   7.707 -0.4932 -0.3723 -0.7172
  175SAPI  H12R19897   2.837   1.973   7.670 -2.3809  0.0898  1.1105
  175SAPI  C21319898   2.783   1.834   7.834 -0.1693 -0.5982  0.1417
  175SAPI  H13R19899   2.832   1.757   7.897 -0.8571  0.2045  1.7185
  175SAPI  H13S19900   2.692   1.783   7.794 -0.3845  0.8750 -1.3166
  175SAPI  C21419901   2.726   1.955   7.910 -0.6797  0.2725  0.1497
  175SAPI  H14R19902   2.643   2.010   7.863 -0.9888  0.5458  0.9965
  175SAPI  C21519903   2.760   1.998   8.029  0.3813  0.2694  0.4303
  175SAPI  H15R19904   2.698   2.082   8.064 -0.0686 -0.4634  1.4249
  175SAPI  C21619905   2.872   1.945   8.119 -0.1986  0.1767  0.3431
  175SAPI  H16R19906   2.957   2.017   8.117 -0.7551  0.8642 -2.5715
  175SAPI  H16S19907   2.910   1.845   8.091  1.4956  0.0479  2.7344
  175SAPI  C21719908   2.846   1.942   8.272  0.4876  0.8500 -0.5098
  175SAPI  H17R19909   2.810   2.041   8.306  2.5097  1.3262  0.3106
  175SAPI  H17S19910   2.936   1.922   8.333 -1.2740 -3.5525  1.0122
  175SAPI  C21819911   2.748   1.821   8.304 -0.1830  0.1373  0.9604
  175SAPI  H18R19912   2.815   1.732   8.295  0.9162  0.7968  2.2348
  175SAPI  H18S19913   2.663   1.824   8.233 -0.1553  1.5851  0.9721
  175SAPI  C21919914   2.689   1.834   8.447 -0.2517 -0.5314  0.1679
  175SAPI  H19R19915   2.773   1.845   8.519  0.2117  1.9608 -0.6462
  175SAPI  H19S19916   2.637   1.738   8.463  1.9010 -1.8813 -0.5194
  175SAPI  C22019917   2.595   1.955   8.477 -0.3440  0.8762  0.0104
  175SAPI  H20R19918   2.508   1.955   8.407  0.1132  0.8557 -0.5674
  175SAPI  H20S19919   2.658   2.044   8.456  0.3250  0.3905 -0.0591
  175SAPI  H20T19920   2.556   1.943   8.580  1.7693 -0.4112  0.6985
  175SAPI   C3319921   3.579   1.391   6.972  0.4364  0.3243 -0.5349
  175SAPI   H3X19922   3.646   1.412   7.058  0.2487  0.0796 -0.3262
  175SAPI   H3Y19923   3.643   1.367   6.884  1.2881  0.1940  0.1127
  175SAPI   C3419924   3.511   1.251   7.005  0.1007  0.3634  0.2013
  175SAPI   H4X19925   3.589   1.172   6.997 -0.2561 -0.1465  1.6029
  175SAPI   H4Y19926   3.437   1.244   6.922  0.3144  2.6740 -0.2667
  175SAPI   C3519927   3.435   1.248   7.137 -0.2457 -0.4548  0.4822
  175SAPI   H5X19928   3.339   1.303   7.135  0.1073  0.1747  0.3917
  175SAPI   H5Y19929   3.505   1.279   7.218  0.8642 -0.2377 -0.5165
  175SAPI   C3619930   3.390   1.108   7.177 -0.0601  0.6059 -0.1273
  175SAPI   H6X19931   3.466   1.027   7.185 -0.8013 -0.1220 -0.2615
  175SAPI   H6Y19932   3.328   1.074   7.091  1.2263  0.3958 -0.9925
  175SAPI   C3719933   3.292   1.099   7.296  0.1095  0.0115  0.3244
  175SAPI   H7X19934   3.257   0.993   7.298 -1.1117  0.4045  0.9683
  175SAPI   H7Y19935   3.204   1.165   7.286  0.9025  1.1912  0.9481
  175SAPI   C3819936   3.336   1.143   7.434  0.1640  0.4104  0.2553
  175SAPI   H8X19937   3.395   1.237   7.431  0.7326  0.1168  1.4147
  175SAPI   H8Y19938   3.402   1.068   7.483 -1.0098  0.2461  1.6555
  175SAPI   C3919939   3.207   1.157   7.520  0.1535  0.3248 -0.3093
  175SAPI   H9X19940   3.146   1.064   7.517 -0.7413  0.8344  1.1107
  175SAPI   H9Y19941   3.150   1.240   7.472 -0.3621  0.2806  0.2077
  175SAPI  C31019942   3.241   1.204   7.669 -0.2082  0.7447  0.2782
  175SAPI  H10X19943   3.296   1.300   7.660 -0.7013  0.8218 -2.7242
  175SAPI  H10Y19944   3.307   1.130   7.719  0.0925 -0.8189 -2.3012
  175SAPI  C31119945   3.119   1.228   7.755 -0.6723  0.2204 -0.0839
  175SAPI  H11X19946   3.098   1.134   7.810  2.9288 -0.5813  0.1857
  175SAPI  H11Y19947   3.030   1.261   7.697 -0.3094 -0.0049 -0.7839
  175SAPI  C31219948   3.155   1.333   7.863 -0.3540  0.6377 -0.6359
  175SAPI  H12X19949   3.213   1.421   7.827  2.1415 -0.9751 -0.8385
  175SAPI  H12Y19950   3.237   1.285   7.921 -2.0660 -2.5798 -0.6462
  175SAPI  C31319951   3.040   1.368   7.954 -0.3475 -0.4241  0.4413
  175SAPI  H13X19952   3.016   1.276   8.011  3.4900 -1.7477  0.2281
  175SAPI  H13Y19953   2.957   1.400   7.887 -1.3146  0.8273  2.1428
  175SAPI  C31419954   3.079   1.477   8.054  0.2360  0.5783  0.0815
  175SAPI  H14X19955   3.092   1.568   7.992 -1.8591  1.0487  0.2303
  175SAPI  H14Y19956   3.170   1.451   8.113  0.3145 -2.8052 -1.3194
  175SAPI  C31519957   2.961   1.509   8.150  0.4425 -0.6811  0.1358
  175SAPI  H15X19958   2.886   1.585   8.120 -1.5966 -3.0077 -0.9539
  175SAPI  H15Y19959   3.016   1.561   8.231  0.5942  0.6874 -0.8198
  175SAPI  C31619960   2.876   1.397   8.195  0.2990  0.4771 -0.1714
  175SAPI  H16X19961   2.946   1.313   8.216 -0.5142 -0.0140  0.7116
  175SAPI  H16Y19962   2.815   1.362   8.109  2.3470  1.5533 -2.1475
  175SAPI  C31719963   2.781   1.434   8.307  0.4973 -0.3274 -0.6818
  175SAPI  H17X19964   2.714   1.346   8.314  0.8516 -0.5959 -0.5897
  175SAPI  H17Y19965   2.725   1.521   8.267  3.6893  2.0617 -0.3275
  175SAPI  C31819966   2.834   1.464   8.449 -0.4418  0.1981 -0.1522
  175SAPI  H18X19967   2.748   1.488   8.515  0.3096  0.1314  0.8756
  175SAPI  H18Y19968   2.887   1.561   8.445 -2.9818  1.6690 -0.9964
  175SAPI  H18Z19969   2.906   1.394   8.496 -0.6990 -0.2728 -0.4443
  176SAPI   C1219970   0.225   0.109   6.317  0.2350 -1.0820  0.1692
  176SAPI    H219971   0.139   0.048   6.351  1.2150 -2.0711  0.9629
  176SAPI    O219972   0.272   0.062   6.194 -1.0966 -0.5360 -0.0256
  176SAPI   HO219973   0.295  -0.029   6.214  0.4086 -0.0380  0.7151
  176SAPI   C1319974   0.181   0.255   6.301 -0.3658  0.3231 -0.2806
  176SAPI    H319975   0.147   0.284   6.402 -1.3975  0.2774 -0.6042
  176SAPI    O319976   0.061   0.262   6.224  0.2246  0.2518 -0.1262
  176SAPI   HO319977   0.091   0.224   6.141  0.5949 -2.2426  1.0400
  176SAPI   C1419978   0.294   0.348   6.267 -1.0118  0.1727 -0.0614
  176SAPI    H419979   0.347   0.322   6.173 -0.9948 -0.5997  0.1605
  176SAPI    O419980   0.244   0.482   6.250 -0.0833 -0.4161  0.2742
  176SAPI   HO419981   0.324   0.535   6.251 -0.4165  0.1307  2.3598
  176SAPI   C1519982   0.391   0.337   6.384  0.4528  0.0444  0.4174
  176SAPI    H519983   0.341   0.365   6.479 -1.4677 -0.0392 -0.5177
  176SAPI    O519984   0.502   0.432   6.369  0.6470 -0.1768 -0.2826
  176SAPI   HO519985   0.556   0.428   6.448 -1.5476 -1.6551  1.2692
  176SAPI   C1619986   0.447   0.198   6.391 -0.3727  0.5298  0.6567
  176SAPI    H619987   0.483   0.161   6.293  0.1606  2.6707 -0.0070
  176SAPI    O619988   0.544   0.181   6.491  0.3303 -0.4630  0.2036
  176SAPI   HO619989   0.506   0.121   6.555 -1.8591  1.8154  1.2083
  176SAPI   C1119990   0.334   0.090   6.418 -0.1056  0.1762 -0.2301
  176SAPI    H119991   0.300   0.125   6.518 -1.2512  0.2372 -0.6312
  176SAPI     P19992   0.354  -0.142   6.546  0.1961  0.1392 -0.0711
  176SAPI   O1319993   0.396  -0.282   6.517  0.2049 -0.2699  0.5225
  176SAPI   O1419994   0.214  -0.121   6.596  0.8443 -0.1445 -0.3142
  176SAPI   O1219995   0.380  -0.045   6.418  0.4813  0.1419  0.6252
  176SAPI   O1119996   0.456  -0.078   6.653 -0.0371  0.0518 -1.0686
  176SAPI    C119997   0.598  -0.109   6.637  0.6280  0.4295  0.9628
  176SAPI    HA19998   0.614  -0.201   6.576 -1.4807  0.4531  0.2740
  176SAPI    HB19999   0.662  -0.027   6.595  0.7755  0.1311  0.5947
  176SAPI    C220000   0.664  -0.140   6.772 -0.4148  0.4529 -0.4311
  176SAPI    HS20001   0.770  -0.165   6.752 -0.0634  0.4554  1.2647
  176SAPI   O2120002   0.603  -0.250   6.844  0.6886  0.5436  0.2133
  176SAPI   C2120003   0.689  -0.329   6.913  0.0975 -0.1344 -0.0044
  176SAPI   O2220004   0.810  -0.312   6.919 -0.2161 -0.0422  0.3829
  176SAPI   C2220005   0.609  -0.438   6.974 -0.0076 -0.1718 -0.0354
  176SAPI   H2R20006   0.558  -0.490   6.890  1.3817 -0.3957 -0.7611
  176SAPI   H2S20007   0.675  -0.516   7.016  0.5992  0.6218  0.5294
  176SAPI    C320008   0.667  -0.015   6.864 -0.8119  0.1393  0.2073
  176SAPI    HX20009   0.560   0.005   6.885 -0.9523  0.5306 -0.7989
  176SAPI    HY20010   0.696   0.076   6.808 -1.8731  0.1132 -0.3977
  176SAPI   O3120011   0.736  -0.027   6.989  0.6194  0.6491 -0.1408
  176SAPI   C3120012   0.755   0.092   7.049  0.7150 -0.0408  0.6631
  176SAPI   O3220013   0.736   0.195   6.985  0.6107 -0.2541  1.0069
  176SAPI   C3220014   0.826   0.076   7.181  0.8313 -0.5722  0.6107
  176SAPI   H2X20015   0.932   0.046   7.163  1.2991  1.3859 -0.1268
  176SAPI   H2Y20016   0.777   0.003   7.249 -1.1978  0.8213  0.7331
  176SAPI   C2320017   0.517  -0.387   7.089  0.6188 -0.1581 -0.3737
  176SAPI   H3R20018   0.452  -0.472   7.119  0.7708  0.5343  2.0736
  176SAPI   H3S20019   0.442  -0.319   7.043  2.2543  1.1072 -1.2930
  176SAPI   C2420020   0.576  -0.333   7.216  0.0416  0.6177  0.4779
  176SAPI   H4R20021   0.491  -0.317   7.286  0.8279  0.5037  1.4864
  176SAPI   H4S20022   0.619  -0.231   7.210  1.9509 -0.1632  0.1396
  176SAPI   C2520023   0.689  -0.420   7.278  0.2233 -0.2448  0.6673
  176SAPI   H5R20024   0.761  -0.446   7.198  1.3643  0.4507  1.4337
  176SAPI   C2620025   0.711  -0.464   7.404  0.2216 -0.2223  0.3261
  176SAPI   H6R20026   0.803  -0.522   7.418  1.8014  2.2148  0.7336
  176SAPI   C2720027   0.628  -0.438   7.527 -0.7871 -0.0554 -0.5712
  176SAPI   H7R20028   0.521  -0.427   7.497 -1.0358 -0.0635  0.2913
  176SAPI   H7S20029   0.653  -0.349   7.588  1.1449 -1.9294  1.5521
  176SAPI   C2820030   0.632  -0.561   7.621  0.0820  0.8850  0.4728
  176SAPI   H8R20031   0.670  -0.656   7.580 -2.0320  1.4228 -3.1562
  176SAPI   C2920032   0.590  -0.572   7.749  0.3904 -0.0856 -0.1247
  176SAPI   H9R20033   0.582  -0.672   7.793 -1.5698  0.8870  1.9402
  176SAPI  C21020034   0.518  -0.462   7.831 -0.3400 -0.2928  0.2960
  176SAPI  H10R20035   0.508  -0.513   7.929  0.2815 -0.4460  0.2852
  176SAPI  H10S20036   0.411  -0.452   7.803 -0.3673 -1.9095 -0.2555
  176SAPI  C21120037   0.576  -0.321   7.852 -0.1306 -0.3944 -0.7218
  176SAPI  H11R20038   0.607  -0.270   7.759  1.3065 -0.7519 -0.4614
  176SAPI  C21220039   0.599  -0.258   7.974  0.5392 -0.5891  0.2586
  176SAPI  H12R20040   0.648  -0.160   7.983 -1.9786  0.6381  1.7079
  176SAPI  C21320041   0.553  -0.304   8.114  0.1538  0.0474  0.1407
  176SAPI  H13R20042   0.444  -0.326   8.118 -0.6918  3.6790  0.6730
  176SAPI  H13S20043   0.581  -0.233   8.194  1.9494 -0.7932  0.3148
  176SAPI  C21420044   0.640  -0.425   8.154 -0.2664 -0.4095  0.4533
  176SAPI  H14R20045   0.737  -0.430   8.102 -0.0052  0.3894  0.8431
  176SAPI  C21520046   0.610  -0.514   8.250 -0.4698 -0.4294  1.0396
  176SAPI  H15R20047   0.693  -0.580   8.277  1.4748  1.6586  0.5211
  176SAPI  C21620048   0.489  -0.526   8.336 -0.6266  0.0763  0.3266
  176SAPI  H16R20049   0.442  -0.425   8.325  1.4945  1.0985  0.1828
  176SAPI  H16S20050   0.528  -0.526   8.440  2.7663  1.0990 -0.7984
  176SAPI  C21720051   0.392  -0.642   8.295 -0.5863  0.1393 -0.2959
  176SAPI  H17R20052   0.430  -0.746   8.303 -0.4261  0.2451  0.3761
  176SAPI  H17S20053   0.364  -0.633   8.188 -0.2733 -0.8539 -0.4716
  176SAPI  C21820054   0.274  -0.633   8.385  0.0128  0.9248 -0.5235
  176SAPI  H18R20055   0.235  -0.529   8.386  0.5674  1.1339 -0.3786
  176SAPI  H18S20056   0.314  -0.661   8.484  0.8907 -0.9648 -1.3631
  176SAPI  C21920057   0.163  -0.728   8.342  0.3666  0.8976 -0.0663
  176SAPI  H19R20058   0.112  -0.758   8.436  3.4278 -0.3472  1.3558
  176SAPI  H19S20059   0.188  -0.826   8.296 -0.6221  0.7147 -0.2307
  176SAPI  C22020060   0.051  -0.668   8.248 -0.6070  0.4895 -0.7699
  176SAPI  H20R20061   0.093  -0.685   8.146  0.4496 -1.1081 -0.1223
  176SAPI  H20S20062   0.041  -0.560   8.272 -0.1869  0.5576 -0.8802
  176SAPI  H20T20063  -0.051  -0.708   8.264 -0.4149 -1.0624 -2.8874
  176SAPI   C3320064   0.834   0.207   7.267  0.2473  1.3681 -0.5235
  176SAPI   H3X20065   0.730   0.238   7.289 -0.4951 -1.5153  0.4399
  176SAPI   H3Y20066   0.879   0.287   7.204  1.1293  1.0558 -0.2983
  176SAPI   C3420067   0.922   0.179   7.387  0.4284  0.1643 -0.0309
  176SAPI   H4X20068   1.028   0.175   7.355 -0.4518  2.1614 -3.7656
  176SAPI   H4Y20069   0.882   0.084   7.429  1.8381  0.4249  2.0353
  176SAPI   C3520070   0.898   0.281   7.500  0.4673 -0.0147  0.6365
  176SAPI   H5X20071   0.796   0.264   7.540  0.0920  2.9233  1.1027
  176SAPI   H5Y20072   0.898   0.386   7.465  0.3506  0.3600  1.7121
  176SAPI   C3620073   0.979   0.269   7.628 -0.1455 -0.5877 -0.2569
  176SAPI   H6X20074   1.085   0.299   7.612 -0.2521 -0.2720 -0.3678
  176SAPI   H6Y20075   0.981   0.166   7.669  0.3332  0.3755  2.3284
  176SAPI   C3720076   0.920   0.370   7.729  0.0184  0.7040  0.5871
  176SAPI   H7X20077   0.812   0.354   7.748 -0.1893  0.8334 -0.4230
  176SAPI   H7Y20078   0.914   0.466   7.674 -1.6803 -0.3650 -1.2136
  176SAPI   C3820079   0.977   0.387   7.867 -0.0260 -0.3229 -0.9325
  176SAPI   H8X20080   1.082   0.422   7.865  0.1000 -0.7099 -1.9888
  176SAPI   H8Y20081   1.003   0.287   7.908 -0.6413 -0.2499 -0.3470
  176SAPI   C3920082   0.883   0.464   7.967  0.5877 -0.2897 -0.0587
  176SAPI   H9X20083   0.779   0.424   7.976  0.3819  0.0045 -0.9923
  176SAPI   H9Y20084   0.882   0.568   7.927 -2.3847 -0.0458  0.4226
  176SAPI  C31020085   0.939   0.482   8.108 -0.4626  0.4556 -0.3238
  176SAPI  H10X20086   0.954   0.380   8.148 -0.0022  0.7871  0.3758
  176SAPI  H10Y20087   0.863   0.533   8.171  0.1415  0.7794  0.1576
  176SAPI  C31120088   1.069   0.562   8.108 -0.2495 -0.1548  0.1792
  176SAPI  H11X20089   1.049   0.659   8.058  1.8727  0.4177  0.3245
  176SAPI  H11Y20090   1.158   0.516   8.061  0.2552  0.8635  0.1193
  176SAPI  C31220091   1.110   0.608   8.249  0.0897 -0.5312 -0.1564
  176SAPI  H12X20092   1.153   0.522   8.303  3.3768  1.5614  0.7995
  176SAPI  H12Y20093   1.017   0.643   8.300  1.6819  1.2266  1.7065
  176SAPI  C31320094   1.208   0.722   8.245  0.0378 -0.0589  0.2100
  176SAPI  H13X20095   1.149   0.814   8.230 -0.2860 -0.4206 -0.8329
  176SAPI  H13Y20096   1.273   0.706   8.156 -2.6348 -1.5143 -1.5988
  176SAPI  C31420097   1.295   0.715   8.365  0.5557  0.1799 -0.5680
  176SAPI  H14X20098   1.333   0.611   8.375  0.8348  0.0515 -2.5335
  176SAPI  H14Y20099   1.245   0.738   8.461  0.7894  0.3776 -0.4947
  176SAPI  C31520100   1.415   0.805   8.370 -0.6270 -0.1907  0.7531
  176SAPI  H15X20101   1.382   0.911   8.358 -0.4359 -0.0515  1.3745
  176SAPI  H15Y20102   1.468   0.784   8.275 -0.8337 -0.4665  0.6999
  176SAPI  C31620103   1.504   0.773   8.492 -0.1505  0.4341 -0.1619
  176SAPI  H16X20104   1.519   0.663   8.499 -1.0017  0.2804 -0.6447
  176SAPI  H16Y20105   1.455   0.816   8.582  0.1966 -1.5702  1.0419
  176SAPI  C31720106   1.642   0.826   8.464  0.6337 -0.0527 -0.6456
  176SAPI  H17X20107   1.631   0.936   8.454 -0.4981  0.0695  1.4128
  176SAPI  H17Y20108   1.682   0.784   8.369 -2.6255 -1.9093 -1.3392
  176SAPI  C31820109   1.731   0.808   8.590 -0.8044  0.2278  0.0451
  176SAPI  H18X20110   1.681   0.841   8.684  0.2675 -0.9913  1.0886
  176SAPI  H18Y20111   1.826   0.866   8.593 -0.0278 -1.0354  0.6205
  176SAPI  H18Z20112   1.750   0.699   8.599  1.1012  0.4802 -0.4807
  177SLPC     N20113   6.598   2.543  11.248 -0.6665  0.3362  0.3816
  177SLPC   C1320114   6.580   2.670  11.330  0.8663 -0.8264 -0.8109
  177SLPC  H13A20115   6.673   2.714  11.362  0.1070  0.8533 -0.8106
  177SLPC  H13B20116   6.503   2.729  11.283  0.8303 -1.0968 -1.0959
  177SLPC  H13C20117   6.531   2.645  11.423 -0.5674  0.1115 -1.2788
  177SLPC   C1420118   6.467   2.474  11.243  0.1082 -0.3203  0.8748
  177SLPC  H14A20119   6.389   2.529  11.193  0.5792 -0.2989  0.1338
  177SLPC  H14B20120   6.470   2.377  11.195  1.0900  0.1975 -0.1794
  177SLPC  H14C20121   6.437   2.447  11.343 -0.4191 -1.8305  0.3416
  177SLPC   C1520122   6.691   2.449  11.320  0.1877  0.3920 -0.5192
  177SLPC  H15A20123   6.781   2.503  11.346  1.3051 -1.1412 -1.0748
  177SLPC  H15B20124   6.630   2.422  11.405 -0.5786  2.5215 -0.3302
  177SLPC  H15C20125   6.705   2.353  11.273  0.9875 -0.3588  1.1694
  177SLPC   C1220126   6.653   2.570  11.112 -0.5433  0.1969 -0.3086
  177SLPC  H12A20127   6.749   2.615  11.130  2.1312 -5.3930  1.6836
  177SLPC  H12B20128   6.580   2.638  11.069 -2.7736 -1.6212  0.4304
  177SLPC   C1120129   6.681   2.449  11.022  0.2993 -0.1063  0.3383
  177SLPC  H11A20130   6.748   2.372  11.066  0.8074 -0.5074 -1.1154
  177SLPC  H11B20131   6.729   2.496  10.934  4.6477  3.2160  3.9330
  177SLPC     P20132   6.473   2.364  10.864 -0.0335  0.1488 -0.1787
  177SLPC   O1320133   6.451   2.213  10.852 -0.7651 -0.1495 -0.0746
  177SLPC   O1420134   6.350   2.442  10.867 -0.4219  0.0354  0.1791
  177SLPC   O1220135   6.559   2.388  10.998 -0.4198  0.3707  0.0654
  177SLPC   O1120136   6.568   2.420  10.748  0.3422  0.3924 -0.3127
  177SLPC    C120137   6.683   2.342  10.709  0.1277 -0.2895 -0.3858
  177SLPC    HA20138   6.767   2.415  10.700 -0.8440  0.6074 -3.2163
  177SLPC    HB20139   6.704   2.256  10.776 -0.7715  0.0679  0.3796
  177SLPC    C220140   6.668   2.280  10.563  0.4657 -0.1815  0.0992
  177SLPC    HS20141   6.772   2.269  10.525  1.2171 -0.3923  2.1102
  177SLPC   O2120142   6.575   2.355  10.470 -0.3779  0.5764  0.0201
  177SLPC   C2120143   6.639   2.440  10.391  0.2887  0.4816 -0.3478
  177SLPC   O2220144   6.760   2.444  10.372 -1.0023  0.4803  0.0309
  177SLPC   C2220145   6.540   2.540  10.335 -0.3845 -0.1546  0.7833
  177SLPC   H2R20146   6.437   2.499  10.332 -0.1766 -0.7347  1.4859
  177SLPC   H2S20147   6.529   2.621  10.411  3.5651 -0.5524  2.0105
  177SLPC    C320148   6.612   2.133  10.566  0.3825 -0.2575  0.0731
  177SLPC    HX20149   6.517   2.124  10.624 -1.0853  0.1570 -2.1421
  177SLPC    HY20150   6.678   2.076  10.634 -0.9638  0.6185  2.2292
  177SLPC   O3120151   6.600   2.079  10.433 -0.2025 -0.6071 -0.2123
  177SLPC   C3120152   6.662   1.965  10.404  0.4800 -0.4968  0.1968
  177SLPC   O3220153   6.724   1.901  10.483 -0.4004  0.0381 -0.2177
  177SLPC   C3220154   6.665   1.941  10.254  0.3568 -0.1278  0.4962
  177SLPC   H2X20155   6.562   1.948  10.215 -0.0556 -0.1412  1.5509
  177SLPC   H2Y20156   6.715   1.845  10.227 -1.7403 -0.8355 -1.1568
  177SLPC   C2320157   6.588   2.610  10.202  0.6855 -0.6845  0.5046
  177SLPC   H3R20158   6.620   2.529  10.134  0.6024  0.4052 -0.8769
  177SLPC   H3S20159   6.670   2.685  10.209  0.4489 -0.4646  1.0137
  177SLPC   C2420160   6.455   2.663  10.140  0.0567  0.0811 -0.1935
  177SLPC   H4R20161   6.401   2.733  10.208  1.5036  2.0054 -0.9388
  177SLPC   H4S20162   6.384   2.579  10.128 -1.7554  1.8548 -3.3049
  177SLPC   C2520163   6.478   2.741  10.012 -0.1652  0.6758  0.0249
  177SLPC   H5R20164   6.530   2.839  10.020  0.2840  0.4011  0.4755
  177SLPC   H5S20165   6.376   2.769   9.976  1.6853  2.9761 -4.2896
  177SLPC   C2620166   6.541   2.652   9.907 -0.0516  0.3970  0.3160
  177SLPC   H6R20167   6.491   2.553   9.909 -1.4906  1.0045 -2.0695
  177SLPC   H6S20168   6.641   2.634   9.953 -1.3430 -0.5795  2.9384
  177SLPC   C2720169   6.552   2.703   9.767 -0.3247 -0.5536  0.0969
  177SLPC   H7R20170   6.626   2.631   9.726  0.5317 -0.1813  0.9501
  177SLPC   H7S20171   6.587   2.808   9.760 -0.4549 -0.3318  2.2318
  177SLPC   C2820172   6.420   2.681   9.697  0.1635 -0.0789  0.2224
  177SLPC   H8R20173   6.336   2.738   9.742 -0.1161 -1.2666  1.2621
  177SLPC   H8S20174   6.388   2.576   9.714  1.0419 -0.0343  2.4838
  177SLPC   C2920175   6.425   2.703   9.545 -0.2241  0.1472 -0.1877
  177SLPC   H9R20176   6.505   2.642   9.500 -1.7982 -1.3001 -1.2133
  177SLPC  C21020177   6.338   2.769   9.471  0.6032 -0.5691 -0.6117
  177SLPC  H10R20178   6.351   2.780   9.362 -0.4964 -0.8782 -0.7856
  177SLPC  C21120179   6.215   2.834   9.532 -0.2898 -0.3592  0.4541
  177SLPC  H11R20180   6.144   2.827   9.447  0.8234  0.2002 -0.5400
  177SLPC  H11S20181   6.163   2.781   9.616  0.9054  0.0083  1.4548
  177SLPC  C21220182   6.236   2.980   9.580 -0.8266  0.1240  0.4885
  177SLPC  H12R20183   6.279   2.988   9.681 -0.7919 -0.0427  0.4861
  177SLPC  C21320184   6.215   3.093   9.505  0.0558 -0.4809 -1.3240
  177SLPC  H13R20185   6.228   3.189   9.558 -0.1984 -0.4175 -1.3741
  177SLPC  C21420186   6.165   3.105   9.371 -1.0250 -1.1217  0.4708
  177SLPC  H14R20187   6.124   3.208   9.361 -0.6688 -0.8226  1.8301
  177SLPC  H14S20188   6.086   3.030   9.349 -0.9089 -0.4300 -2.6956
  177SLPC  C21520189   6.274   3.075   9.273 -0.4345  0.3153  0.3696
  177SLPC  H15R20190   6.316   2.973   9.286 -0.6667  0.0136 -1.0905
  177SLPC  H15S20191   6.362   3.142   9.280 -0.0577 -0.3484  3.3580
  177SLPC  C21620192   6.222   3.070   9.125 -0.1468 -0.7305  0.2618
  177SLPC  H16R20193   6.152   2.984   9.120 -1.1749  0.1006  0.1780
  177SLPC  H16S20194   6.305   3.056   9.053  1.7185  1.7008  1.7618
  177SLPC  C21720195   6.154   3.208   9.092 -0.0359  0.5091  0.2089
  177SLPC  H17R20196   6.195   3.286   9.159  0.0013 -0.6256  1.5738
  177SLPC  H17S20197   6.045   3.204   9.115 -0.2656 -1.0853 -0.9512
  177SLPC  C21820198   6.146   3.260   8.947  0.4578 -0.3310 -0.3849
  177SLPC  H18R20199   6.102   3.362   8.945  0.4027 -0.3671 -1.8306
  177SLPC  H18S20200   6.083   3.191   8.886  3.0646 -2.8305 -0.4819
  177SLPC  H18T20201   6.248   3.259   8.905  1.3062 -0.6789  1.5929
  177SLPC   C3320202   6.746   2.053  10.182 -0.2005  0.5066  0.0292
  177SLPC   H3X20203   6.735   2.155  10.225  0.1602  0.7423 -0.4297
  177SLPC   H3Y20204   6.697   2.064  10.083  2.6920 -0.2052 -1.5874
  177SLPC   C3420205   6.890   2.013  10.142  0.2100  0.0227 -0.5396
  177SLPC   H4X20206   6.888   1.937  10.061  0.3678  1.5991 -2.0817
  177SLPC   H4Y20207   6.928   1.957  10.230  0.2996 -0.4031 -0.8507
  177SLPC   C3520208   6.979   2.129  10.117 -0.4913  0.3439  0.4081
  177SLPC   H5X20209   7.073   2.093  10.070 -0.9677 -0.5452  0.1126
  177SLPC   H5Y20210   7.010   2.183  10.209  1.7523 -0.2293  0.0565
  177SLPC   C3620211   6.924   2.235  10.019  0.0053  0.0915  0.2252
  177SLPC   H6X20212   6.838   2.279  10.074 -0.6526 -1.5190  0.5505
  177SLPC   H6Y20213   6.874   2.188   9.932 -0.1101 -2.5221  1.6025
  177SLPC   C3720214   7.015   2.349   9.984  0.4994 -0.1434 -0.1005
  177SLPC   H7X20215   7.080   2.323   9.898  1.8712  0.1423  0.8198
  177SLPC   H7Y20216   7.074   2.357  10.079 -0.3846  0.4330  0.4106
  177SLPC   C3820217   6.942   2.476   9.962 -0.1825  0.0020  0.5993
  177SLPC   H8X20218   7.014   2.559   9.950 -2.2235  1.8425  0.3928
  177SLPC   H8Y20219   6.879   2.506  10.049 -0.9553 -1.2416  0.4870
  177SLPC   C3920220   6.871   2.485   9.829 -0.0323 -0.2976 -0.7830
  177SLPC   H9X20221   6.823   2.585   9.832  0.4434 -0.0544 -1.2380
  177SLPC   H9Y20222   6.807   2.395   9.814 -0.2879 -0.1513 -0.5727
  177SLPC  C31020223   6.967   2.487   9.714  0.4944  0.2228 -0.1884
  177SLPC  H10X20224   6.982   2.382   9.680  0.8660  0.0437  0.5140
  177SLPC  H10Y20225   7.066   2.534   9.735  1.2729 -1.4178 -0.0800
  177SLPC  C31120226   6.899   2.544   9.585  0.1392 -0.8403 -0.3281
  177SLPC  H11X20227   6.791   2.526   9.601 -0.2027  0.7618 -0.6791
  177SLPC  H11Y20228   6.933   2.478   9.503  0.1847 -3.5545  1.7643
  177SLPC  C31220229   6.935   2.688   9.555  0.6034  0.2279  0.6500
  177SLPC  H12X20230   7.042   2.701   9.527  0.8637  2.8702  2.5123
  177SLPC  H12Y20231   6.911   2.757   9.638  0.0128  2.1333 -1.0279
  177SLPC  C31320232   6.861   2.734   9.430 -0.5210 -0.4174  0.4106
  177SLPC  H13X20233   6.755   2.699   9.427  0.6773 -5.0136  2.4916
  177SLPC  H13Y20234   6.902   2.675   9.346 -1.8573  0.7457 -1.1123
  177SLPC  C31420235   6.865   2.883   9.405  0.7639 -0.4060  0.3421
  177SLPC  H14X20236   6.973   2.907   9.414  0.8848 -0.9315  0.2915
  177SLPC  H14Y20237   6.814   2.930   9.491 -1.6554  0.2173 -1.3166
  177SLPC  C31520238   6.802   2.939   9.269  0.3157  0.6760 -0.6091
  177SLPC  H15X20239   6.816   3.049   9.262  1.8004  0.3997 -2.6240
  177SLPC  H15Y20240   6.697   2.903   9.276  0.3036  1.0484  1.9595
  177SLPC  C31620241   6.861   2.880   9.139 -0.1447  0.3849  0.2624
  177SLPC  H16X20242   6.853   2.770   9.130  0.4371  0.3982 -0.5529
  177SLPC  H16Y20243   6.970   2.902   9.148  0.1065 -0.2726 -1.0115
  177SLPC  C31720244   6.814   2.944   9.011 -1.0020  0.2824 -0.1251
  177SLPC  H17X20245   6.869   2.904   8.924 -2.7648 -0.7506 -0.8282
  177SLPC  H17Y20246   6.840   3.051   9.019 -2.4269  0.6656 -0.2117
  177SLPC  C31820247   6.668   2.915   8.986 -0.1068  0.1544  0.0495
  177SLPC  H18X20248   6.609   2.955   9.071 -0.8939  0.3716 -0.5869
  177SLPC  H18Y20249   6.645   2.807   9.001  3.1938 -0.7511 -0.6697
  177SLPC  H18Z20250   6.627   2.940   8.886  1.3456 -0.9997 -0.8776
  178SLPC     N20251   1.243   6.361  11.038  0.7098 -0.7153  0.2862
  178SLPC   C1320252   1.133   6.369  11.143 -0.0067  0.0904  0.4306
  178SLPC  H13A20253   1.031   6.370  11.108 -0.1606 -4.0310  0.2670
  178SLPC  H13B20254   1.135   6.282  11.208 -1.0883 -0.6964 -0.5551
  178SLPC  H13C20255   1.145   6.454  11.208  0.6511 -2.2389  3.6128
  178SLPC   C1420256   1.367   6.327  11.115 -0.7233 -0.4121 -0.3163
  178SLPC  H14A20257   1.393   6.397  11.192  3.1752  0.5694 -2.2878
  178SLPC  H14B20258   1.359   6.229  11.161  0.7832 -0.0270  0.8340
  178SLPC  H14C20259   1.455   6.321  11.053 -0.8458 -3.2046 -0.3554
  178SLPC   C1520260   1.264   6.505  10.979  0.0148  1.5261  0.5009
  178SLPC  H15A20261   1.342   6.490  10.905  1.3104 -0.2956  2.1301
  178SLPC  H15B20262   1.177   6.543  10.927 -0.4039 -1.8609 -1.5941
  178SLPC  H15C20263   1.309   6.572  11.050 -1.8640  4.0303 -0.5407
  178SLPC   C1220264   1.215   6.242  10.942 -0.4457 -0.1869  0.0701
  178SLPC  H12A20265   1.117   6.257  10.898 -1.2166 -1.2766  1.2996
  178SLPC  H12B20266   1.220   6.149  10.998  1.4518 -0.3799 -0.3587
  178SLPC   C1120267   1.312   6.217  10.824 -0.0069 -0.1139  0.8971
  178SLPC  H11A20268   1.312   6.309  10.762 -0.8410  0.3941  1.6286
  178SLPC  H11B20269   1.270   6.144  10.751 -1.4058  2.8520 -1.5023
  178SLPC     P20270   1.500   6.061  10.915 -0.1754 -0.6207  0.5767
  178SLPC   O1320271   1.617   6.074  11.002  0.2267 -0.2025  0.1087
  178SLPC   O1420272   1.394   5.978  10.978 -0.2219  0.2969  0.0340
  178SLPC   O1220273   1.448   6.197  10.864  0.5964 -1.3270 -0.4235
  178SLPC   O1120274   1.539   5.994  10.778 -0.2563  0.7845 -0.3814
  178SLPC    C120275   1.544   6.050  10.648 -0.9586 -0.5222 -0.4133
  178SLPC    HA20276   1.520   5.979  10.566 -0.8651 -0.0712 -0.8353
  178SLPC    HB20277   1.477   6.136  10.624 -0.8565 -1.0058 -2.6638
  178SLPC    C220278   1.692   6.100  10.620  0.4396  0.1904  0.5383
  178SLPC    HS20279   1.724   6.155  10.711  0.8313  2.0795 -0.7072
  178SLPC   O2120280   1.696   6.180  10.503 -0.1195  0.2403 -0.2020
  178SLPC   C2120281   1.651   6.307  10.515 -0.4744  0.4002 -0.9473
  178SLPC   O2220282   1.631   6.364  10.619 -0.0835 -0.1967  0.7586
  178SLPC   C2220283   1.637   6.371  10.379  0.3116 -0.2548 -0.0882
  178SLPC   H2R20284   1.611   6.479  10.386 -1.0907 -0.6646  1.9502
  178SLPC   H2S20285   1.739   6.366  10.336  0.8352  2.6521  0.6109
  178SLPC    C320286   1.780   5.974  10.602 -0.3216  0.2659 -0.7020
  178SLPC    HX20287   1.786   5.919  10.698  2.6083 -0.8240 -1.4066
  178SLPC    HY20288   1.888   6.002  10.595 -0.1900 -0.3665 -1.2589
  178SLPC   O3120289   1.729   5.889  10.494 -0.1437 -0.5714 -0.2777
  178SLPC   C3120290   1.829   5.841  10.412 -0.3615  0.2007 -0.0587
  178SLPC   O3220291   1.945   5.877  10.425 -0.0877 -0.0859  0.5346
  178SLPC   C3220292   1.772   5.744  10.307 -0.7404 -0.2345 -0.0630
  178SLPC   H2X20293   1.664   5.764  10.290 -0.3971  1.0282 -0.8469
  178SLPC   H2Y20294   1.781   5.636  10.332 -0.2281 -0.6488 -1.8683
  178SLPC   C2320295   1.544   6.289  10.284 -0.3879  0.3881 -0.8584
  178SLPC   H3R20296   1.441   6.288  10.326 -0.1762 -1.2065 -0.3274
  178SLPC   H3S20297   1.579   6.184  10.295  2.1658  0.9891 -2.4434
  178SLPC   C2420298   1.542   6.322  10.137 -0.6838  0.6823  0.3817
  178SLPC   H4R20299   1.474   6.409  10.126 -1.3571  0.1601  0.4048
  178SLPC   H4S20300   1.490   6.233  10.096 -0.7094  1.0506 -0.4014
  178SLPC   C2520301   1.670   6.335  10.062 -0.4347  0.2041 -0.3590
  178SLPC   H5R20302   1.716   6.234  10.049 -1.3572 -0.0298 -2.1366
  178SLPC   H5S20303   1.734   6.396  10.130 -1.3662  1.0476 -0.2179
  178SLPC   C2620304   1.645   6.419   9.936  0.1870  0.5064 -0.0770
  178SLPC   H6R20305   1.748   6.410   9.895  0.5435 -1.0973  1.0781
  178SLPC   H6S20306   1.622   6.520   9.977 -1.6787 -0.9677  2.8755
  178SLPC   C2720307   1.537   6.363   9.840 -0.5058 -0.1355 -0.0325
  178SLPC   H7R20308   1.533   6.438   9.758  1.5591  3.1807  2.6562
  178SLPC   H7S20309   1.434   6.369   9.881 -1.0543 -0.9688 -1.2253
  178SLPC   C2820310   1.558   6.223   9.796 -0.2715  0.4469 -0.1843
  178SLPC   H8R20311   1.525   6.158   9.879  2.2428 -0.1932  0.3669
  178SLPC   H8S20312   1.667   6.208   9.804 -0.1252  2.1301  1.7662
  178SLPC   C2920313   1.502   6.187   9.662  0.2214 -0.2836 -0.2416
  178SLPC   H9R20314   1.487   6.271   9.593  1.0304  0.7174  0.7529
  178SLPC  C21020315   1.457   6.070   9.636  0.4018  0.2720  0.2562
  178SLPC  H10R20316   1.414   6.049   9.537  0.7703 -0.8605  0.3257
  178SLPC  C21120317   1.462   5.950   9.730  0.1175 -0.0318  0.2164
  178SLPC  H11R20318   1.543   5.963   9.806 -1.8886 -0.1141  2.4900
  178SLPC  H11S20319   1.492   5.862   9.670 -3.3899 -0.3086 -1.3818
  178SLPC  C21220320   1.326   5.926   9.794 -0.3287  1.0781 -0.7693
  178SLPC  H12R20321   1.249   5.905   9.719 -0.2497  1.7450 -1.0470
  178SLPC  C21320322   1.294   5.927   9.925  0.1841  0.2126  0.1276
  178SLPC  H13R20323   1.190   5.915   9.957  0.5314  1.1381  1.7507
  178SLPC  C21420324   1.397   5.941  10.035  0.8658 -0.4065  0.5788
  178SLPC  H14R20325   1.382   6.040  10.082  0.5943 -0.2776  0.2230
  178SLPC  H14S20326   1.503   5.945  10.001  0.6315 -1.9791 -0.4544
  178SLPC  C21520327   1.376   5.812  10.126 -0.0128 -1.0414  0.1219
  178SLPC  H15R20328   1.284   5.817  10.187  1.8192 -2.5205  3.2920
  178SLPC  H15S20329   1.460   5.814  10.199 -0.2750  0.5244  0.4267
  178SLPC  C21620330   1.380   5.670  10.054 -0.5344 -0.1308  0.6156
  178SLPC  H16R20331   1.278   5.651  10.013 -0.0135 -2.7147  0.3450
  178SLPC  H16S20332   1.390   5.593  10.133 -3.7557  0.4728  1.7590
  178SLPC  C21720333   1.491   5.634   9.955 -0.1878 -0.3272  0.0591
  178SLPC  H17R20334   1.586   5.682   9.988 -0.7548  1.1188 -0.3189
  178SLPC  H17S20335   1.471   5.682   9.857 -1.5405 -0.1866  0.3865
  178SLPC  C21820336   1.508   5.492   9.900  0.4519 -1.0371 -0.0297
  178SLPC  H18R20337   1.410   5.440   9.903  0.7463 -1.6756 -1.1722
  178SLPC  H18S20338   1.582   5.434   9.958  1.1051  0.1782  0.3850
  178SLPC  H18T20339   1.544   5.507   9.796  0.0856 -0.0598 -0.0367
  178SLPC   C3320340   1.837   5.771  10.164 -0.2923 -0.2681 -0.2286
  178SLPC   H3X20341   1.809   5.687  10.096 -1.1319 -0.0351 -0.1803
  178SLPC   H3Y20342   1.947   5.766  10.181 -0.4156 -1.3163  0.3554
  178SLPC   C3420343   1.806   5.908  10.103  0.2334  0.6200  0.5915
  178SLPC   H4X20344   1.855   5.990  10.159 -2.8805  3.4891 -0.5739
  178SLPC   H4Y20345   1.700   5.940  10.103  0.2346  0.6478  1.4961
  178SLPC   C3520346   1.863   5.914   9.957  0.2320 -0.2426  0.2348
  178SLPC   H5X20347   1.973   5.894   9.964  0.0823 -1.0739  0.3591
  178SLPC   H5Y20348   1.858   6.020   9.926  0.1856  0.4779  2.5084
  178SLPC   C3620349   1.813   5.810   9.857  0.0331 -0.3691  0.3993
  178SLPC   H6X20350   1.707   5.838   9.839 -0.6427 -2.5647  0.7306
  178SLPC   H6Y20351   1.826   5.705   9.890  2.4192 -0.2176  0.1040
  178SLPC   C3720352   1.866   5.822   9.717  0.3114 -0.1687  1.0847
  178SLPC   H7X20353   1.972   5.789   9.713 -0.0173 -1.2028 -1.9381
  178SLPC   H7Y20354   1.872   5.930   9.689  1.0137 -0.1874  1.1436
  178SLPC   C3820355   1.786   5.736   9.619  0.6168 -0.0573 -0.4408
  178SLPC   H8X20356   1.678   5.761   9.631  0.4900  0.0378 -1.6114
  178SLPC   H8Y20357   1.793   5.632   9.656 -2.3649 -0.5750 -1.0842
  178SLPC   C3920358   1.826   5.730   9.470  0.0837 -0.1654 -0.5445
  178SLPC   H9X20359   1.762   5.657   9.416 -2.5219  1.5449  0.0644
  178SLPC   H9Y20360   1.932   5.696   9.468  0.3506  0.5631  0.5897
  178SLPC  C31020361   1.824   5.873   9.395  0.5039  0.1343  0.4141
  178SLPC  H10X20362   1.867   5.863   9.293 -3.5645 -1.4577 -1.3691
  178SLPC  H10Y20363   1.874   5.953   9.453  1.7716 -0.3775  0.0498
  178SLPC  C31120364   1.674   5.906   9.374  0.4182 -0.3133 -0.2188
  178SLPC  H11X20365   1.620   5.882   9.468 -3.0125  0.2525 -1.9175
  178SLPC  H11Y20366   1.627   5.831   9.307 -1.2866 -0.6505  1.2902
  178SLPC  C31220367   1.645   6.052   9.342 -0.0577  0.1858 -0.4970
  178SLPC  H12X20368   1.694   6.118   9.417  0.3759 -0.4594 -0.1942
  178SLPC  H12Y20369   1.536   6.056   9.363  0.3500  0.0959  1.9487
  178SLPC  C31320370   1.690   6.092   9.205 -0.1137 -0.0820  0.3538
  178SLPC  H13X20371   1.672   6.017   9.124 -0.3775 -0.2436  0.5589
  178SLPC  H13Y20372   1.800   6.103   9.215 -0.5391  4.0609  2.5816
  178SLPC  C31420373   1.632   6.228   9.153 -0.0915  0.4160  0.7156
  178SLPC  H14X20374   1.670   6.314   9.212  0.6111  0.4044  0.2845
  178SLPC  H14Y20375   1.522   6.217   9.160  0.1465 -1.2844  3.1968
  178SLPC  C31520376   1.677   6.252   9.003  0.6067 -0.4792 -0.0930
  178SLPC  H15X20377   1.765   6.319   8.990  0.1193  0.4723  1.3092
  178SLPC  H15Y20378   1.706   6.153   8.961  1.5785 -0.1875 -0.1360
  178SLPC  C31620379   1.554   6.310   8.920 -0.5481 -0.5480  0.2640
  178SLPC  H16X20380   1.473   6.235   8.925 -1.1207  0.0200 -0.3288
  178SLPC  H16Y20381   1.603   6.314   8.821  1.5000 -0.9664  1.2150
  178SLPC  C31720382   1.491   6.442   8.966 -0.0567 -0.3631 -1.0281
  178SLPC  H17X20383   1.445   6.420   9.065  1.3551 -0.7199 -0.4317
  178SLPC  H17Y20384   1.405   6.453   8.896  1.2133  0.7105 -2.5007
  178SLPC  C31820385   1.578   6.571   8.963  0.4694  0.2807 -0.3902
  178SLPC  H18X20386   1.516   6.658   8.931  2.0200  1.6366  0.1715
  178SLPC  H18Y20387   1.656   6.550   8.886  1.2719 -2.0145  0.9603
  178SLPC  H18Z20388   1.639   6.581   9.055  0.7181 -1.0017 -0.3994
  179SLPC     N20389   4.609   2.553  10.572  0.2060  0.1946  0.0370
  179SLPC   C1320390   4.652   2.554  10.422 -0.2969 -0.1097 -0.7589
  179SLPC  H13A20391   4.580   2.495  10.368 -1.8990  0.1586  0.9551
  179SLPC  H13B20392   4.653   2.654  10.382  1.2083  0.2274  0.0339
  179SLPC  H13C20393   4.750   2.517  10.397 -0.2996  0.1350 -1.1321
  179SLPC   C1420394   4.592   2.415  10.618 -0.1997 -0.5017 -0.2924
  179SLPC  H14A20395   4.682   2.366  10.585 -0.9276 -2.2790  0.2485
  179SLPC  H14B20396   4.584   2.407  10.725 -0.1263 -1.6796 -0.3628
  179SLPC  H14C20397   4.511   2.358  10.575 -1.3512 -0.8112  2.1559
  179SLPC   C1520398   4.474   2.627  10.579 -0.5914  0.2045  0.3672
  179SLPC  H15A20399   4.429   2.606  10.675  0.0575  0.2416  0.6794
  179SLPC  H15B20400   4.486   2.734  10.572  2.8063  0.0853  2.5357
  179SLPC  H15C20401   4.397   2.595  10.510 -0.8385  0.4231  0.5402
  179SLPC   C1220402   4.710   2.620  10.658 -0.7478  0.2117 -0.9787
  179SLPC  H12A20403   4.792   2.553  10.680 -1.0596  0.5619  1.5747
  179SLPC  H12B20404   4.664   2.636  10.754  0.7202  1.8615 -0.4915
  179SLPC   C1120405   4.776   2.753  10.627 -0.9783  0.9320 -0.5104
  179SLPC  H11A20406   4.826   2.749  10.528  2.2741 -1.6493  1.0450
  179SLPC  H11B20407   4.841   2.775  10.715 -0.9414 -1.1377  0.0298
  179SLPC     P20408   4.658   2.950  10.517  0.4371 -0.1591 -0.2025
  179SLPC   O1320409   4.581   3.070  10.551 -0.1064  0.4403  0.4051
  179SLPC   O1420410   4.783   2.968  10.448 -0.0315 -0.4396 -0.8066
  179SLPC   O1220411   4.675   2.852  10.633 -0.1167 -0.3227  0.4405
  179SLPC   O1120412   4.564   2.868  10.427  0.1417  0.6491  0.4546
  179SLPC    C120413   4.534   2.894  10.289  0.2837  0.0615 -0.1618
  179SLPC    HA20414   4.531   3.005  10.283 -2.3883  0.3112  3.0890
  179SLPC    HB20415   4.617   2.851  10.229  0.5592 -0.7759  0.7946
  179SLPC    C220416   4.400   2.838  10.242  1.1370  0.5131 -0.0718
  179SLPC    HS20417   4.334   2.856  10.329  2.4061 -1.1175  1.2949
  179SLPC   O2120418   4.417   2.693  10.204 -0.4589 -0.4034 -0.2830
  179SLPC   C2120419   4.304   2.624  10.208 -0.3913  0.1638 -0.0454
  179SLPC   O2220420   4.205   2.659  10.269 -0.2396  0.0374 -0.2316
  179SLPC   C2220421   4.324   2.486  10.138  0.4511 -0.6437 -0.6431
  179SLPC   H2R20422   4.425   2.472  10.095  0.0686  2.3900 -2.9188
  179SLPC   H2S20423   4.303   2.411  10.217  1.9287  1.4993  1.9398
  179SLPC    C320424   4.351   2.929  10.122  0.0746 -0.3735  0.3229
  179SLPC    HX20425   4.433   2.929  10.046  0.8204 -0.5892  1.1172
  179SLPC    HY20426   4.334   3.034  10.156 -0.3536  0.2944 -1.7975
  179SLPC   O3120427   4.235   2.870  10.064 -0.3208  0.4159  0.3602
  179SLPC   C3120428   4.120   2.877  10.131  0.4402 -0.1413 -0.2494
  179SLPC   O3220429   4.106   2.943  10.229  0.3262 -0.0153  0.0660
  179SLPC   C3220430   4.002   2.814  10.055  0.7859  0.0978  0.0938
  179SLPC   H2X20431   3.909   2.847  10.106 -0.3442 -1.3069 -0.9372
  179SLPC   H2Y20432   4.011   2.703  10.061  1.1870 -0.0276 -1.9064
  179SLPC   C2320433   4.229   2.460  10.019  0.9890 -0.2145  0.0969
  179SLPC   H3R20434   4.122   2.471  10.049  1.1396 -0.2007  0.6318
  179SLPC   H3S20435   4.230   2.353   9.990 -1.4789  0.2836 -2.2534
  179SLPC   C2420436   4.264   2.533   9.886  0.2263 -0.4381 -0.3825
  179SLPC   H4R20437   4.364   2.490   9.863 -0.7612 -2.4305 -1.1668
  179SLPC   H4S20438   4.278   2.641   9.905  1.2832 -0.8952  1.7140
  179SLPC   C2520439   4.147   2.502   9.791  0.0333  0.7287 -0.3183
  179SLPC   H5R20440   4.055   2.558   9.816  0.2449  1.9411 -2.0221
  179SLPC   H5S20441   4.113   2.400   9.817  0.8952  0.9997  2.1780
  179SLPC   C2620442   4.178   2.526   9.642  0.4804  0.4917 -0.4296
  179SLPC   H6R20443   4.270   2.466   9.625 -0.4913 -1.1864  0.0107
  179SLPC   H6S20444   4.197   2.632   9.616  0.9006  0.8754  1.2760
  179SLPC   C2720445   4.069   2.459   9.551 -0.2722 -0.6299 -0.0022
  179SLPC   H7R20446   3.978   2.523   9.562  0.1286 -0.5132  3.5770
  179SLPC   H7S20447   4.038   2.359   9.587  1.7798 -1.3583 -0.1506
  179SLPC   C2820448   4.108   2.447   9.408 -0.4538  0.4766 -0.5061
  179SLPC   H8R20449   4.191   2.375   9.400  0.2570  1.4000 -1.7552
  179SLPC   H8S20450   4.141   2.545   9.368 -1.5395  0.6300 -1.0859
  179SLPC   C2920451   3.993   2.403   9.316  1.0900 -0.0595  0.3801
  179SLPC   H9R20452   3.913   2.352   9.372 -2.1432  3.7721 -0.3217
  179SLPC  C21020453   3.960   2.448   9.188  0.2228  0.2397 -0.4105
  179SLPC  H10R20454   3.861   2.415   9.153  1.8769 -2.4567 -3.0685
  179SLPC  C21120455   4.025   2.555   9.101  0.5723 -0.0760 -0.3644
  179SLPC  H11R20456   4.068   2.633   9.167  1.9517  0.9426 -2.3542
  179SLPC  H11S20457   3.955   2.619   9.043 -0.6319 -1.0076  0.0379
  179SLPC  C21220458   4.128   2.511   9.003  0.2611 -0.0539  0.0613
  179SLPC  H12R20459   4.206   2.452   9.053  1.3768  1.1095 -0.2539
  179SLPC  C21320460   4.127   2.539   8.870  0.4223  0.1642 -1.0852
  179SLPC  H13R20461   4.205   2.488   8.812  2.2552  0.1925  1.1937
  179SLPC  C21420462   4.032   2.620   8.793 -0.0550  0.4034  0.4331
  179SLPC  H14R20463   4.041   2.724   8.832  2.1017  1.1920 -1.9251
  179SLPC  H14S20464   3.928   2.580   8.795 -0.0676  0.4401  0.6630
  179SLPC  C21520465   4.058   2.630   8.640  0.6202 -0.4885 -0.3151
  179SLPC  H15R20466   3.967   2.673   8.592  0.4390  1.4311  1.6202
  179SLPC  H15S20467   4.092   2.535   8.593  2.3137  0.8572 -2.0055
  179SLPC  C21620468   4.184   2.715   8.614 -0.0317 -0.0008 -0.0641
  179SLPC  H16R20469   4.265   2.689   8.686 -0.5244 -0.0582  0.4729
  179SLPC  H16S20470   4.156   2.823   8.619  0.3582  0.0462  1.3304
  179SLPC  C21720471   4.228   2.703   8.467  0.1687  0.0042  0.0107
  179SLPC  H17R20472   4.272   2.802   8.443 -1.4352  0.2865 -2.1085
  179SLPC  H17S20473   4.154   2.669   8.391  0.9611 -1.4958 -0.1111
  179SLPC  C21820474   4.350   2.610   8.442  0.4484 -0.3854 -0.5366
  179SLPC  H18R20475   4.394   2.630   8.342 -0.6062 -1.3561 -1.2248
  179SLPC  H18S20476   4.315   2.505   8.447  1.4810 -0.6906  0.6051
  179SLPC  H18T20477   4.426   2.613   8.522 -2.0488  1.2955  1.9560
  179SLPC   C3320478   3.991   2.847   9.906 -0.0756 -0.5756 -0.8983
  179SLPC   H3X20479   4.087   2.817   9.860  0.2043  0.4745 -1.0420
  179SLPC   H3Y20480   3.983   2.958   9.897  1.4085  0.0218  3.1673
  179SLPC   C3420481   3.878   2.783   9.836 -0.3777  0.4223 -0.2459
  179SLPC   H4X20482   3.782   2.794   9.890  0.6305 -1.6474  2.1611
  179SLPC   H4Y20483   3.910   2.677   9.836  1.6183  0.9819 -0.2037
  179SLPC   C3520484   3.861   2.833   9.690 -0.7339  0.6451  0.8585
  179SLPC   H5X20485   3.963   2.820   9.650 -0.4903  0.0928  1.6375
  179SLPC   H5Y20486   3.846   2.943   9.679 -0.3355  0.5090 -1.4873
  179SLPC   C3620487   3.747   2.749   9.626 -0.4276 -0.0134 -0.2269
  179SLPC   H6X20488   3.662   2.743   9.696 -2.1238  1.0970 -2.0634
  179SLPC   H6Y20489   3.778   2.645   9.603  2.1203  0.5864  0.2075
  179SLPC   C3720490   3.707   2.791   9.485 -0.3676  0.1532  0.0230
  179SLPC   H7X20491   3.624   2.865   9.493 -0.8716 -0.3939 -0.0685
  179SLPC   H7Y20492   3.655   2.709   9.430  0.7488 -1.2195  0.9503
  179SLPC   C3820493   3.813   2.855   9.389 -0.0632 -0.4105  0.5904
  179SLPC   H8X20494   3.899   2.784   9.385 -0.9583 -1.5499  1.1265
  179SLPC   H8Y20495   3.855   2.945   9.438 -0.8523  2.3445 -3.3381
  179SLPC   C3920496   3.750   2.891   9.252 -0.2703  0.3645 -0.6230
  179SLPC   H9X20497   3.831   2.941   9.194  0.7375  0.1909  0.5812
  179SLPC   H9Y20498   3.668   2.966   9.251 -1.5606 -0.9466  0.8716
  179SLPC  C31020499   3.700   2.768   9.165  0.2848 -0.6290 -1.0004
  179SLPC  H10X20500   3.609   2.724   9.210 -0.2675  0.6767 -0.7953
  179SLPC  H10Y20501   3.775   2.687   9.154  1.7333  0.4835  0.2099
  179SLPC  C31120502   3.662   2.807   9.023 -0.1710  0.0879  0.2406
  179SLPC  H11X20503   3.759   2.836   8.977  1.3477 -2.4349  1.6133
  179SLPC  H11Y20504   3.585   2.886   9.024  0.7316  1.0497 -1.1724
  179SLPC  C31220505   3.618   2.689   8.936  0.1696 -0.2584 -0.5259
  179SLPC  H12X20506   3.522   2.655   8.980  0.3125 -0.2287 -0.1896
  179SLPC  H12Y20507   3.690   2.606   8.952  1.4355  0.5161 -1.8829
  179SLPC  C31320508   3.597   2.734   8.788 -0.1099  0.3653  0.7753
  179SLPC  H13X20509   3.692   2.716   8.735 -0.6260 -3.2871  0.7802
  179SLPC  H13Y20510   3.575   2.843   8.794  0.6946  0.6757 -1.2767
  179SLPC  C31420511   3.479   2.663   8.716 -0.1558 -0.3727  0.3009
  179SLPC  H14X20512   3.441   2.724   8.632  0.2164 -1.5605 -0.7670
  179SLPC  H14Y20513   3.407   2.652   8.800 -0.5586 -1.5233 -0.1663
  179SLPC  C31520514   3.512   2.527   8.655  0.0044  0.1029  0.3451
  179SLPC  H15X20515   3.556   2.465   8.736  1.1989 -1.8666 -1.6869
  179SLPC  H15Y20516   3.596   2.546   8.585 -0.1937 -2.7827 -0.8211
  179SLPC  C31620517   3.397   2.464   8.585 -0.2552  0.1064  0.2060
  179SLPC  H16X20518   3.361   2.518   8.495 -1.2080  0.0017  0.5131
  179SLPC  H16Y20519   3.317   2.469   8.663  0.0532  0.8546  0.4811
  179SLPC  C31720520   3.418   2.310   8.545 -0.4760 -0.6618 -0.2925
  179SLPC  H17X20521   3.455   2.259   8.637  1.6528  1.1153 -0.0923
  179SLPC  H17Y20522   3.492   2.304   8.462  0.7691 -0.6566  0.7940
  179SLPC  C31820523   3.297   2.223   8.503 -0.1793 -0.7304 -0.4993
  179SLPC  H18X20524   3.259   2.268   8.409  1.5425  0.5609 -0.6295
  179SLPC  H18Y20525   3.212   2.207   8.573 -1.1702  0.4052 -1.3958
  179SLPC  H18Z20526   3.337   2.120   8.490  1.0902 -0.5735  1.6544
  180SLPC     N20527   4.854   6.678  11.086  0.4393 -0.0466  0.0058
  180SLPC   C1320528   4.904   6.673  11.225  0.4167 -0.3841  0.1605
  180SLPC  H13A20529   4.828   6.653  11.300  0.3500 -1.8387 -0.2638
  180SLPC  H13B20530   4.987   6.604  11.234  0.2103 -0.7124 -0.4151
  180SLPC  H13C20531   4.937   6.773  11.249  0.4795 -0.3720  0.0206
  180SLPC   C1420532   4.751   6.784  11.073 -0.5183  0.1065  0.1166
  180SLPC  H14A20533   4.725   6.799  10.970 -3.6706 -1.2982  0.6098
  180SLPC  H14B20534   4.669   6.757  11.138  1.0528 -0.9762  1.7787
  180SLPC  H14C20535   4.787   6.877  11.116 -0.2676 -0.6067  1.5234
  180SLPC   C1520536   4.791   6.544  11.060  0.0513 -0.3048 -0.3770
  180SLPC  H15A20537   4.708   6.538  11.129 -1.1067 -0.3560 -1.7460
  180SLPC  H15B20538   4.751   6.534  10.960 -2.9043  0.8413  0.5736
  180SLPC  H15C20539   4.855   6.460  11.082  2.0903  1.0720 -0.7545
  180SLPC   C1220540   4.974   6.698  10.995  0.0870 -0.1885 -0.2164
  180SLPC  H12A20541   5.064   6.646  11.027  0.0077 -0.2810 -0.1437
  180SLPC  H12B20542   5.008   6.800  10.998  1.9580 -0.7588 -0.0049
  180SLPC   C1120543   4.955   6.665  10.847  0.5343 -1.2764 -0.0144
  180SLPC  H11A20544   5.039   6.701  10.784  0.7193 -0.9399  0.4169
  180SLPC  H11B20545   4.872   6.728  10.809  0.3416 -1.3832  0.2221
  180SLPC     P20546   5.034   6.425  10.849 -0.1996 -0.1980  0.0723
  180SLPC   O1320547   5.141   6.475  10.939  0.0066 -0.2346 -0.0043
  180SLPC   O1420548   4.965   6.307  10.902 -0.7063 -0.8974  0.2415
  180SLPC   O1220549   4.924   6.535  10.818 -0.5741 -0.1692 -0.1377
  180SLPC   O1120550   5.084   6.402  10.703  0.6000 -0.3562 -0.8052
  180SLPC    C120551   4.998   6.426  10.593  0.0960  0.2043  0.2908
  180SLPC    HA20552   4.891   6.401  10.611  0.3881 -0.8320  0.6229
  180SLPC    HB20553   4.991   6.534  10.564  0.0693  0.3773  0.9379
  180SLPC    C220554   5.040   6.333  10.474 -0.0464  0.2560 -0.2947
  180SLPC    HS20555   4.995   6.381  10.384  0.7649  0.1523 -0.7660
  180SLPC   O2120556   4.985   6.193  10.497  0.7100  0.8384 -0.5110
  180SLPC   C2120557   4.855   6.181  10.481  0.6189 -1.1148  0.7048
  180SLPC   O2220558   4.781   6.275  10.451  0.3817 -0.3154 -0.6266
  180SLPC   C2220559   4.820   6.034  10.498  0.6577  0.4308  0.5173
  180SLPC   H2R20560   4.870   5.985  10.412 -0.5204 -0.8112  0.5125
  180SLPC   H2S20561   4.871   5.994  10.588  2.4446 -1.4291 -1.2157
  180SLPC    C320562   5.186   6.324  10.453  0.5011 -0.0590 -0.8840
  180SLPC    HX20563   5.232   6.252  10.525 -0.9871 -2.2602 -2.0154
  180SLPC    HY20564   5.225   6.423  10.486  0.0319  0.5979 -2.2403
  180SLPC   O3120565   5.226   6.280  10.326  0.6094 -0.4568  0.0628
  180SLPC   C3120566   5.237   6.365  10.226  0.0491 -0.0261 -0.0783
  180SLPC   O3220567   5.217   6.488  10.238 -0.1491 -0.7246  0.6627
  180SLPC   C3220568   5.265   6.302  10.093 -0.0407  0.0684 -0.4853
  180SLPC   H2X20569   5.194   6.216  10.092  0.8362 -0.7192  1.2358
  180SLPC   H2Y20570   5.370   6.266  10.092  0.3058  1.0650 -0.5450
  180SLPC   C2320571   4.668   5.992  10.502  0.0866  0.6955  0.5040
  180SLPC   H3R20572   4.619   6.074  10.559 -1.4964 -1.1194  1.8674
  180SLPC   H3S20573   4.658   5.899  10.562  1.6487  0.2042  0.0506
  180SLPC   C2420574   4.602   5.982  10.358  0.4788 -0.1219  0.0575
  180SLPC   H4R20575   4.652   6.064  10.303 -0.9168 -0.4247 -1.7781
  180SLPC   H4S20576   4.493   6.006  10.357  0.2376 -1.1935 -0.4944
  180SLPC   C2520577   4.607   5.840  10.297 -0.1137 -0.0242 -0.2664
  180SLPC   H5R20578   4.535   5.785  10.361 -0.3045  2.0286  1.3774
  180SLPC   H5S20579   4.705   5.789  10.302 -0.2386 -0.3281 -0.8125
  180SLPC   C2620580   4.562   5.837  10.155  0.0338  0.1461 -0.6744
  180SLPC   H6R20581   4.455   5.867  10.160  0.1451  0.4762 -0.1481
  180SLPC   H6S20582   4.560   5.733  10.115 -1.9230  0.5040 -1.6301
  180SLPC   C2720583   4.620   5.945  10.063  0.1930  0.4494  0.1314
  180SLPC   H7R20584   4.580   6.043  10.096 -0.5714  0.4355 -0.7125
  180SLPC   H7S20585   4.577   5.936   9.961 -1.2260  1.2686  0.6277
  180SLPC   C2820586   4.773   5.964  10.056  0.4230  0.4301 -0.5827
  180SLPC   H8R20587   4.821   5.864  10.051 -0.3182 -0.0739  1.3201
  180SLPC   H8S20588   4.807   5.998  10.157 -3.7086 -0.4710  1.3115
  180SLPC   C2920589   4.801   6.058   9.941 -0.6086 -1.0351 -0.2003
  180SLPC   H9R20590   4.795   6.165   9.964  1.3005 -0.5116 -1.8787
  180SLPC  C21020591   4.832   6.025   9.814  0.4204 -0.0354 -0.2830
  180SLPC  H10R20592   4.820   6.096   9.731  2.1895 -0.6041 -1.0546
  180SLPC  C21120593   4.841   5.889   9.760 -0.4351 -0.0357  0.5408
  180SLPC  H11R20594   4.736   5.851   9.763 -0.6457  0.5766  1.7297
  180SLPC  H11S20595   4.902   5.818   9.820 -1.3436 -1.6273 -0.3538
  180SLPC  C21220596   4.915   5.880   9.627 -0.0184  0.4199  0.1456
  180SLPC  H12R20597   5.023   5.861   9.636 -0.1678 -3.1023 -2.8900
  180SLPC  C21320598   4.854   5.872   9.503 -0.3314  0.7313 -0.4052
  180SLPC  H13R20599   4.923   5.853   9.420  1.1495  0.1796  0.9154
  180SLPC  C21420600   4.704   5.888   9.479  0.5179 -0.0675 -0.4246
  180SLPC  H14R20601   4.692   5.977   9.413  3.1707 -0.2228 -1.2089
  180SLPC  H14S20602   4.637   5.911   9.564  1.8060 -0.1515  0.6318
  180SLPC  C21520603   4.653   5.763   9.403 -1.0429  0.5100  0.7349
  180SLPC  H15R20604   4.547   5.791   9.390 -1.0593  0.8064  1.4796
  180SLPC  H15S20605   4.685   5.676   9.464  0.8809  0.7729  0.1705
  180SLPC  C21620606   4.716   5.753   9.263  0.2182  1.2062 -0.9643
  180SLPC  H16R20607   4.801   5.681   9.270 -0.5839  0.0822 -2.3164
  180SLPC  H16S20608   4.748   5.853   9.227 -3.1014  3.0030  0.6351
  180SLPC  C21720609   4.604   5.698   9.164 -0.0620 -0.3022  0.5241
  180SLPC  H17R20610   4.577   5.595   9.196  0.9506 -0.2797  1.4982
  180SLPC  H17S20611   4.653   5.677   9.067 -0.3414  1.0506  0.0735
  180SLPC  C21820612   4.485   5.785   9.126  0.5550  0.1378  0.2724
  180SLPC  H18R20613   4.416   5.728   9.060 -0.1488  0.9450  0.2978
  180SLPC  H18S20614   4.523   5.872   9.069  1.9274 -1.3079 -1.1285
  180SLPC  H18T20615   4.428   5.822   9.215  0.2231  0.4977 -0.0866
  180SLPC   C3320616   5.231   6.395   9.972  0.0947  0.3374  0.9595
  180SLPC   H3X20617   5.286   6.359   9.883 -2.6064  2.4263 -1.7542
  180SLPC   H3Y20618   5.282   6.491   9.994  0.9098  0.1677 -0.1429
  180SLPC   C3420619   5.083   6.393   9.941  0.2774 -0.0152  0.6869
  180SLPC   H4X20620   5.026   6.436  10.026 -2.0794 -3.0637  0.8146
  180SLPC   H4Y20621   5.045   6.289   9.942  1.1818 -0.3731 -0.0284
  180SLPC   C3520622   5.062   6.454   9.802  0.3457 -0.2132  0.4098
  180SLPC   H5X20623   5.145   6.527   9.788  1.8991 -0.7582  5.1897
  180SLPC   H5Y20624   4.967   6.512   9.794  0.8819  0.4596 -1.7620
  180SLPC   C3620625   5.054   6.353   9.684  0.5792  0.1302 -0.4815
  180SLPC   H6X20626   4.988   6.269   9.713  0.5272  1.0108  2.2418
  180SLPC   H6Y20627   5.154   6.306   9.674 -0.1840 -1.8340  0.5392
  180SLPC   C3720628   5.006   6.427   9.559  0.6582 -0.3485  0.1743
  180SLPC   H7X20629   5.031   6.535   9.566  1.4892 -0.6080  1.7850
  180SLPC   H7Y20630   4.896   6.413   9.551  0.8091 -0.7509 -1.5931
  180SLPC   C3820631   5.065   6.370   9.426 -0.5824  0.1901 -0.4845
  180SLPC   H8X20632   5.170   6.407   9.429 -1.0546  1.7262 -1.7402
  180SLPC   H8Y20633   5.009   6.421   9.345  0.1188  1.2905 -0.2882
  180SLPC   C3920634   5.057   6.221   9.401  0.2400 -1.3326  0.3429
  180SLPC   H9X20635   4.950   6.193   9.395  0.4521 -2.0211 -0.4019
  180SLPC   H9Y20636   5.111   6.160   9.477 -0.7177 -4.2739 -1.1960
  180SLPC  C31020637   5.121   6.191   9.266  0.9683  0.0622  0.7870
  180SLPC  H10X20638   5.199   6.267   9.244 -2.2097  3.0272 -1.3002
  180SLPC  H10Y20639   5.046   6.221   9.190  1.4621  1.3157  0.7797
  180SLPC  C31120640   5.178   6.047   9.254  0.1542 -0.1665  0.3722
  180SLPC  H11X20641   5.111   5.974   9.306 -1.2502  0.6717 -0.1950
  180SLPC  H11Y20642   5.262   6.039   9.326 -1.0990 -2.6136  1.7067
  180SLPC  C31220643   5.210   5.997   9.114  1.0808  0.1064 -0.5677
  180SLPC  H12X20644   5.118   6.004   9.053  1.3188  0.7911 -0.8646
  180SLPC  H12Y20645   5.234   5.889   9.116  2.0682  0.3214 -0.1551
  180SLPC  C31320646   5.333   6.064   9.057 -0.1033  0.3228 -0.2363
  180SLPC  H13X20647   5.422   6.021   9.108 -0.1257 -0.7719 -1.0634
  180SLPC  H13Y20648   5.333   6.173   9.077  0.2674  0.3124 -0.1715
  180SLPC  C31420649   5.356   6.050   8.900  0.1947  0.3807 -0.1151
  180SLPC  H14X20650   5.336   5.951   8.854  1.4987  1.0235 -2.1913
  180SLPC  H14Y20651   5.465   6.073   8.896  0.4775 -0.7721  0.4805
  180SLPC  C31520652   5.277   6.152   8.817 -0.0886 -0.5315 -0.2012
  180SLPC  H15X20653   5.304   6.254   8.851  1.3071 -1.3362  1.2103
  180SLPC  H15Y20654   5.167   6.142   8.830 -0.1418  0.6788  0.4315
  180SLPC  C31620655   5.320   6.144   8.668  0.2302 -0.3749 -0.6578
  180SLPC  H16X20656   5.294   6.037   8.650  3.3892 -1.0781 -1.5801
  180SLPC  H16Y20657   5.428   6.162   8.650  0.3387  0.3516  0.6532
  180SLPC  C31720658   5.263   6.259   8.578 -0.1971  0.7289 -0.2893
  180SLPC  H17X20659   5.152   6.253   8.575 -0.1572  0.4195 -2.3167
  180SLPC  H17Y20660   5.299   6.229   8.478  0.6220  0.4688  0.0741
  180SLPC  C31820661   5.336   6.391   8.610 -0.6164  0.3419 -0.0253
  180SLPC  H18X20662   5.301   6.467   8.537  0.5063  0.2838 -0.6355
  180SLPC  H18Y20663   5.446   6.379   8.604 -0.5903  0.5848 -0.0619
  180SLPC  H18Z20664   5.318   6.433   8.711  0.5981  2.8591 -0.7676
  181SLPC     N20665   1.597   5.675  10.945  0.0425 -0.1071 -0.2019
  181SLPC   C1320666   1.543   5.704  10.804 -0.3620 -0.6830 -1.1958
  181SLPC  H13A20667   1.505   5.805  10.802 -0.9672 -0.9225 -2.3928
  181SLPC  H13B20668   1.620   5.707  10.729 -0.4622  1.5740 -1.2621
  181SLPC  H13C20669   1.462   5.639  10.772  0.9584 -1.5731 -2.9132
  181SLPC   C1420670   1.493   5.711  11.051  0.2400 -0.6438 -0.1589
  181SLPC  H14A20671   1.532   5.705  11.152 -3.6364  0.9991  1.6197
  181SLPC  H14B20672   1.456   5.812  11.042 -0.4645 -0.4435  3.4424
  181SLPC  H14C20673   1.404   5.649  11.045 -1.7496  1.4214  3.9042
  181SLPC   C1520674   1.717   5.759  10.972 -0.6361 -0.4498 -0.1329
  181SLPC  H15A20675   1.796   5.726  10.907 -0.3567  0.2869 -0.1781
  181SLPC  H15B20676   1.714   5.865  10.950 -0.5305 -0.4892 -0.3418
  181SLPC  H15C20677   1.740   5.760  11.078 -0.9778  1.5104 -0.0293
  181SLPC   C1220678   1.623   5.528  10.954  0.2780  0.1070  0.0199
  181SLPC  H12A20679   1.530   5.481  10.926  0.3742  0.0009 -0.1268
  181SLPC  H12B20680   1.634   5.502  11.058 -0.6289 -0.4226 -0.0111
  181SLPC   C1120681   1.729   5.467  10.866 -0.3440  0.7329  0.5654
  181SLPC  H11A20682   1.718   5.499  10.761  2.3238  1.0136  0.2981
  181SLPC  H11B20683   1.699   5.360  10.878 -1.0358  0.8489 -0.0723
  181SLPC     P20684   1.931   5.410  11.022  0.2608 -0.1698  0.6605
  181SLPC   O1320685   2.078   5.445  11.019  0.3008 -0.4759 -0.1831
  181SLPC   O1420686   1.869   5.426  11.158 -0.0153 -0.1175  0.2065
  181SLPC   O1220687   1.858   5.495  10.907  0.3942  0.5630 -0.1125
  181SLPC   O1120688   1.914   5.252  10.973 -0.2191 -0.1352 -0.5047
  181SLPC    C120689   1.965   5.208  10.844  0.3285 -0.4527 -0.2656
  181SLPC    HA20690   1.894   5.129  10.813 -0.4507  0.0085  0.3164
  181SLPC    HB20691   1.951   5.281  10.761  0.8742 -1.1862 -1.0248
  181SLPC    C220692   2.103   5.141  10.837  0.6765  0.3927  0.6229
  181SLPC    HS20693   2.186   5.211  10.814  2.2974 -0.8718  2.3821
  181SLPC   O2120694   2.103   5.050  10.724 -0.1182  0.3353  0.2031
  181SLPC   C2120695   2.103   5.104  10.596 -0.2127  0.2750 -0.1678
  181SLPC   O2220696   2.099   5.218  10.566 -0.2334  0.1805  0.1380
  181SLPC   C2220697   2.111   5.000  10.481  0.7990  0.3496  0.8131
  181SLPC   H2R20698   2.199   4.937  10.504  1.0541 -0.4744 -1.9682
  181SLPC   H2S20699   2.020   4.937  10.494 -0.3986  2.2550  2.1214
  181SLPC    C320700   2.139   5.064  10.960  0.5216 -0.6429 -1.2480
  181SLPC    HX20701   2.051   4.998  10.976 -1.1562  1.5493 -1.0791
  181SLPC    HY20702   2.147   5.125  11.052 -2.6488  0.5055 -1.6091
  181SLPC   O3120703   2.263   4.986  10.963 -0.6022 -0.5728 -0.1064
  181SLPC   C3120704   2.245   4.859  10.942 -0.7338  0.5454 -0.4773
  181SLPC   O3220705   2.141   4.813  10.904  0.3370 -0.2103 -0.1657
  181SLPC   C3220706   2.369   4.781  10.991  0.6071  0.0942 -0.1265
  181SLPC   H2X20707   2.326   4.697  11.051  3.0478 -1.7930 -0.8675
  181SLPC   H2Y20708   2.421   4.841  11.069  2.0281  0.4346 -1.3092
  181SLPC   C2320709   2.134   5.068  10.341 -0.0249  0.1061 -0.3115
  181SLPC   H3R20710   2.235   5.112  10.355  0.7540 -2.0959  1.8485
  181SLPC   H3S20711   2.074   5.160  10.325  0.2565  0.2161 -0.7363
  181SLPC   C2420712   2.103   4.964  10.233 -0.3653 -0.9398 -0.0938
  181SLPC   H4R20713   1.992   4.966  10.228 -0.3367  1.3939 -1.0411
  181SLPC   H4S20714   2.146   4.867  10.265  0.0357 -0.3006  1.3582
  181SLPC   C2520715   2.155   4.994  10.089 -0.4824  1.2571 -0.0161
  181SLPC   H5R20716   2.265   4.979  10.097 -0.4173  1.8273  0.2530
  181SLPC   H5S20717   2.139   5.101  10.065  1.0127  2.0690  2.1941
  181SLPC   C2620718   2.106   4.893   9.989  0.2365  0.2706  0.5008
  181SLPC   H6R20719   1.998   4.908   9.971  0.2030 -1.1082 -0.6696
  181SLPC   H6S20720   2.118   4.786  10.017  0.5219 -0.6948 -2.8368
  181SLPC   C2720721   2.175   4.915   9.851 -1.1990 -0.3259  0.3823
  181SLPC   H7R20722   2.284   4.897   9.866 -1.1569  0.2598  0.8198
  181SLPC   H7S20723   2.174   5.021   9.817 -0.7042  0.0862  1.5934
  181SLPC   C2820724   2.121   4.822   9.748  0.2309  0.0185  0.1792
  181SLPC   H8R20725   2.017   4.858   9.731  0.1912 -0.4712 -0.6566
  181SLPC   H8S20726   2.097   4.721   9.786 -3.8470  0.6543 -0.2978
  181SLPC   C2920727   2.192   4.826   9.615 -1.0700 -0.6784 -0.5423
  181SLPC   H9R20728   2.298   4.801   9.630 -1.1645 -1.7577 -1.5982
  181SLPC  C21020729   2.144   4.859   9.494 -0.7325  0.4315  0.5058
  181SLPC  H10R20730   2.210   4.864   9.406 -1.8992  0.4201 -0.3877
  181SLPC  C21120731   2.003   4.908   9.468 -0.3739  0.0044  0.6278
  181SLPC  H11R20732   1.959   4.965   9.554 -0.7942 -0.5702  0.7998
  181SLPC  H11S20733   1.940   4.817   9.456 -1.9935  1.1005  0.4175
  181SLPC  C21220734   1.982   4.995   9.347 -0.0212 -0.9632  0.3382
  181SLPC  H12R20735   1.971   5.103   9.370 -3.4411 -0.6073 -2.3560
  181SLPC  C21320736   1.980   4.959   9.214  0.5372  0.0630 -0.5495
  181SLPC  H13R20737   1.965   5.036   9.137 -2.2065  0.4483  0.2743
  181SLPC  C21420738   1.984   4.818   9.148  0.3839  0.2740 -0.8132
  181SLPC  H14R20739   1.935   4.818   9.048  1.2851  0.1560 -1.2639
  181SLPC  H14S20740   1.927   4.752   9.217  3.3755 -0.6400  0.9531
  181SLPC  C21520741   2.126   4.762   9.141  0.2937 -0.2391  0.4114
  181SLPC  H15R20742   2.198   4.813   9.209 -1.1446 -1.0371  2.6560
  181SLPC  H15S20743   2.177   4.790   9.047  0.3716 -2.5837 -0.3149
  181SLPC  C21620744   2.139   4.610   9.154 -1.0459 -0.5016  0.4262
  181SLPC  H16R20745   2.248   4.588   9.157 -0.2065  3.1522  2.5585
  181SLPC  H16S20746   2.098   4.545   9.074  1.4690 -0.8127 -0.7119
  181SLPC  C21720747   2.092   4.542   9.286 -0.5524 -0.8472 -0.1185
  181SLPC  H17R20748   1.981   4.543   9.282 -0.6736  0.6952  1.9472
  181SLPC  H17S20749   2.122   4.600   9.376 -2.2948 -2.3467  1.5108
  181SLPC  C21820750   2.138   4.396   9.301  0.2123 -0.2938  0.3354
  181SLPC  H18R20751   2.100   4.342   9.391  1.2419 -0.8587  0.4491
  181SLPC  H18S20752   2.249   4.390   9.308  0.0593 -1.2181  3.6130
  181SLPC  H18T20753   2.096   4.336   9.217  0.0248 -1.2065  1.0695
  181SLPC   C3320754   2.451   4.725  10.876 -0.0812 -0.5515 -0.1916
  181SLPC   H3X20755   2.384   4.696  10.792  0.7321  0.2055 -1.1251
  181SLPC   H3Y20756   2.512   4.638  10.909 -0.1987 -0.4856  0.2020
  181SLPC   C3420757   2.552   4.833  10.822 -1.6411 -1.0443  0.4288
  181SLPC   H4X20758   2.629   4.856  10.898 -0.5176  0.8828 -1.2083
  181SLPC   H4Y20759   2.494   4.923  10.795 -0.7978 -0.3520  0.8925
  181SLPC   C3520760   2.628   4.788  10.683  0.7767  0.3241 -0.1414
  181SLPC   H5X20761   2.667   4.684  10.694 -2.8097 -1.0482  1.2464
  181SLPC   H5Y20762   2.713   4.859  10.673  0.6771  0.3185 -1.0458
  181SLPC   C3620763   2.536   4.810  10.565  0.5120 -0.0082  0.1473
  181SLPC   H6X20764   2.517   4.919  10.562  1.1058  0.1502 -4.2713
  181SLPC   H6Y20765   2.433   4.774  10.585  1.5011 -1.0419  4.3989
  181SLPC   C3720766   2.589   4.757  10.428  0.1338 -0.0656  0.6836
  181SLPC   H7X20767   2.571   4.647  10.430  0.9724 -0.2160  0.3640
  181SLPC   H7Y20768   2.699   4.765  10.432  0.1548  3.6587 -1.9067
  181SLPC   C3820769   2.533   4.829  10.301  0.1953  0.5228  0.0631
  181SLPC   H8X20770   2.561   4.937  10.303  1.3750  0.2276  1.6129
  181SLPC   H8Y20771   2.422   4.835  10.302  0.1885  0.6234  1.5466
  181SLPC   C3920772   2.585   4.777  10.162 -1.2412  0.9751 -0.1781
  181SLPC   H9X20773   2.514   4.698  10.127  1.2310 -0.5725 -2.0518
  181SLPC   H9Y20774   2.690   4.739  10.165 -2.4303 -2.8678 -0.6488
  181SLPC  C31020775   2.578   4.884  10.051 -0.1658  0.0097  0.6033
  181SLPC  H10X20776   2.650   4.960  10.088  1.2864 -1.4067  0.7987
  181SLPC  H10Y20777   2.479   4.929  10.030  0.5806  0.3016 -2.9144
  181SLPC  C31120778   2.639   4.827   9.923 -0.1088  0.4564 -0.4285
  181SLPC  H11X20779   2.744   4.791   9.935  0.7780  3.1282  0.6831
  181SLPC  H11Y20780   2.645   4.914   9.854  0.3269 -1.0887 -2.4286
  181SLPC  C31220781   2.554   4.710   9.863 -0.2984 -0.1986 -0.3263
  181SLPC  H12X20782   2.457   4.759   9.840 -0.0267  0.3994 -0.2359
  181SLPC  H12Y20783   2.546   4.628   9.937  1.1069  0.8595  1.0881
  181SLPC  C31320784   2.620   4.650   9.738  0.1644 -0.3944 -0.3596
  181SLPC  H13X20785   2.727   4.625   9.756  0.4746 -0.6764 -2.3670
  181SLPC  H13Y20786   2.618   4.734   9.666  2.7437 -1.0533 -1.3256
  181SLPC  C31420787   2.550   4.526   9.683  0.5060 -0.3975 -0.1380
  181SLPC  H14X20788   2.439   4.529   9.693  0.2823 -0.4389 -2.2596
  181SLPC  H14Y20789   2.595   4.439   9.736  1.7252 -0.1699 -0.7704
  181SLPC  C31520790   2.586   4.507   9.533 -0.0718 -0.0818 -0.9758
  181SLPC  H15X20791   2.696   4.496   9.539 -0.0736  0.5626  2.2501
  181SLPC  H15Y20792   2.567   4.603   9.481  0.1975  0.4859 -0.0644
  181SLPC  C31620793   2.519   4.396   9.441 -0.2355  0.1699  0.0056
  181SLPC  H16X20794   2.414   4.430   9.428 -0.0673  0.2338 -1.2842
  181SLPC  H16Y20795   2.511   4.292   9.482  0.5524  0.0180 -0.2123
  181SLPC  C31720796   2.594   4.377   9.304  0.2543  0.1522 -0.6729
  181SLPC  H17X20797   2.575   4.281   9.251  0.7643  0.1104 -0.7833
  181SLPC  H17Y20798   2.703   4.392   9.320  0.1144  3.6411 -2.1855
  181SLPC  C31820799   2.554   4.487   9.200 -0.6645 -0.6076  1.0784
  181SLPC  H18X20800   2.443   4.489   9.190 -0.5409 -1.1066 -0.7087
  181SLPC  H18Y20801   2.589   4.452   9.101  1.3399  2.1156  0.7360
  181SLPC  H18Z20802   2.605   4.582   9.222  1.3858 -1.7485  1.4651
  182SLPC     N20803   5.916   5.741  10.930  0.0604  0.1702  0.8454
  182SLPC   C1320804   5.976   5.811  10.813 -0.0347  0.2853  0.9122
  182SLPC  H13A20805   6.084   5.814  10.819  0.2184  0.7707 -2.1185
  182SLPC  H13B20806   5.973   5.748  10.725  2.5114 -0.3520  1.1932
  182SLPC  H13C20807   5.943   5.912  10.794 -1.8689 -0.7334 -2.0390
  182SLPC   C1420808   5.768   5.742  10.919  0.4662  0.2554  0.8026
  182SLPC  H14A20809   5.741   5.845  10.900 -2.9829 -0.5892  0.5114
  182SLPC  H14B20810   5.729   5.682  10.839 -2.0536  1.1638  1.2693
  182SLPC  H14C20811   5.722   5.710  11.012  0.8880 -1.7816  0.3529
  182SLPC   C1520812   5.966   5.823  11.049 -0.1645 -1.0226  0.4127
  182SLPC  H15A20813   6.063   5.867  11.032 -0.5608 -0.1005  0.4943
  182SLPC  H15B20814   5.905   5.911  11.053  2.1419  0.6917 -0.0235
  182SLPC  H15C20815   5.969   5.765  11.140  2.5519 -0.0739  1.0095
  182SLPC   C1220816   5.961   5.602  10.941 -0.6058 -0.2935  0.0000
  182SLPC  H12A20817   5.896   5.553  11.012 -1.1779 -1.9825 -1.6073
  182SLPC  H12B20818   6.058   5.605  10.987  0.7325 -1.2184 -2.5459
  182SLPC   C1120819   5.967   5.513  10.819 -0.6525  0.0307 -0.0851
  182SLPC  H11A20820   6.049   5.539  10.748  0.4294 -1.2716  0.6402
  182SLPC  H11B20821   5.876   5.526  10.757 -0.9421  0.3835  0.4055
  182SLPC     P20822   5.890   5.268  10.908 -0.1494  0.2973  0.3452
  182SLPC   O1320823   5.958   5.140  10.900 -0.2279 -0.7908 -0.9742
  182SLPC   O1420824   5.852   5.316  11.043 -0.5953  0.3452 -0.5776
  182SLPC   O1220825   5.993   5.379  10.850 -0.5510  0.1036 -0.4798
  182SLPC   O1120826   5.774   5.285  10.800 -0.2680  0.7674  0.2262
  182SLPC    C120827   5.759   5.202  10.685 -0.9462  0.7971 -0.6234
  182SLPC    HA20828   5.789   5.098  10.713 -0.2647  1.0700 -0.3266
  182SLPC    HB20829   5.653   5.204  10.652 -0.8965 -0.1419 -0.8707
  182SLPC    C220830   5.858   5.238  10.569  0.2583  0.0678  0.8653
  182SLPC    HS20831   5.963   5.211  10.595  0.3884 -1.4060 -1.0159
  182SLPC   O2120832   5.839   5.378  10.533 -0.1476 -0.3635 -0.3076
  182SLPC   C2120833   5.935   5.435  10.475 -0.2972 -0.5472 -0.5608
  182SLPC   O2220834   6.042   5.384  10.464 -0.2933  0.1689  0.1356
  182SLPC   C2220835   5.896   5.571  10.424  0.4913 -0.6663 -1.0335
  182SLPC   H2R20836   5.805   5.556  10.362  0.4606 -1.6057 -0.7766
  182SLPC   H2S20837   5.854   5.639  10.501 -1.4106 -0.9308 -1.7794
  182SLPC    C320838   5.827   5.140  10.449  0.2123  0.1044  0.2738
  182SLPC    HX20839   5.719   5.114  10.440  0.6031 -1.4451 -0.3198
  182SLPC    HY20840   5.866   5.039  10.474 -0.4537  0.1748  1.7220
  182SLPC   O3120841   5.874   5.189  10.322 -0.6374  1.2299  0.3764
  182SLPC   C3120842   5.997   5.144  10.288 -0.1511 -0.3051 -0.1891
  182SLPC   O3220843   6.065   5.070  10.358  0.7728  0.1988 -0.3691
  182SLPC   C3220844   6.033   5.188  10.145 -0.3951  0.2603 -0.1653
  182SLPC   H2X20845   6.137   5.153  10.126 -0.5421 -0.6133  0.5468
  182SLPC   H2Y20846   6.023   5.299  10.145  0.4380  0.3477 -0.5172
  182SLPC   C2320847   6.011   5.625  10.342  0.5319 -0.5186 -0.1668
  182SLPC   H3R20848   6.104   5.617  10.402 -1.8732 -5.2309  3.7264
  182SLPC   H3S20849   5.992   5.734  10.346 -0.8235 -0.6836 -1.1631
  182SLPC   C2420850   6.037   5.596  10.198  0.4215  0.0598  0.3122
  182SLPC   H4R20851   6.063   5.489  10.180 -0.9482 -0.2986  0.3231
  182SLPC   H4S20852   6.121   5.651  10.151 -1.0935  1.2414 -1.1356
  182SLPC   C2520853   5.918   5.625  10.100  0.7055 -0.0654  0.0178
  182SLPC   H5R20854   5.917   5.735  10.093  0.3651  0.0504  1.4622
  182SLPC   H5S20855   5.826   5.583  10.146 -0.0209  1.2919 -0.1767
  182SLPC   C2620856   5.953   5.576   9.958  1.1206 -0.2181 -0.2703
  182SLPC   H6R20857   5.984   5.470   9.948  0.0566 -0.6533  0.7333
  182SLPC   H6S20858   6.027   5.646   9.913  0.1428  0.4037 -0.9566
  182SLPC   C2720859   5.820   5.602   9.869  0.3894  0.8164 -0.0406
  182SLPC   H7R20860   5.769   5.692   9.912  0.7160  1.4353 -0.9204
  182SLPC   H7S20861   5.756   5.520   9.906  2.5917 -0.3265  1.4281
  182SLPC   C2820862   5.832   5.609   9.722  0.9567  0.5017 -0.0686
  182SLPC   H8R20863   5.903   5.694   9.709  1.0270  0.7933  1.9164
  182SLPC   H8S20864   5.730   5.629   9.683  0.2091 -1.8919  0.4955
  182SLPC   C2920865   5.877   5.483   9.654  0.6643  0.4309 -0.5083
  182SLPC   H9R20866   5.986   5.469   9.657  0.6822  0.3674 -1.2206
  182SLPC  C21020867   5.800   5.370   9.610 -0.1518 -0.5147 -0.4109
  182SLPC  H10R20868   5.849   5.282   9.567  2.3989  1.2512 -1.3870
  182SLPC  C21120869   5.650   5.372   9.606 -0.4070  0.3269 -0.1503
  182SLPC  H11R20870   5.614   5.405   9.506 -0.8637  0.5258  0.0809
  182SLPC  H11S20871   5.611   5.447   9.677  0.0384 -1.6385  2.3067
  182SLPC  C21220872   5.571   5.240   9.632 -0.2163 -0.7659 -0.0133
  182SLPC  H12R20873   5.532   5.182   9.547 -1.0035 -1.3608  0.7384
  182SLPC  C21320874   5.517   5.203   9.750  1.0224 -0.5727 -0.0907
  182SLPC  H13R20875   5.439   5.125   9.755 -2.3678  2.2936 -2.8683
  182SLPC  C21420876   5.535   5.282   9.881 -0.6043  0.5016  0.2741
  182SLPC  H14R20877   5.596   5.372   9.859 -0.6843 -0.0241 -2.5580
  182SLPC  H14S20878   5.588   5.212   9.950  0.3908  0.7301 -0.2337
  182SLPC  C21520879   5.411   5.342   9.930 -0.2352  1.5431 -0.7891
  182SLPC  H15R20880   5.356   5.254   9.971  1.4467  0.8079 -0.0018
  182SLPC  H15S20881   5.351   5.388   9.849 -1.6132  0.7255 -0.2720
  182SLPC  C21620882   5.438   5.439  10.036 -0.2514 -0.3148  0.0438
  182SLPC  H16R20883   5.345   5.479  10.081 -0.0864  0.8767 -0.6432
  182SLPC  H16S20884   5.485   5.526   9.986 -2.0650 -0.2370 -1.6049
  182SLPC  C21720885   5.514   5.397  10.159 -1.0316 -0.4599 -0.5838
  182SLPC  H17R20886   5.568   5.482  10.205 -1.1530 -0.5336 -0.3087
  182SLPC  H17S20887   5.595   5.327  10.131  0.3796  1.5581 -1.8682
  182SLPC  C21820888   5.425   5.341  10.267  0.1321  0.7826 -0.1020
  182SLPC  H18R20889   5.481   5.315  10.359  1.6972  0.0228 -1.2129
  182SLPC  H18S20890   5.375   5.250  10.230  0.2678  1.5715 -2.3996
  182SLPC  H18T20891   5.343   5.412  10.290 -0.7938  0.4194 -2.0665
  182SLPC   C3320892   5.937   5.129  10.040  0.2641  0.3723 -0.4827
  182SLPC   H3X20893   5.860   5.203  10.009  1.4885  2.3680  0.9995
  182SLPC   H3Y20894   5.885   5.042  10.084  2.8411 -0.9895  0.0894
  182SLPC   C3420895   6.007   5.086   9.909  0.7473 -0.7296 -0.2002
  182SLPC   H4X20896   6.088   5.016   9.939  0.0351 -2.3922 -1.9721
  182SLPC   H4Y20897   6.066   5.172   9.872  2.9179 -1.2955  1.7265
  182SLPC   C3520898   5.916   5.036   9.807  0.1662  0.0433  0.2539
  182SLPC   H5X20899   5.848   5.121   9.785 -0.0720 -0.0058  0.7860
  182SLPC   H5Y20900   5.859   4.947   9.842  1.4578 -0.4097  1.2953
  182SLPC   C3620901   5.983   5.018   9.672  0.4647 -0.2882  0.3691
  182SLPC   H6X20902   6.054   4.933   9.680  2.1552  1.0667  0.4616
  182SLPC   H6Y20903   6.043   5.108   9.644 -0.6720  0.6578  0.8671
  182SLPC   C3720904   5.884   4.987   9.557 -1.1441 -0.3560 -0.6130
  182SLPC   H7X20905   5.810   5.067   9.538  1.9740  2.3764 -2.3427
  182SLPC   H7Y20906   5.835   4.889   9.575  0.4223 -0.9482  0.7631
  182SLPC   C3820907   5.964   4.970   9.425  0.4174 -0.4134  0.3498
  182SLPC   H8X20908   5.904   4.909   9.354  0.7421 -1.4463  0.9398
  182SLPC   H8Y20909   6.056   4.916   9.456  0.2750  0.3641  2.2818
  182SLPC   C3920910   6.003   5.106   9.360 -0.3752 -0.0802  0.0227
  182SLPC   H9X20911   6.063   5.160   9.436 -0.9868  0.1496  0.3513
  182SLPC   H9Y20912   5.913   5.159   9.322 -0.3473 -1.2463 -1.8190
  182SLPC  C31020913   6.078   5.086   9.228 -0.2931 -0.2014 -0.0764
  182SLPC  H10X20914   6.171   5.025   9.238  0.4159  0.9188  0.4670
  182SLPC  H10Y20915   6.112   5.186   9.192 -0.2598  0.3312  1.3463
  182SLPC  C31120916   5.991   5.023   9.121 -0.0427 -0.1245 -0.4592
  182SLPC  H11X20917   5.890   5.070   9.119 -0.6155 -1.2184  0.7993
  182SLPC  H11Y20918   5.985   4.918   9.158  1.4924  0.0525  0.3914
  182SLPC  C31220919   6.058   5.011   8.984  1.0794  0.9162  0.8542
  182SLPC  H12X20920   6.155   4.958   8.996  1.2035  0.0863 -2.5750
  182SLPC  H12Y20921   6.079   5.116   8.955 -0.3641  1.2216  0.8183
  182SLPC  C31320922   5.963   4.957   8.880 -0.0778 -0.4606 -0.0920
  182SLPC  H13X20923   5.908   4.866   8.913  0.3602 -1.6917 -2.5417
  182SLPC  H13Y20924   6.025   4.925   8.794  0.0268  0.5879 -0.4184
  182SLPC  C31420925   5.856   5.066   8.829  0.1442  0.3013 -0.1969
  182SLPC  H14X20926   5.921   5.153   8.808  0.3728  0.5356  1.3517
  182SLPC  H14Y20927   5.789   5.098   8.912  2.2551  0.2441  1.6201
  182SLPC  C31520928   5.767   5.013   8.708 -0.3308  0.1732  0.7573
  182SLPC  H15X20929   5.700   4.932   8.744 -2.9676 -0.1781 -4.0218
  182SLPC  H15Y20930   5.830   4.955   8.637  0.3088 -1.1148  2.3143
  182SLPC  C31620931   5.694   5.117   8.627  0.3866 -0.4177 -0.3485
  182SLPC  H16X20932   5.768   5.187   8.585  0.7828 -1.4157 -1.3683
  182SLPC  H16Y20933   5.628   5.170   8.699  2.1196 -1.5133  2.2022
  182SLPC  C31720934   5.600   5.063   8.515 -0.4668  0.2645  0.2956
  182SLPC  H17X20935   5.658   4.985   8.462  0.3981  1.1270 -0.0753
  182SLPC  H17Y20936   5.574   5.149   8.449 -2.7149 -0.2572  0.4202
  182SLPC  C31820937   5.468   5.009   8.570 -0.5068 -0.1381  0.4512
  182SLPC  H18X20938   5.418   5.090   8.627  1.9276  0.1951  2.2800
  182SLPC  H18Y20939   5.475   4.920   8.636 -1.1227 -0.4358  0.1275
  182SLPC  H18Z20940   5.407   4.978   8.482 -1.6223  1.7152  0.5083
  183SLPC     N20941   1.018   5.019  10.912 -0.1636  0.0315  0.2644
  183SLPC   C1320942   1.054   4.872  10.930  0.1217 -0.0692 -0.4621
  183SLPC  H13A20943   1.040   4.817  10.838  1.8290 -2.3057  0.5462
  183SLPC  H13B20944   1.159   4.867  10.955  0.1408 -0.9819 -0.6815
  183SLPC  H13C20945   1.001   4.836  11.017 -1.8026 -1.5662 -2.1316
  183SLPC   C1420946   1.026   5.100  11.034 -0.4619  0.1376 -0.2130
  183SLPC  H14A20947   1.132   5.120  11.037 -0.6853  1.2648  0.7698
  183SLPC  H14B20948   0.972   5.194  11.032 -1.0032 -0.1750 -1.2757
  183SLPC  H14C20949   1.003   5.056  11.130  1.5211 -2.9602 -1.0006
  183SLPC   C1520950   0.876   5.011  10.877  0.4170  0.0690  0.6265
  183SLPC  H15A20951   0.838   5.112  10.867  1.0288  0.2969  0.5320
  183SLPC  H15B20952   0.857   4.945  10.794 -2.9337 -1.0602  2.1115
  183SLPC  H15C20953   0.826   4.955  10.954 -1.1348 -1.2359 -1.2210
  183SLPC   C1220954   1.101   5.075  10.799  0.1550  0.0256  0.5100
  183SLPC  H12A20955   1.055   5.166  10.763  0.8579 -0.7999 -2.8641
  183SLPC  H12B20956   1.088   5.018  10.708 -3.8711  0.7405  0.4718
  183SLPC   C1120957   1.259   5.106  10.831  0.6648  0.1257  0.8883
  183SLPC  H11A20958   1.311   5.124  10.734 -1.6415 -0.6035 -0.5832
  183SLPC  H11B20959   1.308   5.018  10.877  0.3160  0.6007  2.1918
  183SLPC     P20960   1.263   5.354  10.880  0.1404 -0.2560  0.5243
  183SLPC   O1320961   1.116   5.388  10.878 -0.3357 -0.2619  0.5913
  183SLPC   O1420962   1.348   5.435  10.960 -0.3600 -0.1502  0.6635
  183SLPC   O1220963   1.279   5.203  10.925  0.2821 -0.0682  0.3555
  183SLPC   O1120964   1.323   5.350  10.731 -0.5174  0.4972  0.4812
  183SLPC    C120965   1.273   5.428  10.615 -0.2949  0.2381 -0.6607
  183SLPC    HA20966   1.265   5.536  10.639  2.6298  0.4952 -0.4179
  183SLPC    HB20967   1.350   5.430  10.535  0.1863 -1.0467 -0.2662
  183SLPC    C220968   1.145   5.373  10.548  0.1967  0.3424 -0.9323
  183SLPC    HS20969   1.083   5.344  10.635  0.3497  0.2446 -0.8573
  183SLPC   O2120970   1.195   5.275  10.464  0.6594 -1.0183 -0.0435
  183SLPC   C2120971   1.116   5.173  10.459  0.2062 -0.5661  0.4228
  183SLPC   O2220972   1.014   5.152  10.520  1.1568  0.1726 -0.5778
  183SLPC   C2220973   1.173   5.090  10.335 -0.5914  0.1696  0.2741
  183SLPC   H2R20974   1.238   5.009  10.373 -1.1295 -0.7990 -0.7884
  183SLPC   H2S20975   1.091   5.038  10.280  2.1096 -2.4118 -1.6115
  183SLPC    C320976   1.068   5.483  10.462 -0.3510  0.1300 -0.7004
  183SLPC    HX20977   1.144   5.519  10.390  3.1875 -3.5597  0.7789
  183SLPC    HY20978   1.047   5.563  10.536  0.8280  0.2103 -0.4397
  183SLPC   O3120979   0.949   5.429  10.394  0.1814  0.3585  0.2767
  183SLPC   C3120980   0.840   5.421  10.472  0.0381  0.5711 -0.7370
  183SLPC   O3220981   0.836   5.441  10.592 -0.0920  0.0926  0.0736
  183SLPC   C3220982   0.732   5.382  10.381 -0.0275 -0.4930  0.7724
  183SLPC   H2X20983   0.630   5.383  10.425 -0.5584  2.3790 -0.3053
  183SLPC   H2Y20984   0.741   5.273  10.360 -0.8382 -0.4829  0.3463
  183SLPC   C2320985   1.262   5.166  10.231  0.4383 -0.3136 -0.0593
  183SLPC   H3R20986   1.361   5.181  10.278  0.0582  1.0996  0.3348
  183SLPC   H3S20987   1.219   5.262  10.195  1.6451 -0.5822 -2.4279
  183SLPC   C2420988   1.291   5.085  10.105 -0.6996  0.4439 -0.0679
  183SLPC   H4R20989   1.326   4.982  10.129  0.7176  1.3912  2.2378
  183SLPC   H4S20990   1.380   5.135  10.060 -1.4842  0.2761 -1.8789
  183SLPC   C2520991   1.170   5.075  10.007  0.0435  0.1687  0.0636
  183SLPC   H5R20992   1.114   5.167   9.979  1.7256  1.1215 -0.3632
  183SLPC   H5S20993   1.090   5.010  10.046  0.9688 -1.4657 -0.6684
  183SLPC   C2620994   1.209   5.010   9.866 -0.1832 -0.7072 -0.4655
  183SLPC   H6R20995   1.281   4.929   9.890  1.7348  0.7112 -1.1204
  183SLPC   H6S20996   1.266   5.084   9.807 -2.8020  0.9183 -1.1208
  183SLPC   C2720997   1.097   4.950   9.780 -0.4866 -0.2269 -0.1866
  183SLPC   H7R20998   1.021   5.026   9.751  0.6590  0.6596 -0.9527
  183SLPC   H7S20999   1.030   4.879   9.833  0.0147  0.4533  1.4099
  183SLPC   C2821000   1.154   4.892   9.648  0.1448  0.9032 -0.0814
  183SLPC   H8R21001   1.068   4.842   9.599  0.4222  1.3730 -1.0714
  183SLPC   H8S21002   1.216   4.804   9.672 -1.9049  0.2286  3.4339
  183SLPC   C2921003   1.206   5.006   9.563 -0.1240 -0.2388  0.8506
  183SLPC   H9R21004   1.181   5.104   9.606 -0.3612 -0.2325  0.7049
  183SLPC  C21021005   1.280   4.999   9.450 -0.5171  0.5575 -0.7016
  183SLPC  H10R21006   1.295   5.091   9.391 -0.5662  1.3514  0.4903
  183SLPC  C21121007   1.325   4.864   9.394 -0.5875  0.2225 -0.1923
  183SLPC  H11R21008   1.274   4.863   9.295 -1.7963  3.2073  0.2952
  183SLPC  H11S21009   1.293   4.773   9.450  0.8796 -1.4652 -1.9524
  183SLPC  C21221010   1.472   4.844   9.390 -0.3082  0.2792  0.6001
  183SLPC  H12R21011   1.505   4.790   9.480 -1.3913 -1.7712 -0.1597
  183SLPC  C21321012   1.563   4.881   9.289  0.2027 -0.0383 -0.5499
  183SLPC  H13R21013   1.670   4.861   9.302 -0.1494 -0.6187  2.1774
  183SLPC  C21421014   1.525   4.955   9.168 -1.0340  0.1662  0.5469
  183SLPC  H14R21015   1.590   5.045   9.165  0.3778 -0.8107  1.1018
  183SLPC  H14S21016   1.429   5.007   9.189  0.3202  3.0103  0.2021
  183SLPC  C21521017   1.519   4.880   9.033 -0.5778 -0.6871 -0.7644
  183SLPC  H15R21018   1.439   4.803   9.043 -0.7029 -0.3147  1.7558
  183SLPC  H15S21019   1.617   4.839   9.002 -0.6139 -0.1288 -1.6318
  183SLPC  C21621020   1.478   4.982   8.923  0.1069  0.2189 -0.1975
  183SLPC  H16R21021   1.559   5.058   8.916  1.6756 -1.4897 -1.7816
  183SLPC  H16S21022   1.396   5.051   8.952 -0.6929 -1.3873  1.5478
  183SLPC  C21721023   1.463   4.932   8.773 -1.0397  0.5290 -0.1331
  183SLPC  H17R21024   1.396   4.843   8.768  0.5010 -0.7206  0.6364
  183SLPC  H17S21025   1.566   4.899   8.752 -1.1362  0.6741 -0.8406
  183SLPC  C21821026   1.437   5.036   8.675 -0.2984  0.0036  0.2813
  183SLPC  H18R21027   1.513   5.117   8.672 -0.9533  0.6695  1.0076
  183SLPC  H18S21028   1.347   5.093   8.709 -0.5786  0.1424 -0.6614
  183SLPC  H18T21029   1.425   4.990   8.575  0.3177 -0.4986  0.4274
  183SLPC   C3321030   0.721   5.457  10.244  0.5778 -0.6924  0.1982
  183SLPC   H3X21031   0.823   5.460  10.199  0.6801 -0.2493  0.4511
  183SLPC   H3Y21032   0.688   5.560  10.267  1.1746 -0.1864 -1.1277
  183SLPC   C3421033   0.622   5.384  10.148 -0.0190 -0.2405  0.8806
  183SLPC   H4X21034   0.523   5.400  10.196 -1.5282 -1.3371 -1.6759
  183SLPC   H4Y21035   0.626   5.273  10.141 -0.9818 -0.1771 -2.6098
  183SLPC   C3521036   0.626   5.426  10.002 -0.5466 -0.4256  0.7856
  183SLPC   H5X21037   0.723   5.408   9.951 -1.4844 -1.0404 -0.8871
  183SLPC   H5Y21038   0.593   5.532   9.992  0.3618 -0.3254 -2.0323
  183SLPC   C3621039   0.549   5.338   9.899  0.4884 -0.3550  0.7707
  183SLPC   H6X21040   0.449   5.308   9.939 -0.8048 -2.4665 -3.4100
  183SLPC   H6Y21041   0.602   5.241   9.887  1.4330  0.0612  1.5030
  183SLPC   C3721042   0.538   5.413   9.760 -0.6420 -0.1185 -0.5833
  183SLPC   H7X21043   0.644   5.434   9.733 -0.0053 -0.5047  1.4296
  183SLPC   H7Y21044   0.479   5.506   9.776  0.3019  0.2856  0.8101
  183SLPC   C3821045   0.476   5.326   9.650  0.2586  0.4781 -0.6885
  183SLPC   H8X21046   0.373   5.294   9.676  0.5934 -0.1313 -0.0936
  183SLPC   H8Y21047   0.534   5.232   9.635 -1.2064 -0.2142 -2.4095
  183SLPC   C3921048   0.467   5.405   9.519 -0.6668 -0.3199  0.7068
  183SLPC   H9X21049   0.427   5.508   9.532  0.7138  0.4011 -0.5503
  183SLPC   H9Y21050   0.397   5.353   9.451 -0.1485  0.4478 -0.4507
  183SLPC  C31021051   0.597   5.403   9.431 -0.2029 -0.0446  0.0396
  183SLPC  H10X21052   0.627   5.296   9.438 -0.6549 -0.0665  2.6428
  183SLPC  H10Y21053   0.670   5.471   9.479 -0.5147  0.0875  0.3310
  183SLPC  C31121054   0.562   5.442   9.288  0.4615  0.4000 -0.0152
  183SLPC  H11X21055   0.514   5.353   9.242  1.0353 -0.5395  1.1649
  183SLPC  H11Y21056   0.661   5.434   9.238  0.4306 -1.5989  0.1822
  183SLPC  C31221057   0.496   5.578   9.269 -0.4528  0.5217 -0.0883
  183SLPC  H12X21058   0.567   5.657   9.300  2.3644 -0.9715 -2.3134
  183SLPC  H12Y21059   0.417   5.586   9.347  0.9090 -1.7365  1.6525
  183SLPC  C31321060   0.439   5.587   9.124  0.4108  0.1434  0.4813
  183SLPC  H13X21061   0.382   5.682   9.122  0.8387  0.4370  1.5451
  183SLPC  H13Y21062   0.376   5.501   9.093  2.5731 -0.8194 -1.6007
  183SLPC  C31421063   0.550   5.611   9.017  0.1395  0.6947  0.7134
  183SLPC  H14X21064   0.612   5.523   8.989 -1.1174 -0.3036  0.9328
  183SLPC  H14Y21065   0.622   5.683   9.061 -0.2900  0.6794  1.4529
  183SLPC  C31521066   0.504   5.678   8.886  0.3576 -0.0874  0.6917
  183SLPC  H15X21067   0.444   5.768   8.909  0.5882 -0.1161  1.4374
  183SLPC  H15Y21068   0.431   5.615   8.832  1.1085 -0.8960  0.5775
  183SLPC  C31621069   0.617   5.721   8.788 -1.2747  0.3236  1.2512
  183SLPC  H16X21070   0.681   5.631   8.780  0.2974  1.2963  2.2879
  183SLPC  H16Y21071   0.669   5.801   8.845 -2.5555  1.4633  0.8677
  183SLPC  C31721072   0.568   5.795   8.661 -0.6251  0.5220  0.0924
  183SLPC  H17X21073   0.661   5.821   8.607 -0.7329 -0.7505 -0.7656
  183SLPC  H17Y21074   0.523   5.893   8.691  1.8230  1.7411  0.0040
  183SLPC  C31821075   0.479   5.719   8.562 -0.6309  0.9773  0.3698
  183SLPC  H18X21076   0.461   5.787   8.476  0.2332  1.0751  0.2504
  183SLPC  H18Y21077   0.389   5.680   8.614  1.0912 -1.6880  1.5409
  183SLPC  H18Z21078   0.533   5.630   8.525  0.1135  2.3681 -2.1764
  184SLPC     N21079   3.886   4.024  11.051  0.1328  0.0500 -0.2716
  184SLPC   C1321080   3.870   4.169  11.092  0.3823  0.4252  0.3062
  184SLPC  H13A21081   3.927   4.241  11.034  1.1889 -0.1780  0.3322
  184SLPC  H13B21082   3.766   4.193  11.078 -0.3597 -2.3614  0.5946
  184SLPC  H13C21083   3.907   4.177  11.194  1.2886 -0.7850  0.0846
  184SLPC   C1421084   3.828   3.929  11.157 -0.2700 -0.1122  0.0842
  184SLPC  H14A21085   3.841   3.832  11.110  1.0588 -0.7793  1.6899
  184SLPC  H14B21086   3.880   3.925  11.252  0.5502 -0.6562 -0.3741
  184SLPC  H14C21087   3.726   3.959  11.176 -0.5484 -0.5913 -0.6086
  184SLPC   C1521088   4.030   3.997  11.031 -0.0848 -0.7539 -1.2534
  184SLPC  H15A21089   4.090   4.015  11.119  0.6892 -0.3189 -1.8598
  184SLPC  H15B21090   4.048   3.896  10.998 -1.4219 -0.7893 -1.9698
  184SLPC  H15C21091   4.070   4.065  10.957 -0.6886  0.3021 -0.6428
  184SLPC   C1221092   3.809   4.010  10.919  0.1234 -0.2343  0.6452
  184SLPC  H12A21093   3.840   4.089  10.853 -0.0030 -0.5460  0.2084
  184SLPC  H12B21094   3.706   4.037  10.936  0.6949  1.6919  1.2982
  184SLPC   C1121095   3.829   3.891  10.825 -0.2168  0.1977 -0.0776
  184SLPC  H11A21096   3.757   3.904  10.742 -0.5033  2.4945  0.4678
  184SLPC  H11B21097   3.790   3.798  10.873  0.5654  0.1352  0.4417
  184SLPC     P21098   4.023   3.948  10.675  0.0747 -0.1187 -0.0560
  184SLPC   O1321099   4.023   4.090  10.715  0.3308  0.7332  0.5447
  184SLPC   O1421100   4.152   3.890  10.646 -0.3553  0.8248 -0.4046
  184SLPC   O1221101   3.963   3.865  10.791  0.2659  0.1676 -0.0668
  184SLPC   O1121102   3.921   3.923  10.550 -0.1873  0.0054 -0.1510
  184SLPC    C121103   3.942   3.803  10.476  0.5614  0.4894  0.1373
  184SLPC    HA21104   4.000   3.725  10.531  1.4582  0.8951 -0.2001
  184SLPC    HB21105   3.843   3.756  10.462  1.0117 -0.7175  0.8287
  184SLPC    C221106   4.010   3.831  10.339 -0.0500 -0.5216 -0.1403
  184SLPC    HS21107   4.107   3.878  10.367 -0.9632  1.0866  0.4149
  184SLPC   O2121108   3.926   3.918  10.271 -0.2340 -0.3848  0.3855
  184SLPC   C2121109   3.986   4.012  10.194 -0.2933  0.1936 -0.0061
  184SLPC   O2221110   4.106   4.031  10.192  0.2659  0.1085 -0.0575
  184SLPC   C2221111   3.887   4.082  10.104 -0.3222  0.2711 -0.8788
  184SLPC   H2R21112   3.867   4.012  10.020  0.5458  0.9036 -1.6323
  184SLPC   H2S21113   3.789   4.098  10.155  0.1545 -0.0952  0.1801
  184SLPC    C321114   4.026   3.710  10.245 -0.3937 -0.5373 -0.1267
  184SLPC    HX21115   3.934   3.647  10.243 -0.8053 -0.3082  3.6898
  184SLPC    HY21116   4.105   3.647  10.291 -1.3882 -1.9829 -0.3107
  184SLPC   O3121117   4.063   3.749  10.111  0.3038 -0.1861  0.2274
  184SLPC   C3121118   4.114   3.655  10.042 -0.6832 -0.4835  0.7563
  184SLPC   O3221119   4.142   3.540  10.082  0.0944 -0.0955  0.1058
  184SLPC   C3221120   4.127   3.706   9.893 -0.1114 -0.2948 -0.2824
  184SLPC   H2X21121   4.216   3.773   9.896  1.8180 -2.6622 -1.0533
  184SLPC   H2Y21122   4.039   3.769   9.869 -1.0903 -1.2840  0.6073
  184SLPC   C2321123   3.951   4.212  10.052 -0.3517 -0.6704  0.3415
  184SLPC   H3R21124   4.047   4.197   9.998  1.3297  2.5446  2.1533
  184SLPC   H3S21125   3.986   4.282  10.131 -0.5716 -0.9904  0.7245
  184SLPC   C2421126   3.862   4.295   9.959  0.3547 -0.8161  0.4209
  184SLPC   H4R21127   3.896   4.397   9.930 -0.2293 -0.0852  2.1511
  184SLPC   H4S21128   3.770   4.307  10.020  0.0313 -1.7424  0.1336
  184SLPC   C2521129   3.824   4.219   9.830 -0.1908 -0.4914 -0.2550
  184SLPC   H5R21130   3.771   4.286   9.758 -0.5822 -0.8479 -0.3084
  184SLPC   H5S21131   3.750   4.142   9.863 -0.7923  0.9502  1.9410
  184SLPC   C2621132   3.943   4.151   9.757  0.4746 -0.5580 -0.1008
  184SLPC   H6R21133   3.985   4.073   9.824  2.4837  1.8935  1.7071
  184SLPC   H6S21134   4.020   4.228   9.733 -0.9536  0.6651 -0.9126
  184SLPC   C2721135   3.890   4.076   9.631  0.3289 -0.3812 -0.4722
  184SLPC   H7R21136   3.855   4.160   9.567 -2.5254 -1.5867 -0.6487
  184SLPC   H7S21137   3.803   4.011   9.654  0.5941 -1.3609 -2.0710
  184SLPC   C2821138   3.988   3.989   9.558 -0.4312 -0.3620 -0.5635
  184SLPC   H8R21139   3.928   3.931   9.484 -2.3291  1.5652 -0.6635
  184SLPC   H8S21140   4.045   3.920   9.623  0.2373  0.4134 -0.3177
  184SLPC   C2921141   4.101   4.054   9.493 -0.3953  0.1293 -0.1795
  184SLPC   H9R21142   4.152   4.129   9.555 -1.7271 -0.0597  1.2086
  184SLPC  C21021143   4.152   4.032   9.373  0.3433  0.7950  0.3534
  184SLPC  H10R21144   4.228   4.099   9.330  0.0772  0.7697 -0.1731
  184SLPC  C21121145   4.092   3.931   9.276  0.0929 -0.1625 -0.4880
  184SLPC  H11R21146   3.989   3.964   9.253 -0.0302 -0.6605 -0.6777
  184SLPC  H11S21147   4.082   3.832   9.325 -1.1563  0.0208 -0.3421
  184SLPC  C21221148   4.169   3.924   9.149 -0.8152  0.3443  1.0578
  184SLPC  H12R21149   4.275   3.948   9.162 -0.7784  0.9515 -0.2569
  184SLPC  C21321150   4.121   3.907   9.025 -0.3471 -0.4951 -0.5959
  184SLPC  H13R21151   4.186   3.904   8.936  1.6614 -1.0547  0.8148
  184SLPC  C21421152   3.977   3.886   8.980 -0.2102  0.3649  0.8133
  184SLPC  H14R21153   3.912   3.861   9.066  0.7198  0.4387  1.5516
  184SLPC  H14S21154   3.969   3.795   8.916  0.0867  1.1911 -0.4297
  184SLPC  C21521155   3.910   4.013   8.919 -0.4990 -0.6640 -0.6393
  184SLPC  H15R21156   3.911   4.089   9.000  0.9572  0.9957 -2.1415
  184SLPC  H15S21157   3.801   4.004   8.898 -0.6538 -0.3957  0.0443
  184SLPC  C21621158   3.974   4.081   8.796 -0.3633  0.1616 -0.4115
  184SLPC  H16R21159   4.076   4.115   8.824 -0.1261 -0.2950 -0.7102
  184SLPC  H16S21160   3.925   4.172   8.755 -1.1134 -0.2178 -0.3593
  184SLPC  C21721161   3.970   3.995   8.669  0.0798  0.6016 -0.2592
  184SLPC  H17R21162   3.865   3.966   8.649 -1.3490  3.0121  2.7723
  184SLPC  H17S21163   4.034   3.907   8.693  0.6648  1.0330 -0.2003
  184SLPC  C21821164   4.030   4.051   8.541  0.7854  0.2079 -0.2295
  184SLPC  H18R21165   3.963   4.127   8.495  0.8373  0.0650 -0.5466
  184SLPC  H18S21166   4.060   3.972   8.469  1.3320 -3.1839  3.3869
  184SLPC  H18T21167   4.119   4.115   8.560  2.0042 -1.2783 -0.6752
  184SLPC   C3321168   4.159   3.596   9.788  0.2054 -0.3637 -0.8847
  184SLPC   H3X21169   4.067   3.535   9.797 -0.2094  0.3718  0.1041
  184SLPC   H3Y21170   4.251   3.543   9.821 -1.1889 -1.2845  1.8844
  184SLPC   C3421171   4.186   3.655   9.651  0.3039  0.0591 -0.6594
  184SLPC   H4X21172   4.266   3.731   9.647 -0.6358  1.0415 -3.3996
  184SLPC   H4Y21173   4.094   3.704   9.612 -0.1892 -0.0595  0.3029
  184SLPC   C3521174   4.231   3.551   9.557 -0.3896  0.5316 -0.2986
  184SLPC   H5X21175   4.156   3.470   9.544  1.2468 -1.6612  2.6166
  184SLPC   H5Y21176   4.320   3.502   9.602  0.5672  0.0246 -2.6173
  184SLPC   C3621177   4.279   3.618   9.426  0.0068  0.0029  0.2101
  184SLPC   H6X21178   4.361   3.689   9.452  1.2570  0.0063 -3.2734
  184SLPC   H6Y21179   4.196   3.670   9.374 -0.5187 -0.3655  0.6687
  184SLPC   C3721180   4.346   3.522   9.332  1.0783 -0.3411  0.2700
  184SLPC   H7X21181   4.299   3.421   9.338  3.8827 -1.8506 -1.2429
  184SLPC   H7Y21182   4.448   3.507   9.374  0.3497  0.0615  2.3464
  184SLPC   C3821183   4.355   3.580   9.191  0.8593  0.1646 -0.5986
  184SLPC   H8X21184   4.366   3.691   9.187  2.2037  0.0150 -1.8758
  184SLPC   H8Y21185   4.263   3.552   9.135  0.0660  2.9557 -0.8717
  184SLPC   C3921186   4.480   3.524   9.123  0.3534  0.1355  0.6242
  184SLPC   H9X21187   4.471   3.413   9.127  0.0648  0.1488  0.3605
  184SLPC   H9Y21188   4.565   3.571   9.176  0.9128 -0.2838  0.1154
  184SLPC  C31021189   4.503   3.572   8.979 -0.4303  0.4088  0.6164
  184SLPC  H10X21190   4.587   3.520   8.929  0.0113  1.4463  0.2485
  184SLPC  H10Y21191   4.529   3.679   8.995 -1.2591  0.6227  0.6114
  184SLPC  C31121192   4.381   3.550   8.888  0.0624 -0.5121  0.1754
  184SLPC  H11X21193   4.391   3.600   8.789 -1.9966 -1.4798 -0.5767
  184SLPC  H11Y21194   4.299   3.607   8.936  0.3198 -0.4762  0.5855
  184SLPC  C31221195   4.343   3.406   8.864  0.3997  0.4259 -0.0663
  184SLPC  H12X21196   4.245   3.404   8.810  0.2066  1.8768  0.1953
  184SLPC  H12Y21197   4.328   3.348   8.957 -0.3071 -0.5033 -0.7293
  184SLPC  C31321198   4.444   3.343   8.765  0.4006  0.0746 -0.4282
  184SLPC  H13X21199   4.551   3.358   8.790  0.2369  0.2947  0.1724
  184SLPC  H13Y21200   4.440   3.397   8.668 -0.8303 -0.4643 -0.7097
  184SLPC  C31421201   4.418   3.191   8.744 -1.0070 -0.0532  0.1520
  184SLPC  H14X21202   4.313   3.169   8.713 -1.1999  1.5534 -0.4551
  184SLPC  H14Y21203   4.427   3.146   8.845  0.3309 -0.5044 -0.1590
  184SLPC  C31521204   4.515   3.127   8.647  0.5757 -0.1574  0.6407
  184SLPC  H15X21205   4.620   3.131   8.682  0.9844 -3.0278  0.0300
  184SLPC  H15Y21206   4.505   3.197   8.561  0.0617 -0.4429  0.4598
  184SLPC  C31621207   4.474   2.983   8.612 -0.4337 -0.9200 -0.5927
  184SLPC  H16X21208   4.371   2.981   8.569 -0.4979  2.1114 -0.7685
  184SLPC  H16Y21209   4.478   2.911   8.696  0.0162  1.1443  1.2236
  184SLPC  C31721210   4.577   2.912   8.507  0.5357  0.2140  0.6991
  184SLPC  H17X21211   4.557   2.955   8.407  1.0541  0.2943  0.6280
  184SLPC  H17Y21212   4.547   2.805   8.504 -3.5569  1.1868  0.4608
  184SLPC  C31821213   4.721   2.916   8.548  1.0722  0.0671 -0.2106
  184SLPC  H18X21214   4.732   2.994   8.627  1.3115 -0.8908  0.7217
  184SLPC  H18Y21215   4.784   2.941   8.460  1.1601  2.4576  0.4587
  184SLPC  H18Z21216   4.745   2.814   8.584 -0.3501  0.0042  0.6104
  185SLPC     N21217   1.544   5.710   6.430 -0.5311  0.3337  0.1323
  185SLPC   C1321218   1.579   5.700   6.571  0.1061 -0.5231  0.3641
  185SLPC  H13A21219   1.591   5.597   6.603 -1.4421 -0.8051  0.1246
  185SLPC  H13B21220   1.664   5.762   6.593 -0.9357  1.4657 -0.9072
  185SLPC  H13C21221   1.500   5.752   6.623  0.6916  1.1180 -0.3370
  185SLPC   C1421222   1.440   5.610   6.407  0.3466 -0.6052  0.8381
  185SLPC  H14A21223   1.403   5.610   6.306 -1.4401  1.9376  1.3865
  185SLPC  H14B21224   1.470   5.508   6.428  1.2507 -0.9050 -1.5767
  185SLPC  H14C21225   1.352   5.624   6.469 -0.5853 -2.6524  0.0883
  185SLPC   C1521226   1.657   5.662   6.346 -0.2750 -1.0163 -0.6379
  185SLPC  H15A21227   1.745   5.724   6.352 -0.3881 -1.0146  1.5708
  185SLPC  H15B21228   1.697   5.566   6.376  1.0183 -0.0840  0.7508
  185SLPC  H15C21229   1.614   5.639   6.249  0.0060  0.3732 -1.1190
  185SLPC   C1221230   1.502   5.850   6.378 -0.2394 -0.0644  0.2578
  185SLPC  H12A21231   1.514   5.851   6.271 -0.2054  0.5101  0.2630
  185SLPC  H12B21232   1.577   5.918   6.416  1.6925 -0.6678 -2.2561
  185SLPC   C1121233   1.366   5.909   6.405  0.7381 -0.5031 -0.1568
  185SLPC  H11A21234   1.288   5.841   6.366  2.3649 -1.6488 -1.5590
  185SLPC  H11B21235   1.346   6.002   6.347 -0.7392 -0.0594  1.0048
  185SLPC     P21236   1.406   6.048   6.629  0.2029 -0.4287  0.1013
  185SLPC   O1321237   1.544   6.075   6.594 -0.4909  0.1682  0.4033
  185SLPC   O1421238   1.313   6.164   6.617  0.1263 -0.1447  0.1595
  185SLPC   O1221239   1.351   5.927   6.542 -0.3083 -0.1665 -0.1309
  185SLPC   O1121240   1.394   5.990   6.773  0.2340 -0.0158  0.4936
  185SLPC    C121241   1.330   6.061   6.881 -0.1871  0.3178 -0.4732
  185SLPC    HA21242   1.396   6.126   6.943  0.4942 -0.3318 -0.5110
  185SLPC    HB21243   1.245   6.122   6.844 -1.1295 -0.3645  0.5204
  185SLPC    C221244   1.275   5.963   6.987 -0.0466 -0.4097 -0.2419
  185SLPC    HS21245   1.172   5.930   6.960  0.3137 -1.6078 -0.2156
  185SLPC   O2121246   1.262   6.026   7.116  0.0937  0.6707  0.6101
  185SLPC   C2121247   1.155   6.110   7.124  0.2239 -0.9550  0.0560
  185SLPC   O2221248   1.067   6.125   7.039  0.2293  0.0487 -0.5646
  185SLPC   C2221249   1.161   6.202   7.254  0.7891  0.8000  0.1384
  185SLPC   H2R21250   1.254   6.262   7.250 -0.0984  2.1650 -0.5776
  185SLPC   H2S21251   1.070   6.264   7.243  0.2986 -0.1013 -1.1745
  185SLPC    C321252   1.369   5.833   7.003  0.5813 -0.5835 -0.9314
  185SLPC    HX21253   1.472   5.875   6.999  0.0204  0.8608 -0.8351
  185SLPC    HY21254   1.347   5.780   6.907 -4.0763  1.5481 -1.3295
  185SLPC   O3121255   1.341   5.763   7.123 -0.2851  0.5769 -0.3664
  185SLPC   C3121256   1.257   5.667   7.107  0.0665 -0.8149  0.3388
  185SLPC   O3221257   1.174   5.662   7.019 -0.6044  0.2598 -0.0884
  185SLPC   C3221258   1.286   5.571   7.215  0.3770 -0.1649  0.0319
  185SLPC   H2X21259   1.389   5.585   7.254  1.0985  2.0109 -2.3494
  185SLPC   H2Y21260   1.283   5.467   7.175  0.8353 -0.3424  0.4502
  185SLPC   C2321261   1.162   6.110   7.380  0.0454  0.1870  0.0336
  185SLPC   H3R21262   1.247   6.038   7.388 -1.2194 -1.3153  0.3330
  185SLPC   H3S21263   1.074   6.047   7.355  0.3177  0.7360 -2.5977
  185SLPC   C2421264   1.147   6.197   7.501  0.3211 -0.0060  0.8116
  185SLPC   H4R21265   1.045   6.240   7.493  0.3497 -0.0840 -0.0622
  185SLPC   H4S21266   1.226   6.276   7.495 -0.0474  0.2592 -1.0142
  185SLPC   C2521267   1.166   6.112   7.628  0.4771 -0.4245  0.3575
  185SLPC   H5R21268   1.174   6.182   7.713  0.5620 -0.0889  0.0722
  185SLPC   H5S21269   1.259   6.050   7.628 -0.0186 -1.2269  1.5131
  185SLPC   C2621270   1.055   6.002   7.659  0.6216  0.2350  0.3357
  185SLPC   H6R21271   1.055   5.938   7.568  5.7929 -2.5714  1.8726
  185SLPC   H6S21272   0.955   6.047   7.675  0.1519 -0.7544  0.2910
  185SLPC   C2721273   1.074   5.904   7.778 -0.0838  0.0310  0.0975
  185SLPC   H7R21274   1.161   5.839   7.753 -1.6718 -2.4313  0.6203
  185SLPC   H7S21275   0.988   5.834   7.784 -0.3050 -0.2362 -3.6890
  185SLPC   C2821276   1.119   5.972   7.914  0.6594  0.5536  0.4067
  185SLPC   H8R21277   1.082   5.897   7.988 -0.3328  0.4636 -0.1606
  185SLPC   H8S21278   1.046   6.056   7.907 -0.1921 -0.3304 -2.3286
  185SLPC   C2921279   1.264   6.005   7.937 -0.4695 -0.6861  0.4451
  185SLPC   H9R21280   1.317   6.063   7.861 -1.2480 -0.8234 -0.2149
  185SLPC  C21021281   1.336   5.970   8.048  0.6666  0.3468 -0.2173
  185SLPC  H10R21282   1.445   5.983   8.034  0.7555  0.0335  0.1768
  185SLPC  C21121283   1.283   5.893   8.171 -0.9494  0.2398  0.6028
  185SLPC  H11R21284   1.212   5.822   8.124 -0.5008 -0.6126  1.1918
  185SLPC  H11S21285   1.223   5.964   8.232 -0.1325  0.5819  1.0247
  185SLPC  C21221286   1.387   5.826   8.251 -0.3971  0.0007 -0.0061
  185SLPC  H12R21287   1.411   5.729   8.205  0.7873  0.8536 -1.2599
  185SLPC  C21321288   1.430   5.861   8.372 -0.5227 -0.7762  0.1722
  185SLPC  H13R21289   1.516   5.804   8.407  0.0517  0.2307  0.4569
  185SLPC  C21421290   1.403   5.990   8.450 -0.4337 -0.0867  0.2797
  185SLPC  H14R21291   1.351   6.068   8.391 -1.0722 -1.3822 -0.9067
  185SLPC  H14S21292   1.500   6.023   8.493 -0.0214 -1.5383  0.5081
  185SLPC  C21521293   1.323   5.965   8.577  0.2579  0.8871  0.5163
  185SLPC  H15R21294   1.224   5.926   8.543  0.7844  1.4865 -1.8759
  185SLPC  H15S21295   1.292   6.066   8.610 -4.3205 -0.7262  1.9917
  185SLPC  C21621296   1.409   5.910   8.690  0.4018 -0.0123  0.4940
  185SLPC  H16R21297   1.504   5.963   8.712  1.3131 -1.8394  1.2383
  185SLPC  H16S21298   1.439   5.806   8.665  0.3176 -0.1842  1.0754
  185SLPC  C21721299   1.334   5.891   8.820 -0.1467 -0.2863 -0.5665
  185SLPC  H17R21300   1.233   5.847   8.808 -1.0245  1.2300  0.7789
  185SLPC  H17S21301   1.302   5.995   8.844 -1.9462 -0.1032 -3.2556
  185SLPC  C21821302   1.420   5.828   8.937  0.1293 -0.5976 -0.1068
  185SLPC  H18R21303   1.431   5.718   8.929 -0.9828 -0.5568 -3.8605
  185SLPC  H18S21304   1.365   5.849   9.031  2.2813  1.0073  0.9036
  185SLPC  H18T21305   1.523   5.871   8.931 -0.2156  0.6134  1.7177
  185SLPC   C3321306   1.186   5.592   7.333  0.5681 -0.0082  0.0652
  185SLPC   H3X21307   1.093   5.533   7.319  0.7460 -0.5181  0.9953
  185SLPC   H3Y21308   1.166   5.700   7.353 -0.1168 -0.5295  2.5194
  185SLPC   C3421309   1.233   5.536   7.467  0.1320 -0.1143 -0.2454
  185SLPC   H4X21310   1.341   5.555   7.479  0.3786 -1.0153 -0.9547
  185SLPC   H4Y21311   1.221   5.425   7.469  3.2299 -0.5637 -1.7204
  185SLPC   C3521312   1.163   5.580   7.593  0.0237  0.0011  0.2706
  185SLPC   H5X21313   1.053   5.574   7.580 -0.4624  1.8992  2.7847
  185SLPC   H5Y21314   1.199   5.685   7.594  0.3722 -0.1200  0.4888
  185SLPC   C3621315   1.209   5.488   7.710  0.5031 -0.0354 -0.1669
  185SLPC   H6X21316   1.317   5.461   7.704  0.8987  1.6820 -2.3170
  185SLPC   H6Y21317   1.162   5.388   7.706  1.2214 -0.4367  1.0440
  185SLPC   C3721318   1.174   5.557   7.845  0.1134  0.5986  0.6480
  185SLPC   H7X21319   1.066   5.580   7.853  0.2244  0.9883  1.0985
  185SLPC   H7Y21320   1.227   5.655   7.846 -0.4116  0.9032 -0.2273
  185SLPC   C3821321   1.215   5.478   7.970 -0.1027 -0.4385  0.0176
  185SLPC   H8X21322   1.216   5.369   7.948  0.0172  0.0031 -2.4291
  185SLPC   H8Y21323   1.150   5.503   8.056  1.7717 -2.3231  2.1313
  185SLPC   C3921324   1.361   5.522   8.003 -0.2615 -0.0874  0.2370
  185SLPC   H9X21325   1.373   5.626   8.040  0.0017  0.1505 -0.4996
  185SLPC   H9Y21326   1.431   5.517   7.917  2.9275 -0.4610  2.6502
  185SLPC  C31021327   1.428   5.438   8.114 -0.3411 -0.5783 -0.5848
  185SLPC  H10X21328   1.526   5.483   8.137 -0.7640  0.0831 -0.0506
  185SLPC  H10Y21329   1.446   5.339   8.067 -0.8835  0.0267 -2.1364
  185SLPC  C31121330   1.350   5.425   8.244  0.3658  0.2960  0.2446
  185SLPC  H11X21331   1.315   5.319   8.248 -0.3687  0.5665  3.3578
  185SLPC  H11Y21332   1.257   5.486   8.237 -0.7738 -1.5027 -4.7926
  185SLPC  C31221333   1.432   5.466   8.371 -0.6229  0.5914 -0.5419
  185SLPC  H12X21334   1.470   5.569   8.359 -0.9442  1.1546  2.5146
  185SLPC  H12Y21335   1.524   5.403   8.364 -2.3034 -2.0607  0.0117
  185SLPC  C31321336   1.362   5.468   8.504 -0.2964 -0.2686  0.3136
  185SLPC  H13X21337   1.312   5.369   8.510 -1.2273  0.1386 -0.4417
  185SLPC  H13Y21338   1.289   5.551   8.501 -0.0310 -0.0576 -0.6535
  185SLPC  C31421339   1.463   5.485   8.623  0.1108  0.4200  0.3118
  185SLPC  H14X21340   1.498   5.590   8.611  1.9311 -0.3906 -2.1948
  185SLPC  H14Y21341   1.546   5.416   8.601 -1.0321 -0.5058 -1.3254
  185SLPC  C31521342   1.403   5.450   8.760  0.2104  1.0587 -0.2001
  185SLPC  H15X21343   1.362   5.348   8.748 -2.6170  2.1958 -0.9427
  185SLPC  H15Y21344   1.314   5.505   8.795 -0.9580 -0.5161 -0.5939
  185SLPC  C31621345   1.515   5.439   8.865  0.3702 -0.3848  0.8140
  185SLPC  H16X21346   1.552   5.541   8.890 -0.1295 -0.0987  0.4059
  185SLPC  H16Y21347   1.603   5.380   8.835 -0.0244 -0.7038  0.2735
  185SLPC  C31721348   1.470   5.387   8.999 -0.0492  0.8127 -0.5077
  185SLPC  H17X21349   1.426   5.285   8.988 -2.6575  1.3148  3.2058
  185SLPC  H17Y21350   1.385   5.442   9.045 -0.7699 -1.2813  0.8271
  185SLPC  C31821351   1.578   5.366   9.106 -0.5486  0.1810  0.3466
  185SLPC  H18X21352   1.665   5.318   9.056  0.1025  0.8437  0.8215
  185SLPC  H18Y21353   1.556   5.296   9.188  0.0935 -0.1930  0.2074
  185SLPC  H18Z21354   1.595   5.462   9.160 -1.1124  0.2152  0.4667
  186SLPC     N21355   1.126   3.479   6.432 -0.4588  0.6444  0.3507
  186SLPC   C1321356   1.040   3.446   6.554 -0.1908 -0.3440 -0.0692
  186SLPC  H13A21357   0.940   3.422   6.521 -0.4256 -0.1563  0.5042
  186SLPC  H13B21358   1.086   3.368   6.613 -0.6123  0.5197  1.4456
  186SLPC  H13C21359   1.042   3.525   6.628 -2.6480  1.0515 -1.3742
  186SLPC   C1421360   1.265   3.502   6.490 -0.1710  0.2124 -0.1875
  186SLPC  H14A21361   1.269   3.568   6.576  2.6694 -0.0803 -0.0081
  186SLPC  H14B21362   1.305   3.408   6.525 -0.0655  0.2172 -0.2987
  186SLPC  H14C21363   1.325   3.540   6.409 -2.6333 -0.0460 -2.2460
  186SLPC   C1521364   1.087   3.610   6.375 -0.1871 -0.5494  0.9206
  186SLPC  H15A21365   1.086   3.692   6.446 -1.2718 -0.7018  1.0935
  186SLPC  H15B21366   1.160   3.639   6.301 -0.3683  0.1377  0.9979
  186SLPC  H15C21367   0.988   3.604   6.335 -0.5222  0.4195  1.5521
  186SLPC   C1221368   1.126   3.358   6.338  0.1677  0.2538  0.4425
  186SLPC  H12A21369   1.180   3.278   6.387  0.4457 -0.4977 -1.0265
  186SLPC  H12B21370   1.187   3.384   6.252  0.3432 -1.2009  0.0945
  186SLPC   C1121371   0.994   3.308   6.287  0.5687 -0.4442 -0.7657
  186SLPC  H11A21372   1.029   3.237   6.209  0.8826 -0.2142 -0.8330
  186SLPC  H11B21373   0.943   3.394   6.238  0.0718 -0.1914  0.1765
  186SLPC     P21374   0.771   3.184   6.337  0.2275 -0.1695  0.4718
  186SLPC   O1321375   0.674   3.294   6.313  0.3026 -0.1805 -0.4260
  186SLPC   O1421376   0.793   3.082   6.230  0.0205  0.4517  0.4524
  186SLPC   O1221377   0.908   3.249   6.385  1.2615 -0.3619 -0.1555
  186SLPC   O1121378   0.730   3.113   6.468 -0.2730 -0.2071 -0.7825
  186SLPC    C121379   0.742   3.181   6.596 -0.5452  0.1022  0.9915
  186SLPC    HA21380   0.850   3.191   6.617 -0.3419 -0.7770  0.3778
  186SLPC    HB21381   0.708   3.287   6.596  0.2158  0.3811 -1.2845
  186SLPC    C221382   0.671   3.101   6.710 -0.3704 -1.2092  0.1229
  186SLPC    HS21383   0.565   3.115   6.677  0.4909 -2.1952 -3.3817
  186SLPC   O2121384   0.709   3.165   6.829  1.2886 -0.2041  0.2147
  186SLPC   C2121385   0.653   3.287   6.857  0.1018  0.1958  0.1168
  186SLPC   O2221386   0.573   3.350   6.787  0.0645  0.4830 -0.1713
  186SLPC   C2221387   0.714   3.335   6.989 -0.4723 -0.5407  0.0993
  186SLPC   H2R21388   0.813   3.289   7.004 -0.2114 -0.6850 -1.7453
  186SLPC   H2S21389   0.737   3.443   6.976 -1.8899 -0.2200  0.0228
  186SLPC    C321390   0.702   2.948   6.707  0.1840 -0.9762  0.6277
  186SLPC    HX21391   0.812   2.936   6.720  0.1997 -0.7431  0.7294
  186SLPC    HY21392   0.680   2.907   6.607 -2.4290  1.1781  0.2009
  186SLPC   O3121393   0.635   2.870   6.813  0.3731 -0.2161  0.3255
  186SLPC   C3121394   0.523   2.801   6.778  0.0212 -0.2715 -0.8362
  186SLPC   O3221395   0.467   2.807   6.670 -0.3433 -0.4874  0.3390
  186SLPC   C3221396   0.494   2.701   6.890 -0.6538  0.1512 -0.1202
  186SLPC   H2X21397   0.564   2.615   6.884 -1.1512 -0.5133  2.3303
  186SLPC   H2Y21398   0.396   2.650   6.880 -0.6785 -0.1190  1.3523
  186SLPC   C2321399   0.618   3.321   7.110 -0.1909  0.5945 -0.3673
  186SLPC   H3R21400   0.581   3.216   7.121  0.9896  0.3007  1.1331
  186SLPC   H3S21401   0.531   3.390   7.101  1.3714  2.4922 -1.7150
  186SLPC   C2421402   0.689   3.340   7.241  0.0624 -0.0983 -0.3536
  186SLPC   H4R21403   0.763   3.262   7.267  1.0725  0.7982 -0.4497
  186SLPC   H4S21404   0.615   3.340   7.324 -0.0888 -0.2517 -0.4846
  186SLPC   C2521405   0.751   3.475   7.265 -0.0792 -0.1064  0.3448
  186SLPC   H5R21406   0.705   3.561   7.211 -0.4075 -1.0164 -0.8841
  186SLPC   H5S21407   0.854   3.476   7.223 -0.4665 -1.0017 -0.6966
  186SLPC   C2621408   0.768   3.517   7.411 -0.3597 -0.0128 -0.1429
  186SLPC   H6R21409   0.860   3.579   7.410 -0.4431  0.1172  0.0443
  186SLPC   H6S21410   0.789   3.427   7.472 -2.9524 -0.8058 -0.2880
  186SLPC   C2721411   0.650   3.597   7.475 -0.1054 -0.0416 -0.1860
  186SLPC   H7R21412   0.571   3.521   7.484  0.3412 -0.4719  0.1302
  186SLPC   H7S21413   0.620   3.680   7.407 -0.3469 -0.5069 -0.6558
  186SLPC   C2821414   0.668   3.641   7.620  0.5789  0.2769  0.0128
  186SLPC   H8R21415   0.678   3.550   7.684 -0.4178  0.5350  0.5572
  186SLPC   H8S21416   0.575   3.696   7.648  1.0866  1.3966 -0.4564
  186SLPC   C2921417   0.790   3.730   7.636 -0.8727 -0.1053  0.1237
  186SLPC   H9R21418   0.838   3.753   7.539  0.1199 -0.9884  0.3837
  186SLPC  C21021419   0.831   3.797   7.742 -0.1688 -0.5263  0.4037
  186SLPC  H10R21420   0.918   3.863   7.724 -1.0535  0.5285 -0.1155
  186SLPC  C21121421   0.763   3.810   7.873  0.8768 -0.3788 -0.2996
  186SLPC  H11R21422   0.804   3.895   7.931 -0.6507  1.3744 -1.6803
  186SLPC  H11S21423   0.768   3.716   7.932  2.4652  0.3902  0.8427
  186SLPC  C21221424   0.613   3.841   7.866 -1.2872  0.8761 -0.0080
  186SLPC  H12R21425   0.573   3.903   7.784 -1.3067  0.8488 -0.0191
  186SLPC  C21321426   0.519   3.811   7.957  0.2378  0.7363  0.0983
  186SLPC  H13R21427   0.412   3.830   7.939  0.6567  2.4787 -0.9219
  186SLPC  C21421428   0.544   3.728   8.083  0.1342  0.6815  0.6578
  186SLPC  H14R21429   0.654   3.731   8.099 -0.0251  1.3814  1.7134
  186SLPC  H14S21430   0.511   3.623   8.067  0.1893  1.0271 -2.2390
  186SLPC  C21521431   0.481   3.794   8.207 -0.2301  0.3411  0.0825
  186SLPC  H15R21432   0.371   3.800   8.188 -0.1983 -0.7261 -0.5133
  186SLPC  H15S21433   0.540   3.887   8.216  2.9130 -1.6216  1.4010
  186SLPC  C21621434   0.518   3.706   8.330 -0.3261  0.1135  0.4714
  186SLPC  H16R21435   0.628   3.703   8.344  0.0971  0.9229 -2.0926
  186SLPC  H16S21436   0.483   3.603   8.308  3.1336 -1.0277 -0.3091
  186SLPC  C21721437   0.464   3.751   8.468  0.0978 -0.3266 -0.3044
  186SLPC  H17R21438   0.500   3.844   8.518  0.5543 -0.5750 -0.1631
  186SLPC  H17S21439   0.469   3.668   8.542 -0.0531 -1.4616 -1.5422
  186SLPC  C21821440   0.308   3.774   8.452 -0.3263 -0.3264  0.0958
  186SLPC  H18R21441   0.255   3.787   8.549 -0.3899 -0.6938  0.1130
  186SLPC  H18S21442   0.274   3.680   8.403 -1.1180 -0.0488  0.1005
  186SLPC  H18T21443   0.293   3.864   8.389 -0.5707 -0.6275 -0.2756
  186SLPC   C3321444   0.493   2.761   7.033  1.1208  0.5115  0.3136
  186SLPC   H3X21445   0.459   2.867   7.040 -0.0048  0.2087 -0.3471
  186SLPC   H3Y21446   0.599   2.761   7.065  1.0448  0.9543  0.5834
  186SLPC   C3421447   0.408   2.673   7.123 -0.4707  0.6979 -0.1946
  186SLPC   H4X21448   0.455   2.572   7.124  2.5506  1.9583 -1.4210
  186SLPC   H4Y21449   0.307   2.655   7.082  2.0043 -1.0897 -6.6936
  186SLPC   C3521450   0.407   2.720   7.266 -0.2326  0.1711  0.6494
  186SLPC   H5X21451   0.351   2.816   7.270 -0.0052  0.2766  3.1820
  186SLPC   H5Y21452   0.510   2.735   7.307  0.7109  0.8767 -1.7980
  186SLPC   C3621453   0.345   2.617   7.356  0.2508  0.2144  0.4930
  186SLPC   H6X21454   0.389   2.516   7.344 -0.5583 -0.0299 -0.5163
  186SLPC   H6Y21455   0.236   2.604   7.337  0.4491 -0.9596  0.0809
  186SLPC   C3721456   0.369   2.637   7.507 -0.0066  0.0684  0.9355
  186SLPC   H7X21457   0.331   2.739   7.533 -1.1062 -0.4051  1.2473
  186SLPC   H7Y21458   0.478   2.647   7.524  0.2181 -0.2763 -0.1897
  186SLPC   C3821459   0.302   2.530   7.595  0.7269 -0.0075 -0.0722
  186SLPC   H8X21460   0.345   2.432   7.566  0.6177  0.5083 -2.1434
  186SLPC   H8Y21461   0.193   2.528   7.574  0.8722  1.9548 -1.3196
  186SLPC   C3921462   0.336   2.559   7.746  0.6676  0.2558  0.5504
  186SLPC   H9X21463   0.447   2.565   7.753  0.8064  0.9337 -1.5646
  186SLPC   H9Y21464   0.296   2.474   7.806  0.5653 -0.1037 -0.0195
  186SLPC  C31021465   0.265   2.681   7.804 -0.3151  0.5739  0.0460
  186SLPC  H10X21466   0.158   2.654   7.789 -0.2573 -0.4309  1.2093
  186SLPC  H10Y21467   0.289   2.777   7.754 -2.6037  0.3741 -1.5698
  186SLPC  C31121468   0.306   2.700   7.950  0.3669 -0.2750 -0.0199
  186SLPC  H11X21469   0.417   2.697   7.953  0.3664 -1.7923  3.1726
  186SLPC  H11Y21470   0.282   2.614   8.016 -1.9075 -0.2320 -0.7197
  186SLPC  C31221471   0.246   2.832   8.019 -0.7671  0.6188  0.4282
  186SLPC  H12X21472   0.136   2.844   8.013 -0.8269 -0.0260  0.2193
  186SLPC  H12Y21473   0.290   2.908   7.951 -0.3828 -0.7647 -0.9141
  186SLPC  C31321474   0.291   2.854   8.163 -0.0300  0.3587  0.1690
  186SLPC  H13X21475   0.267   2.959   8.191 -3.1710 -0.0191 -0.6797
  186SLPC  H13Y21476   0.397   2.830   8.186 -0.0633  0.1567  0.1136
  186SLPC  C31421477   0.211   2.776   8.269  0.4786  0.0492  0.2663
  186SLPC  H14X21478   0.241   2.672   8.244  1.6045  0.5048 -0.3837
  186SLPC  H14Y21479   0.101   2.784   8.254  0.4606 -2.9837 -2.2701
  186SLPC  C31521480   0.248   2.808   8.414  0.1858 -0.1128  0.4726
  186SLPC  H15X21481   0.355   2.796   8.441  0.4640  1.2201  0.0163
  186SLPC  H15Y21482   0.195   2.727   8.469  0.7849 -2.7203 -2.5178
  186SLPC  C31621483   0.187   2.931   8.470  0.0583 -0.4839 -0.7823
  186SLPC  H16X21484   0.076   2.923   8.476  0.0661 -0.3665 -0.4687
  186SLPC  H16Y21485   0.215   3.016   8.403 -0.2789 -0.2196 -0.5905
  186SLPC  C31721486   0.249   2.956   8.612 -0.3488 -0.1105  0.1480
  186SLPC  H17X21487   0.358   2.966   8.591 -0.3241  0.6877  0.6278
  186SLPC  H17Y21488   0.234   2.867   8.678 -0.8970  0.1265  0.3456
  186SLPC  C31821489   0.214   3.089   8.672 -0.4251 -0.1441  0.0921
  186SLPC  H18X21490   0.106   3.085   8.695 -0.4267 -1.6366 -0.0485
  186SLPC  H18Y21491   0.238   3.177   8.609 -4.0025  1.1796  0.3604
  186SLPC  H18Z21492   0.268   3.091   8.769  1.1843 -3.0685 -0.6344
  187SLPC     N21493   2.380   5.938   6.423 -0.1294 -0.0893 -0.1349
  187SLPC   C1321494   2.400   6.077   6.475  1.0552  0.4263 -0.0828
  187SLPC  H13A21495   2.469   6.075   6.559 -0.0928 -0.0015  0.8828
  187SLPC  H13B21496   2.435   6.144   6.398 -1.8864  0.1423 -1.7726
  187SLPC  H13C21497   2.315   6.127   6.519  1.6634  0.6406  0.8975
  187SLPC   C1421498   2.506   5.875   6.363 -0.4751  0.2235  0.6274
  187SLPC  H14A21499   2.538   5.946   6.288 -0.7927 -1.0314 -0.7495
  187SLPC  H14B21500   2.584   5.865   6.437 -0.7405 -0.6167  0.8038
  187SLPC  H14C21501   2.495   5.772   6.333  2.9810 -0.3007  0.7849
  187SLPC   C1521502   2.273   5.942   6.313  0.0685  0.0332 -0.2469
  187SLPC  H15A21503   2.259   5.842   6.275 -0.7481 -0.2677  0.7956
  187SLPC  H15B21504   2.178   5.983   6.346 -0.6068 -0.9219 -0.9442
  187SLPC  H15C21505   2.295   6.002   6.225 -1.1001  0.7983 -0.0487
  187SLPC   C1221506   2.323   5.859   6.540 -0.0852 -0.1129 -0.2291
  187SLPC  H12A21507   2.243   5.917   6.584  2.0881  2.3298  0.7751
  187SLPC  H12B21508   2.396   5.860   6.620 -1.3213 -0.7193  0.9569
  187SLPC   C1121509   2.269   5.713   6.520  0.6960  0.1726  0.6438
  187SLPC  H11A21510   2.208   5.726   6.428 -0.8903 -0.6062  1.5302
  187SLPC  H11B21511   2.219   5.678   6.613  1.8352 -0.4468  1.0412
  187SLPC     P21512   2.364   5.470   6.524  0.0484  0.0612  0.2136
  187SLPC   O1321513   2.227   5.420   6.484 -0.9959 -0.0065 -0.0309
  187SLPC   O1421514   2.484   5.399   6.472  0.4475 -0.3541  0.3292
  187SLPC   O1221515   2.374   5.622   6.488 -0.4574  0.0715 -0.1014
  187SLPC   O1121516   2.379   5.475   6.683 -0.3161  0.4146 -0.5283
  187SLPC    C121517   2.497   5.549   6.730  0.0849  0.3530  0.0369
  187SLPC    HA21518   2.550   5.605   6.650 -0.0827  0.4842  0.0176
  187SLPC    HB21519   2.457   5.627   6.797 -1.0239 -0.3991  0.2872
  187SLPC    C221520   2.582   5.443   6.800 -0.4601 -0.0071 -0.0345
  187SLPC    HS21521   2.601   5.358   6.731  1.3051  0.7299 -0.5171
  187SLPC   O2121522   2.528   5.405   6.925  0.3222  0.3812  0.4378
  187SLPC   C2121523   2.588   5.293   6.976 -0.0129 -0.2102  0.5374
  187SLPC   O2221524   2.675   5.226   6.918  0.3659 -0.0847  0.1623
  187SLPC   C2221525   2.504   5.252   7.099 -0.5275  0.2332 -0.1912
  187SLPC   H2R21526   2.438   5.333   7.136 -1.6397 -0.9847  0.5628
  187SLPC   H2S21527   2.435   5.174   7.058  1.9757 -1.1031 -2.2274
  187SLPC    C321528   2.733   5.491   6.806  0.3087  0.1084  0.3624
  187SLPC    HX21529   2.767   5.482   6.701 -1.0331  2.6306 -0.3924
  187SLPC    HY21530   2.794   5.418   6.862 -0.5685  0.5319  1.9289
  187SLPC   O3121531   2.749   5.625   6.857  0.0625  0.5302  0.0796
  187SLPC   C3121532   2.758   5.633   6.987 -0.6428  0.0589 -0.7446
  187SLPC   O3221533   2.788   5.543   7.062 -0.4339  0.4727  0.4655
  187SLPC   C3221534   2.763   5.782   7.030  0.3773  0.5604  0.8325
  187SLPC   H2X21535   2.662   5.803   7.072  0.8222 -0.5255  2.5712
  187SLPC   H2Y21536   2.792   5.836   6.938 -0.3914 -0.5710 -0.1105
  187SLPC   C2321537   2.579   5.176   7.218  0.1812 -0.4063  0.4061
  187SLPC   H3R21538   2.646   5.101   7.172  0.1832 -1.0769  1.4832
  187SLPC   H3S21539   2.508   5.125   7.286 -0.4485  1.2132  1.0023
  187SLPC   C2421540   2.654   5.271   7.302  0.1781 -0.3155 -0.3993
  187SLPC   H4R21541   2.598   5.364   7.326 -0.3848 -0.8947  0.6312
  187SLPC   H4S21542   2.740   5.302   7.240  1.1026 -0.9179  0.5389
  187SLPC   C2521543   2.718   5.209   7.430  0.2213 -0.1752  0.4371
  187SLPC   H5R21544   2.822   5.185   7.399  0.3136  1.8256 -0.9509
  187SLPC   H5S21545   2.653   5.120   7.444  2.0746 -2.0198 -1.8702
  187SLPC   C2621546   2.717   5.306   7.553  0.0714 -0.0241  0.5173
  187SLPC   H6R21547   2.612   5.327   7.582  0.5728  0.6445  1.9374
  187SLPC   H6S21548   2.763   5.402   7.520  3.2882 -1.0739  1.6336
  187SLPC   C2721549   2.780   5.239   7.676  0.2396 -0.0136  0.4530
  187SLPC   H7R21550   2.886   5.218   7.649  0.6742  1.7722  0.6246
  187SLPC   H7S21551   2.724   5.149   7.709  2.2399 -1.3325  0.4498
  187SLPC   C2821552   2.774   5.341   7.793  0.3702  0.2346  0.0351
  187SLPC   H8R21553   2.669   5.352   7.827 -0.1498 -2.1740 -0.6386
  187SLPC   H8S21554   2.803   5.438   7.748  1.5543 -0.2298 -0.2542
  187SLPC   C2921555   2.850   5.315   7.920 -0.3897 -0.3645 -0.0584
  187SLPC   H9R21556   2.958   5.308   7.899 -0.7960 -2.1653 -1.7906
  187SLPC  C21021557   2.798   5.290   8.048 -0.0634 -0.5337  0.1769
  187SLPC  H10R21558   2.871   5.271   8.128 -2.2853 -0.0842  2.4318
  187SLPC  C21121559   2.644   5.290   8.074  0.5359 -0.0494 -0.4835
  187SLPC  H11R21560   2.599   5.193   8.044  1.1460 -0.4516 -0.1269
  187SLPC  H11S21561   2.604   5.382   8.027 -1.0405  0.4509  1.6937
  187SLPC  C21221562   2.642   5.314   8.227  0.3809  0.0421  0.1262
  187SLPC  H12R21563   2.636   5.422   8.247 -2.4297  0.3092 -1.6392
  187SLPC  C21321564   2.633   5.221   8.328 -0.6447  0.1556  0.2367
  187SLPC  H13R21565   2.624   5.258   8.431  2.2841 -1.0234  1.0214
  187SLPC  C21421566   2.627   5.069   8.315 -0.0087 -0.6759  0.1804
  187SLPC  H14R21567   2.650   5.041   8.210 -0.8579  1.4283 -0.6172
  187SLPC  H14S21568   2.520   5.039   8.326 -0.4945 -0.1036 -2.3872
  187SLPC  C21521569   2.708   5.003   8.422  0.0495  0.3539 -0.1503
  187SLPC  H15R21570   2.693   4.893   8.416 -1.6960  0.5006  0.8376
  187SLPC  H15S21571   2.681   5.042   8.523  4.4620  1.8222  0.6757
  187SLPC  C21621572   2.860   5.033   8.407 -0.2718  0.0113 -0.5521
  187SLPC  H16R21573   2.881   5.138   8.435  1.2827 -0.3240 -0.3664
  187SLPC  H16S21574   2.886   5.016   8.300 -0.7906  1.3362 -0.9132
  187SLPC  C21721575   2.949   4.942   8.488 -0.3573 -0.0103 -0.1075
  187SLPC  H17R21576   3.059   4.945   8.473 -0.5052  2.3606 -1.1781
  187SLPC  H17S21577   2.928   4.836   8.462  0.8770 -0.1211 -0.7157
  187SLPC  C21821578   2.931   4.979   8.637  0.5147  0.0314 -0.9107
  187SLPC  H18R21579   2.831   4.960   8.682  1.1938 -1.2144  0.1260
  187SLPC  H18S21580   2.953   5.085   8.662  1.3516 -0.0773 -1.1400
  187SLPC  H18T21581   3.004   4.930   8.704 -2.1056 -3.5548 -0.3606
  187SLPC   C3321582   2.858   5.812   7.143 -0.3812  0.3150 -0.2688
  187SLPC   H3X21583   2.859   5.922   7.149  1.3951  0.3312 -0.3156
  187SLPC   H3Y21584   2.961   5.772   7.126 -0.9592 -2.1992  1.5197
  187SLPC   C3421585   2.815   5.757   7.275 -0.2345  0.1979 -0.0594
  187SLPC   H4X21586   2.810   5.646   7.276 -2.4011  0.2469 -0.2852
  187SLPC   H4Y21587   2.714   5.795   7.302 -0.3137 -0.5700  0.7977
  187SLPC   C3521588   2.904   5.803   7.392  0.4722  0.6314 -0.4400
  187SLPC   H5X21589   2.880   5.910   7.410  0.0691  0.0829  2.9503
  187SLPC   H5Y21590   3.011   5.784   7.370 -0.3590 -1.0896 -3.6088
  187SLPC   C3621591   2.871   5.730   7.526  0.3676  0.0884  0.2520
  187SLPC   H6X21592   2.892   5.626   7.493  1.9970 -0.4016  2.5714
  187SLPC   H6Y21593   2.765   5.738   7.559  0.9900 -0.0512  2.4416
  187SLPC   C3721594   2.964   5.773   7.644  0.5327 -0.8468  0.2583
  187SLPC   H7X21595   3.070   5.746   7.622  1.3778  0.7570  2.0909
  187SLPC   H7Y21596   2.957   5.883   7.650  1.6055 -0.4543 -3.2564
  187SLPC   C3821597   2.926   5.702   7.771 -0.1931  0.0553  0.2228
  187SLPC   H8X21598   2.975   5.602   7.761  1.4065  1.0027 -2.5440
  187SLPC   H8Y21599   2.816   5.700   7.781 -0.3107  1.6509 -0.5149
  187SLPC   C3921600   2.974   5.764   7.904 -0.2548  0.5450  0.5375
  187SLPC   H9X21601   2.960   5.873   7.888  0.5689  0.4226 -1.3502
  187SLPC   H9Y21602   3.085   5.754   7.908 -0.1802  1.4129  0.9467
  187SLPC  C31021603   2.909   5.714   8.035 -0.8731 -0.1072 -0.5883
  187SLPC  H10X21604   2.966   5.752   8.122  0.5581 -0.6964 -1.2377
  187SLPC  H10Y21605   2.921   5.604   8.045  1.9361 -0.1061 -2.8599
  187SLPC  C31121606   2.764   5.747   8.031 -0.2391 -0.0442 -0.3943
  187SLPC  H11X21607   2.706   5.698   7.950 -1.7556  1.1152 -0.0714
  187SLPC  H11Y21608   2.764   5.856   8.012 -0.1499  0.3890  1.7641
  187SLPC  C31221609   2.682   5.723   8.155 -0.0497  0.1536 -0.3236
  187SLPC  H12X21610   2.655   5.616   8.162 -1.4437  0.5371  0.7815
  187SLPC  H12Y21611   2.583   5.773   8.149  0.3091  1.0183  0.5839
  187SLPC  C31321612   2.753   5.752   8.281 -1.0340 -0.8206 -0.3999
  187SLPC  H13X21613   2.768   5.860   8.302  2.7370 -1.3949  0.6507
  187SLPC  H13Y21614   2.854   5.706   8.281 -1.7481 -2.5173 -2.2923
  187SLPC  C31421615   2.696   5.689   8.408  0.3994 -0.3453  1.1914
  187SLPC  H14X21616   2.667   5.586   8.378 -2.4467  0.9415 -0.9596
  187SLPC  H14Y21617   2.604   5.748   8.430  0.7078  1.3253 -1.5882
  187SLPC  C31521618   2.799   5.691   8.522 -0.3720 -0.2917 -0.1508
  187SLPC  H15X21619   2.768   5.775   8.588 -0.8682 -0.5732 -0.0262
  187SLPC  H15Y21620   2.906   5.700   8.494  0.0276 -2.3221  0.6171
  187SLPC  C31621621   2.785   5.567   8.613 -0.1899  0.1172 -0.0419
  187SLPC  H16X21622   2.845   5.592   8.704 -0.6492  0.5167  0.1561
  187SLPC  H16Y21623   2.831   5.479   8.564  2.2820  1.5850 -0.5555
  187SLPC  C31721624   2.649   5.528   8.669  0.3165 -0.4297 -0.3611
  187SLPC  H17X21625   2.579   5.514   8.583  0.7452 -0.5972 -0.6878
  187SLPC  H17Y21626   2.600   5.609   8.725  1.2990  0.8317 -1.2616
  187SLPC  C31821627   2.664   5.403   8.748  0.1750 -0.1901  0.4191
  187SLPC  H18X21628   2.702   5.315   8.693 -0.2543  0.2011 -0.5296
  187SLPC  H18Y21629   2.564   5.386   8.793 -1.4109  1.3359 -2.2409
  187SLPC  H18Z21630   2.739   5.414   8.830 -2.3318 -1.7811  3.1390
  188SLPC     N21631   3.472   5.002   6.175 -0.0826 -0.6148 -0.3179
  188SLPC   C1321632   3.573   4.999   6.060 -0.2334  0.2360 -0.2327
  188SLPC  H13A21633   3.641   5.083   6.062  0.9189 -0.6383 -1.5087
  188SLPC  H13B21634   3.631   4.908   6.054 -1.9309 -0.9176  0.1933
  188SLPC  H13C21635   3.526   5.031   5.968  2.5989  3.6018 -0.7181
  188SLPC   C1421636   3.398   4.875   6.173 -0.0611 -0.4236  0.5147
  188SLPC  H14A21637   3.343   4.855   6.082  1.4371 -3.0367  0.0831
  188SLPC  H14B21638   3.470   4.795   6.177  2.3057  1.5289 -0.7371
  188SLPC  H14C21639   3.324   4.873   6.253 -0.6585  1.6324  0.0883
  188SLPC   C1521640   3.372   5.114   6.161 -0.2443  0.1664 -1.0538
  188SLPC  H15A21641   3.415   5.212   6.144 -1.8309  0.7902 -1.7334
  188SLPC  H15B21642   3.308   5.098   6.076 -0.1559  2.5366 -1.6262
  188SLPC  H15C21643   3.322   5.114   6.257 -0.5616  3.1554 -1.1038
  188SLPC   C1221644   3.561   5.017   6.305 -0.2325  0.4475 -0.2025
  188SLPC  H12A21645   3.627   5.102   6.300  2.4615 -1.5446 -1.6823
  188SLPC  H12B21646   3.634   4.940   6.324 -1.6905 -0.7962  0.5924
  188SLPC   C1121647   3.477   5.041   6.433 -0.3056  1.0605  1.0572
  188SLPC  H11A21648   3.543   5.012   6.517  1.4721 -1.0600 -0.9243
  188SLPC  H11B21649   3.397   4.967   6.453  1.0742 -0.3660  1.4450
  188SLPC     P21650   3.486   5.295   6.485 -0.2322  0.0941  0.1615
  188SLPC   O1321651   3.609   5.309   6.406 -0.2222 -0.1813 -0.0396
  188SLPC   O1421652   3.389   5.407   6.490 -0.2775 -0.1143  0.4295
  188SLPC   O1221653   3.413   5.167   6.426  0.8832 -0.5606 -0.2284
  188SLPC   O1121654   3.530   5.254   6.634 -0.4208 -0.2963 -0.7368
  188SLPC    C121655   3.431   5.248   6.748 -0.2933 -0.1979  0.3815
  188SLPC    HA21656   3.328   5.231   6.710 -1.5898  4.0417  1.5043
  188SLPC    HB21657   3.468   5.171   6.819  1.2760  0.9265  0.8411
  188SLPC    C221658   3.425   5.380   6.830 -0.4097  0.4259 -0.2378
  188SLPC    HS21659   3.438   5.464   6.759 -2.1040  0.0744 -0.9934
  188SLPC   O2121660   3.540   5.381   6.912  0.3070 -0.2721 -0.0969
  188SLPC   C2121661   3.623   5.482   6.924  0.4358 -0.9592 -0.0666
  188SLPC   O2221662   3.625   5.592   6.874  0.7937 -0.7393 -0.2665
  188SLPC   C2221663   3.716   5.427   7.032 -0.0747  0.2674  0.0315
  188SLPC   H2R21664   3.656   5.462   7.119 -1.4263  0.3529 -0.9028
  188SLPC   H2S21665   3.751   5.322   7.023  2.5322  0.8670  1.8628
  188SLPC    C321666   3.293   5.393   6.908  0.0777 -0.4050 -0.4862
  188SLPC    HX21667   3.293   5.315   6.987  3.8282  0.2059  0.2923
  188SLPC    HY21668   3.208   5.383   6.836  2.3083  2.4233 -3.8487
  188SLPC   O3121669   3.276   5.514   6.980 -0.0969  0.1480  0.5902
  188SLPC   C3121670   3.226   5.620   6.923  0.0781 -0.5066  0.1234
  188SLPC   O3221671   3.177   5.629   6.812  0.2403 -0.1996 -0.1736
  188SLPC   C3221672   3.243   5.741   7.012 -0.1432 -0.6353  0.2499
  188SLPC   H2X21673   3.184   5.710   7.101 -0.6110 -0.6896 -0.0786
  188SLPC   H2Y21674   3.206   5.822   6.946 -1.5498 -1.4235  0.0325
  188SLPC   C2321675   3.845   5.518   7.041  0.1762  0.3606  0.4421
  188SLPC   H3R21676   3.813   5.624   7.049  0.7384  0.5138  0.7001
  188SLPC   H3S21677   3.910   5.493   6.954  0.0072 -2.8706  1.0984
  188SLPC   C2421678   3.920   5.494   7.166  0.3928 -0.0306  0.9046
  188SLPC   H4R21679   4.002   5.569   7.159 -0.8594  1.2783 -0.4752
  188SLPC   H4S21680   3.963   5.392   7.172 -1.0054 -0.6649  0.5171
  188SLPC   C2521681   3.836   5.526   7.292 -0.1104 -0.6958 -0.2375
  188SLPC   H5R21682   3.770   5.439   7.316  1.2593 -1.3074  1.4735
  188SLPC   H5S21683   3.764   5.607   7.264  0.5059 -0.2486 -0.5652
  188SLPC   C2621684   3.911   5.565   7.419  1.0458 -0.2792  0.4286
  188SLPC   H6R21685   3.962   5.661   7.396  1.5936 -0.7183 -0.2253
  188SLPC   H6S21686   4.000   5.499   7.427  1.3117  0.0858  0.5477
  188SLPC   C2721687   3.822   5.566   7.544  0.2034  0.1453 -0.3861
  188SLPC   H7R21688   3.792   5.464   7.574 -1.2304  1.1373  1.8808
  188SLPC   H7S21689   3.726   5.615   7.520  0.7372  0.4489 -1.9948
  188SLPC   C2821690   3.886   5.629   7.662  0.0344 -0.4724  0.1512
  188SLPC   H8R21691   3.816   5.667   7.740  1.5199 -0.4625  1.5358
  188SLPC   H8S21692   3.928   5.725   7.625 -2.1399 -0.4070 -2.4380
  188SLPC   C2921693   3.995   5.533   7.708 -0.4910 -0.8749  0.7610
  188SLPC   H9R21694   4.084   5.530   7.642 -1.4603  1.6606 -0.8169
  188SLPC  C21021695   3.995   5.482   7.830 -0.7293 -0.1354  0.4710
  188SLPC  H10R21696   4.086   5.423   7.852 -0.5152  0.2066  0.5071
  188SLPC  C21121697   3.895   5.488   7.943  0.1523  0.9653  0.1883
  188SLPC  H11R21698   3.832   5.578   7.957 -0.8948 -0.0821  2.8495
  188SLPC  H11S21699   3.944   5.472   8.042  1.5272  0.3610 -0.5550
  188SLPC  C21221700   3.800   5.363   7.923  0.0774 -1.0435 -0.3982
  188SLPC  H12R21701   3.761   5.349   7.822 -1.0370 -0.9763  0.0111
  188SLPC  C21321702   3.762   5.277   8.016  0.5857 -0.1926 -0.9571
  188SLPC  H13R21703   3.697   5.192   7.992 -1.8755  0.9483  1.1966
  188SLPC  C21421704   3.801   5.285   8.159 -1.2487 -0.3072 -0.2813
  188SLPC  H14R21705   3.810   5.392   8.188  0.3752 -0.0840 -1.4328
  188SLPC  H14S21706   3.898   5.230   8.164 -1.8511 -1.4698 -1.0187
  188SLPC  C21521707   3.707   5.209   8.256  0.0302  0.3993 -0.6249
  188SLPC  H15R21708   3.659   5.123   8.206 -3.7196  2.0700 -0.2472
  188SLPC  H15S21709   3.621   5.271   8.290  0.3819  0.2316  0.6167
  188SLPC  C21621710   3.786   5.153   8.378  0.3740  0.2463 -0.1546
  188SLPC  H16R21711   3.874   5.101   8.335  1.6294  3.7390 -2.2179
  188SLPC  H16S21712   3.721   5.078   8.427 -0.8371  0.2443 -1.6906
  188SLPC  C21721713   3.812   5.247   8.492  0.0779  0.2617  0.2830
  188SLPC  H17R21714   3.715   5.285   8.531  1.3493  2.7433  1.2182
  188SLPC  H17S21715   3.865   5.338   8.457 -2.4381  1.1984 -1.4229
  188SLPC  C21821716   3.889   5.190   8.619 -0.4590 -0.1591  0.8118
  188SLPC  H18R21717   3.894   5.273   8.692 -0.7288  0.9097 -0.3514
  188SLPC  H18S21718   3.989   5.150   8.594 -0.0163  0.4303  1.5979
  188SLPC  H18T21719   3.833   5.108   8.668  0.1459  0.2750  2.2764
  188SLPC   C3321720   3.386   5.776   7.046 -0.2347 -1.0075 -0.3591
  188SLPC   H3X21721   3.381   5.883   7.076  0.7697 -1.2023  0.5681
  188SLPC   H3Y21722   3.434   5.774   6.946  0.8365  1.1237  0.0538
  188SLPC   C3421723   3.459   5.704   7.159  0.3757  0.5125 -0.4930
  188SLPC   H4X21724   3.557   5.755   7.166  0.4524  0.4395 -1.0172
  188SLPC   H4Y21725   3.463   5.596   7.134 -0.4262  0.3233  0.1345
  188SLPC   C3521726   3.396   5.724   7.300 -0.0920 -0.7748 -1.0936
  188SLPC   H5X21727   3.309   5.655   7.302  1.2694 -2.5318 -0.4044
  188SLPC   H5Y21728   3.369   5.829   7.324 -0.6457 -0.9038 -1.1314
  188SLPC   C3621729   3.497   5.662   7.403  0.3566 -0.6300  0.1450
  188SLPC   H6X21730   3.588   5.726   7.408  1.0396 -1.6277  0.8398
  188SLPC   H6Y21731   3.533   5.566   7.361  2.8395  1.0217 -1.8429
  188SLPC   C3721732   3.450   5.651   7.538  0.0326 -0.3095  0.3878
  188SLPC   H7X21733   3.534   5.614   7.600  0.4674  0.3114  0.1683
  188SLPC   H7Y21734   3.361   5.584   7.546 -0.3143 -0.0669 -1.1582
  188SLPC   C3821735   3.408   5.785   7.610  0.8588 -0.1868  0.1506
  188SLPC   H8X21736   3.320   5.830   7.559  1.4187  0.7189 -0.0308
  188SLPC   H8Y21737   3.491   5.859   7.603  1.2604 -0.6777 -0.4649
  188SLPC   C3921738   3.361   5.761   7.754 -0.2689  0.2357  0.1215
  188SLPC   H9X21739   3.295   5.671   7.754  0.3603 -0.2371  0.8530
  188SLPC   H9Y21740   3.294   5.846   7.780  1.7115  1.9973 -0.2511
  188SLPC  C31021741   3.474   5.752   7.854  0.5172 -0.2052  0.1317
  188SLPC  H10X21742   3.541   5.840   7.853  0.0421  0.1595 -1.5064
  188SLPC  H10Y21743   3.533   5.660   7.836 -1.7045 -1.6363 -0.2469
  188SLPC  C31121744   3.406   5.740   7.995 -0.3314 -0.7441  0.6322
  188SLPC  H11X21745   3.360   5.638   7.996 -4.1753  0.8048  1.6220
  188SLPC  H11Y21746   3.320   5.810   7.994  0.5150  0.3546 -1.5797
  188SLPC  C31221747   3.501   5.752   8.111 -0.7934 -0.1364 -0.4495
  188SLPC  H12X21748   3.484   5.847   8.166 -3.1537  0.5088 -2.1373
  188SLPC  H12Y21749   3.604   5.758   8.069 -0.7241 -0.0652 -0.2736
  188SLPC  C31321750   3.490   5.639   8.213  0.1588  0.5697 -0.4676
  188SLPC  H13X21751   3.481   5.533   8.183 -0.6135  0.0934  1.3004
  188SLPC  H13Y21752   3.386   5.649   8.252  0.6577 -0.2656  1.1822
  188SLPC  C31421753   3.574   5.648   8.334  0.1214 -0.2974  0.4294
  188SLPC  H14X21754   3.597   5.755   8.350 -0.0122 -0.4385  1.6770
  188SLPC  H14Y21755   3.664   5.593   8.297 -0.0832 -1.1118  1.1003
  188SLPC  C31521756   3.515   5.560   8.451  0.6730 -0.0694 -0.3535
  188SLPC  H15X21757   3.504   5.453   8.425 -0.9953 -0.1431  0.5325
  188SLPC  H15Y21758   3.410   5.588   8.473  0.4878 -1.4990  0.6976
  188SLPC  C31621759   3.590   5.561   8.586  0.1660 -0.5512 -0.3742
  188SLPC  H16X21760   3.612   5.664   8.621  4.5123 -1.3072 -0.3080
  188SLPC  H16Y21761   3.689   5.512   8.573  0.7540 -1.1493  4.5762
  188SLPC  C31721762   3.522   5.483   8.701  0.3440 -0.1360  0.1898
  188SLPC  H17X21763   3.506   5.381   8.659  0.7049 -0.6011  1.1476
  188SLPC  H17Y21764   3.427   5.534   8.728  1.4793  1.1239  2.0375
  188SLPC  C31821765   3.606   5.478   8.827 -0.6017 -0.2347 -0.2119
  188SLPC  H18X21766   3.644   5.574   8.867  2.5425 -0.1899 -2.9060
  188SLPC  H18Y21767   3.698   5.418   8.811 -0.9686 -1.1368  0.9059
  188SLPC  H18Z21768   3.547   5.424   8.904 -1.0976  1.2381  0.4714
  189SLPC     N21769   6.334   0.615   6.187 -0.0471 -0.2970  0.8657
  189SLPC   C1321770   6.465   0.577   6.112  0.1256 -0.2557 -0.4233
  189SLPC  H13A21771   6.444   0.534   6.016  0.6654 -1.4058 -0.0494
  189SLPC  H13B21772   6.529   0.662   6.093  1.2121 -0.7070  0.9874
  189SLPC  H13C21773   6.517   0.499   6.167 -0.0039 -0.1879 -0.2031
  189SLPC   C1421774   6.268   0.500   6.226 -0.3797 -0.8179  0.9276
  189SLPC  H14A21775   6.248   0.436   6.141  0.1449 -0.0977  0.2421
  189SLPC  H14B21776   6.331   0.445   6.295  1.5222 -1.0722 -0.8906
  189SLPC  H14C21777   6.179   0.534   6.276 -0.7981  0.2534 -0.4580
  189SLPC   C1521778   6.252   0.694   6.089  0.0832  0.2628 -0.3173
  189SLPC  H15A21779   6.180   0.758   6.137  1.0077  1.5501 -0.5880
  189SLPC  H15B21780   6.320   0.760   6.038 -0.5799  1.6552  0.5578
  189SLPC  H15C21781   6.198   0.641   6.012 -3.5012 -0.6070  2.4956
  189SLPC   C1221782   6.365   0.713   6.296 -0.3023  0.2792 -0.7070
  189SLPC  H12A21783   6.418   0.795   6.250  2.8604 -1.7081 -0.8742
  189SLPC  H12B21784   6.433   0.665   6.364  1.0924  1.0084 -1.5542
  189SLPC   C1121785   6.250   0.776   6.380 -0.0234 -0.1712  0.1405
  189SLPC  H11A21786   6.298   0.811   6.474 -2.8166 -1.4286  2.1643
  189SLPC  H11B21787   6.174   0.701   6.410 -1.2838  0.3804 -1.5158
  189SLPC     P21788   6.259   1.021   6.285  0.1439 -0.2840  0.2013
  189SLPC   O1321789   6.389   1.014   6.358  0.3247  0.4867  0.4723
  189SLPC   O1421790   6.269   1.066   6.141  0.5475 -0.1975 -0.3054
  189SLPC   O1221791   6.192   0.883   6.301  0.4368  0.7265  0.0873
  189SLPC   O1121792   6.165   1.121   6.366  0.3992  0.3013  0.7389
  189SLPC    C121793   6.028   1.121   6.311 -0.0422  0.3654 -0.0795
  189SLPC    HA21794   6.001   1.225   6.282 -0.8639 -0.4270 -2.3727
  189SLPC    HB21795   6.015   1.060   6.219 -0.9188 -1.4729  1.2071
  189SLPC    C221796   5.917   1.077   6.404 -0.0469  0.3416 -0.3385
  189SLPC    HS21797   5.816   1.102   6.366 -0.1837 -2.1440 -1.8444
  189SLPC   O2121798   5.932   1.130   6.536 -0.2219  0.5054  0.2676
  189SLPC   C2121799   5.896   1.258   6.551  0.1614  0.2398  0.0893
  189SLPC   O2221800   5.841   1.328   6.467 -0.1503 -0.2280 -0.0637
  189SLPC   C2221801   5.935   1.296   6.692  0.3680 -0.1684  0.2958
  189SLPC   H2R21802   6.043   1.275   6.703 -0.1266 -2.6115  1.1917
  189SLPC   H2S21803   5.917   1.405   6.695 -1.3960 -0.4372  1.2315
  189SLPC    C321804   5.909   0.920   6.431  0.2911 -0.2651  0.5280
  189SLPC    HX21805   6.006   0.903   6.482  0.6983  0.4379  0.0132
  189SLPC    HY21806   5.905   0.860   6.338  2.5650  1.8902 -1.0913
  189SLPC   O3121807   5.792   0.894   6.507 -0.4146 -0.2089 -0.2175
  189SLPC   C3121808   5.798   0.803   6.604  0.0151  0.8198  0.0997
  189SLPC   O3221809   5.890   0.728   6.629  0.0131  0.1394 -0.2696
  189SLPC   C3221810   5.664   0.805   6.686  0.5039 -0.0708  0.4708
  189SLPC   H2X21811   5.631   0.699   6.689 -1.5625  0.5315  3.6123
  189SLPC   H2Y21812   5.588   0.873   6.643 -0.0454 -0.7347  0.3781
  189SLPC   C2321813   5.853   1.219   6.799 -0.7500  0.0475 -1.0245
  189SLPC   H3R21814   5.865   1.108   6.791 -0.5433 -0.0356  0.2646
  189SLPC   H3S21815   5.745   1.242   6.787 -1.2483 -2.1158 -1.1081
  189SLPC   C2421816   5.896   1.269   6.943  0.4803  0.8056 -0.8647
  189SLPC   H4R21817   5.814   1.239   7.011  1.5162  0.6812  0.3574
  189SLPC   H4S21818   5.906   1.379   6.951 -0.3432  0.8182  0.1136
  189SLPC   C2521819   6.033   1.208   6.997 -0.5897  0.3618 -0.4762
  189SLPC   H5R21820   6.108   1.283   6.962 -0.1344 -0.0755 -0.4495
  189SLPC   H5S21821   6.051   1.108   6.952 -0.5959  0.9221 -1.7752
  189SLPC   C2621822   6.039   1.223   7.157  0.7132 -0.1077 -0.4174
  189SLPC   H6R21823   5.958   1.172   7.213  0.9823 -1.0588 -0.8692
  189SLPC   H6S21824   6.034   1.331   7.183  1.9327 -0.2152  0.3081
  189SLPC   C2721825   6.174   1.183   7.215  0.4831  0.2546  0.5378
  189SLPC   H7R21826   6.253   1.207   7.140 -0.1187  1.1990  0.2014
  189SLPC   H7S21827   6.178   1.072   7.224  0.4110  0.0178 -1.6741
  189SLPC   C2821828   6.202   1.246   7.348  0.6594  1.1132 -0.1414
  189SLPC   H8R21829   6.119   1.222   7.417  1.1012  2.1895  0.7975
  189SLPC   H8S21830   6.191   1.356   7.332 -1.7460  0.9950  0.3908
  189SLPC   C2921831   6.338   1.206   7.416 -0.2963 -0.4273  0.0712
  189SLPC   H9R21832   6.423   1.237   7.354  0.0932 -0.1128  0.7549
  189SLPC  C21021833   6.382   1.162   7.534  0.2811  0.5999  0.2203
  189SLPC  H10R21834   6.488   1.132   7.538  0.0754 -0.2355 -0.3611
  189SLPC  C21121835   6.294   1.120   7.654 -0.0746 -0.6082  0.1342
  189SLPC  H11R21836   6.228   1.207   7.677  1.1327  0.5815 -0.7352
  189SLPC  H11S21837   6.355   1.103   7.745  1.0149 -0.8857 -0.6320
  189SLPC  C21221838   6.216   1.000   7.624 -0.3375  0.2477  0.1477
  189SLPC  H12R21839   6.159   1.014   7.530 -0.7254  1.5423  0.5597
  189SLPC  C21321840   6.194   0.896   7.705  0.4783  1.2362 -0.6253
  189SLPC  H13R21841   6.123   0.816   7.679  0.1900  0.7154  1.5462
  189SLPC  C21421842   6.247   0.873   7.841 -1.0290 -0.2411 -0.2527
  189SLPC  H14R21843   6.262   0.967   7.897  0.5374 -1.6786  1.9065
  189SLPC  H14S21844   6.353   0.841   7.829 -0.7941  0.2797  0.4076
  189SLPC  C21521845   6.167   0.776   7.928  0.1553  0.2719 -0.2948
  189SLPC  H15R21846   6.150   0.677   7.880  0.0569 -0.4416  1.1611
  189SLPC  H15S21847   6.071   0.830   7.941  0.1512  0.2032 -0.0489
  189SLPC  C21621848   6.219   0.758   8.066 -0.1395 -0.3480 -0.5859
  189SLPC  H16R21849   6.266   0.850   8.108 -1.8432  0.6322 -0.7168
  189SLPC  H16S21850   6.287   0.671   8.061 -0.2437 -0.4335 -0.5116
  189SLPC  C21721851   6.118   0.726   8.170 -0.7317 -0.1922 -0.1287
  189SLPC  H17R21852   6.043   0.651   8.137 -1.9569  1.5597 -1.5805
  189SLPC  H17S21853   6.064   0.819   8.199  1.4801  1.0242  0.3486
  189SLPC  C21821854   6.191   0.663   8.293 -0.3250  0.2873  0.2587
  189SLPC  H18R21855   6.119   0.651   8.377  0.5323  2.1801  1.3301
  189SLPC  H18S21856   6.269   0.728   8.337  1.2106 -2.0967  1.2632
  189SLPC  H18T21857   6.246   0.577   8.249  0.2366  1.2814 -1.0451
  189SLPC   C3321858   5.683   0.846   6.832  0.7265 -0.0753  0.1734
  189SLPC   H3X21859   5.715   0.953   6.836 -1.9022  0.7452  1.0810
  189SLPC   H3Y21860   5.773   0.792   6.869  0.3502  0.0737  1.3561
  189SLPC   C3421861   5.556   0.808   6.910 -0.0513  0.6753 -0.1332
  189SLPC   H4X21862   5.544   0.697   6.915  1.6855  0.3618 -1.8876
  189SLPC   H4Y21863   5.463   0.845   6.862 -1.2349 -1.9133 -0.0450
  189SLPC   C3521864   5.557   0.882   7.051 -0.9909  0.1056  0.1433
  189SLPC   H5X21865   5.472   0.852   7.115 -1.1543  0.0563 -0.0961
  189SLPC   H5Y21866   5.540   0.990   7.030  0.3949  0.6590  1.6891
  189SLPC   C3621867   5.688   0.852   7.130 -0.2023 -0.6805  0.2995
  189SLPC   H6X21868   5.780   0.897   7.087  0.4657  0.7047  2.9981
  189SLPC   H6Y21869   5.706   0.742   7.138  1.1131 -0.4122  1.3330
  189SLPC   C3721870   5.692   0.910   7.278 -0.1574  0.6378 -0.2585
  189SLPC   H7X21871   5.610   0.860   7.334 -0.5318  0.1177 -1.2458
  189SLPC   H7Y21872   5.679   1.020   7.273  0.0893  0.6246 -2.6126
  189SLPC   C3821873   5.826   0.862   7.340 -0.1175 -0.3001 -0.1568
  189SLPC   H8X21874   5.910   0.902   7.279 -1.3446  0.0558 -1.6579
  189SLPC   H8Y21875   5.828   0.751   7.345  1.0342 -0.3471 -1.1997
  189SLPC   C3921876   5.839   0.919   7.478 -0.3998  0.1458 -0.3342
  189SLPC   H9X21877   5.817   1.028   7.477  0.0915  0.3516  2.3039
  189SLPC   H9Y21878   5.948   0.924   7.499 -0.5198 -0.5309  0.5505
  189SLPC  C31021879   5.780   0.834   7.588  0.8438  1.0514 -1.1661
  189SLPC  H10X21880   5.840   0.740   7.590  3.1521  2.3902 -2.3929
  189SLPC  H10Y21881   5.671   0.822   7.572  0.6738  2.8195 -1.5936
  189SLPC  C31121882   5.799   0.894   7.735  0.1760  0.3691  0.2862
  189SLPC  H11X21883   5.785   1.003   7.720  0.8730  0.5262  0.7650
  189SLPC  H11Y21884   5.898   0.858   7.770 -0.6928 -2.9370 -0.3321
  189SLPC  C31221885   5.707   0.828   7.836  0.0167 -0.3828  0.1316
  189SLPC  H12X21886   5.705   0.718   7.819 -0.4067 -0.1334 -1.6398
  189SLPC  H12Y21887   5.604   0.861   7.811 -0.0778 -2.1275 -2.1343
  189SLPC  C31321888   5.743   0.875   7.979  0.4008  0.4693  0.1622
  189SLPC  H13X21889   5.723   0.984   7.987  0.7717  0.4368  2.1416
  189SLPC  H13Y21890   5.851   0.852   7.990  0.1783 -1.1902 -0.8697
  189SLPC  C31421891   5.656   0.805   8.086 -0.2777 -0.2071  0.1422
  189SLPC  H14X21892   5.550   0.810   8.054  0.2299 -1.8940 -2.1001
  189SLPC  H14Y21893   5.665   0.857   8.184 -1.3704 -0.2365  0.2692
  189SLPC  C31521894   5.684   0.657   8.102  0.1922  0.4349 -0.2357
  189SLPC  H15X21895   5.791   0.636   8.123  0.0881 -0.6952 -0.7432
  189SLPC  H15Y21896   5.662   0.598   8.011 -1.9100 -1.1869  1.2245
  189SLPC  C31621897   5.600   0.597   8.215  0.5171  0.0518 -0.5556
  189SLPC  H16X21898   5.538   0.514   8.177  0.4888  0.5787 -1.6997
  189SLPC  H16Y21899   5.528   0.672   8.255  0.9423 -0.4072  1.1559
  189SLPC  C31721900   5.689   0.539   8.332  0.2695  0.0206 -0.4836
  189SLPC  H17X21901   5.782   0.496   8.288 -1.6396  0.0828 -5.1208
  189SLPC  H17Y21902   5.645   0.460   8.395  0.7764  0.7507  0.8407
  189SLPC  C31821903   5.725   0.645   8.429 -0.3181 -0.1749 -0.0772
  189SLPC  H18X21904   5.796   0.601   8.502 -0.2266  1.0601  0.6081
  189SLPC  H18Y21905   5.633   0.677   8.483  1.0818  0.3429  2.1437
  189SLPC  H18Z21906   5.784   0.724   8.379  0.0248  0.4995  1.3391
  190SLPC     N21907   0.011   5.548   6.162 -0.1747 -0.9523 -0.7889
  190SLPC   C1321908  -0.049   5.641   6.061 -0.0926 -0.0351  1.0515
  190SLPC  H13A21909  -0.001   5.621   5.966 -0.9463 -3.4577  1.2045
  190SLPC  H13B21910  -0.153   5.619   6.049  0.0805 -1.8664  2.5159
  190SLPC  H13C21911  -0.053   5.745   6.088  0.3557  0.5940 -1.0870
  190SLPC   C1421912   0.157   5.583   6.175  0.0360  1.2747 -0.2009
  190SLPC  H14A21913   0.207   5.521   6.248 -0.5942 -0.5683 -1.2679
  190SLPC  H14B21914   0.209   5.558   6.083 -0.9099 -1.6487 -0.0488
  190SLPC  H14C21915   0.181   5.686   6.198  0.0683  0.8970  1.6125
  190SLPC   C1521916  -0.010   5.405   6.116  0.1173 -1.0080  1.5030
  190SLPC  H15A21917   0.016   5.398   6.011 -1.5647  0.6568  0.9257
  190SLPC  H15B21918   0.053   5.343   6.179 -0.5072  0.4503  3.6536
  190SLPC  H15C21919  -0.113   5.374   6.128 -0.4303  0.5545  1.0464
  190SLPC   C1221920  -0.052   5.567   6.297 -0.2778 -0.0332 -0.3470
  190SLPC  H12A21921  -0.044   5.668   6.335 -1.9581 -0.1860  0.5423
  190SLPC  H12B21922   0.007   5.510   6.366 -0.6744  0.8222  0.7224
  190SLPC   C1121923  -0.201   5.533   6.317 -1.0478  0.3488  0.2024
  190SLPC  H11A21924  -0.254   5.590   6.238  0.8555  0.2663 -1.1936
  190SLPC  H11B21925  -0.234   5.561   6.420 -0.9454 -2.0709  0.9604
  190SLPC     P21926  -0.170   5.278   6.399 -0.2886 -0.0818  0.1636
  190SLPC   O1321927  -0.290   5.213   6.441 -0.1371 -0.0209  0.2352
  190SLPC   O1421928  -0.070   5.196   6.326 -0.4245 -0.0351  0.3544
  190SLPC   O1221929  -0.225   5.395   6.301  0.2735 -0.3983  0.5215
  190SLPC   O1121930  -0.091   5.344   6.529  0.3707 -0.1061 -0.2507
  190SLPC    C121931  -0.015   5.254   6.605  0.0228  0.4346 -0.6678
  190SLPC    HA21932  -0.054   5.150   6.602  1.5381 -0.1549 -2.1896
  190SLPC    HB21933   0.092   5.257   6.573 -0.0168  2.2753 -0.7260
  190SLPC    C221934  -0.023   5.289   6.757  0.2848  0.4455 -0.6534
  190SLPC    HS21935   0.062   5.257   6.822 -0.6557 -1.4348 -0.2808
  190SLPC   O2121936  -0.150   5.223   6.806 -0.1935 -0.3708 -0.0475
  190SLPC   C2121937  -0.133   5.101   6.853  0.7173 -0.1859 -0.1693
  190SLPC   O2221938  -0.028   5.041   6.857  0.3381 -0.6825  0.8432
  190SLPC   C2221939  -0.260   5.047   6.910 -0.2771 -0.1510  0.2388
  190SLPC   H2R21940  -0.335   5.034   6.830  0.9054 -0.2503 -0.8863
  190SLPC   H2S21941  -0.248   4.939   6.935  1.0095 -0.1227 -0.2214
  190SLPC    C321942  -0.034   5.437   6.788 -0.1494 -0.0676 -0.1401
  190SLPC    HX21943  -0.122   5.483   6.738 -0.1311  3.2095  2.4704
  190SLPC    HY21944   0.051   5.494   6.743 -0.4339 -0.0073 -0.6071
  190SLPC   O3121945  -0.053   5.455   6.934  0.6183  0.4855  0.3880
  190SLPC   C3121946  -0.042   5.574   6.974  0.1095  0.1314 -0.1645
  190SLPC   O3221947  -0.005   5.668   6.907  0.2904 -0.0616  0.1566
  190SLPC   C3221948  -0.064   5.580   7.121 -0.2282  0.5299 -0.0044
  190SLPC   H2X21949  -0.051   5.479   7.166  1.0257  1.1005  0.9619
  190SLPC   H2Y21950  -0.154   5.641   7.141 -0.2680  0.6936 -0.6492
  190SLPC   C2321951  -0.305   5.137   7.025  0.1548  0.2098 -0.3050
  190SLPC   H3R21952  -0.404   5.092   7.046  0.2591 -0.6743 -1.5488
  190SLPC   H3S21953  -0.314   5.244   6.996 -0.8383 -0.3430 -2.2180
  190SLPC   C2421954  -0.205   5.130   7.144 -0.4668  0.1386 -0.1065
  190SLPC   H4R21955  -0.103   5.165   7.119 -0.3055 -0.7976 -0.7962
  190SLPC   H4S21956  -0.193   5.025   7.178 -2.0841  0.3970  1.4384
  190SLPC   C2521957  -0.266   5.193   7.271  0.5132 -0.7975 -0.0911
  190SLPC   H5R21958  -0.359   5.136   7.290  0.5321 -2.1973 -3.4781
  190SLPC   H5S21959  -0.299   5.299   7.260  1.2841 -0.2191  2.4479
  190SLPC   C2621960  -0.172   5.209   7.385 -0.0615  0.1701  0.2263
  190SLPC   H6R21961  -0.096   5.284   7.356  0.0017 -0.2026 -0.5872
  190SLPC   H6S21962  -0.119   5.112   7.398 -0.7305 -0.4308 -1.3471
  190SLPC   C2721963  -0.235   5.257   7.512  0.1196  0.3120  0.2698
  190SLPC   H7R21964  -0.277   5.359   7.499 -2.0485 -0.3595  1.5014
  190SLPC   H7S21965  -0.143   5.288   7.567  0.3948 -2.2253  1.3359
  190SLPC   C2821966  -0.322   5.150   7.580 -0.6138  0.2529 -0.4972
  190SLPC   H8R21967  -0.264   5.056   7.582  0.1370  0.7186  0.4671
  190SLPC   H8S21968  -0.420   5.130   7.532 -1.2875  3.5090 -0.7287
  190SLPC   C2921969  -0.343   5.206   7.719 -0.0105  0.4511 -0.4002
  190SLPC   H9R21970  -0.413   5.290   7.722  1.2424  1.5083 -0.0450
  190SLPC  C21021971  -0.300   5.155   7.840  0.1543 -0.1138  0.6088
  190SLPC  H10R21972  -0.322   5.209   7.933 -0.3001 -1.4613  1.3094
  190SLPC  C21121973  -0.209   5.033   7.856 -0.1408 -0.1756  0.4876
  190SLPC  H11R21974  -0.147   5.020   7.765 -0.8657 -1.7945  0.1853
  190SLPC  H11S21975  -0.286   4.955   7.876  2.0292 -2.5474  0.0812
  190SLPC  C21221976  -0.116   5.055   7.972 -1.0484 -0.3477 -0.3216
  190SLPC  H12R21977  -0.053   5.144   7.956 -1.0987  0.0269  1.3490
  190SLPC  C21321978  -0.109   4.980   8.081  0.2355  0.0169 -0.2456
  190SLPC  H13R21979  -0.032   4.998   8.157 -0.5441 -1.7049  1.0037
  190SLPC  C21421980  -0.186   4.850   8.103 -0.2926  0.5582 -0.2402
  190SLPC  H14R21981  -0.121   4.775   8.154 -2.1253 -1.0251 -0.1034
  190SLPC  H14S21982  -0.218   4.805   8.006  1.0083 -0.6779 -0.1286
  190SLPC  C21521983  -0.314   4.874   8.193 -0.3028 -0.4757  1.1318
  190SLPC  H15R21984  -0.390   4.801   8.158  0.4261 -0.8427  0.2445
  190SLPC  H15S21985  -0.347   4.977   8.169  5.3942  1.6365  0.6203
  190SLPC  C21621986  -0.299   4.847   8.346 -0.1087 -0.2983  0.0395
  190SLPC  H16R21987  -0.255   4.941   8.385  2.0066 -0.3938 -1.8336
  190SLPC  H16S21988  -0.214   4.781   8.374 -0.3224 -0.3022  0.6859
  190SLPC  C21721989  -0.425   4.799   8.402  0.3550  0.3797  0.1185
  190SLPC  H17R21990  -0.456   4.696   8.373 -0.3834  0.3700  0.9024
  190SLPC  H17S21991  -0.509   4.868   8.380 -0.2718 -0.1860  0.6786
  190SLPC  C21821992  -0.417   4.780   8.551  0.2860 -0.1807  0.9014
  190SLPC  H18R21993  -0.356   4.693   8.582 -0.8329 -1.7910 -1.1792
  190SLPC  H18S21994  -0.518   4.755   8.592 -1.7612 -0.4194 -3.6667
  190SLPC  H18T21995  -0.393   4.874   8.606  0.9350  0.9004 -1.1463
  190SLPC   C3321996   0.052   5.670   7.181 -0.0178  1.4780 -0.1577
  190SLPC   H3X21997   0.038   5.767   7.128 -2.3332  0.2672 -1.9352
  190SLPC   H3Y21998   0.149   5.622   7.156 -0.8400  1.0793 -2.9173
  190SLPC   C3421999   0.030   5.685   7.330  0.6042 -0.6793  0.3525
  190SLPC   H4X22000  -0.069   5.709   7.372  0.2338 -0.7078 -0.4761
  190SLPC   H4Y22001   0.086   5.777   7.360  0.0455  0.4807 -1.8805
  190SLPC   C3522002   0.089   5.571   7.417  0.2992  0.4130  0.4361
  190SLPC   H5X22003   0.177   5.524   7.368  0.3080  1.7060 -0.8575
  190SLPC   H5Y22004   0.007   5.497   7.428 -1.6640  2.3283 -0.5872
  190SLPC   C3622005   0.142   5.621   7.553 -0.5167  0.0596 -0.5344
  190SLPC   H6X22006   0.087   5.714   7.576  0.9843  1.1557 -1.2308
  190SLPC   H6Y22007   0.250   5.637   7.532 -0.2881 -1.1334 -0.3542
  190SLPC   C3722008   0.119   5.514   7.658  0.8884 -0.3881 -0.3069
  190SLPC   H7X22009   0.153   5.414   7.624 -1.6193 -2.4948  2.8586
  190SLPC   H7Y22010   0.011   5.501   7.679  0.9540 -1.7203 -0.6896
  190SLPC   C3822011   0.201   5.547   7.782  0.0646 -0.5517  0.0909
  190SLPC   H8X22012   0.156   5.642   7.817 -1.5085 -0.6245 -1.5638
  190SLPC   H8Y22013   0.308   5.532   7.759  1.2812  0.4734  4.2940
  190SLPC   C3922014   0.170   5.451   7.903 -0.3397  0.7414 -0.2759
  190SLPC   H9X22015   0.189   5.346   7.872  3.3286  1.0162  0.5777
  190SLPC   H9Y22016   0.061   5.464   7.922  0.1496  1.9377  2.1481
  190SLPC  C31022017   0.250   5.490   8.026 -1.1458 -0.1524 -0.5190
  190SLPC  H10X22018   0.268   5.599   8.022  1.3678 -0.5555 -2.1317
  190SLPC  H10Y22019   0.354   5.452   8.027 -0.8530  0.6485 -0.4548
  190SLPC  C31122020   0.172   5.455   8.156  0.4478 -0.0479  0.8036
  190SLPC  H11X22021   0.167   5.344   8.163  0.6869 -0.0001  1.7534
  190SLPC  H11Y22022   0.072   5.500   8.141  0.7346  0.5565  0.6782
  190SLPC  C31222023   0.226   5.496   8.296  0.7357  0.8443 -0.3582
  190SLPC  H12X22024   0.143   5.475   8.366  0.8011  1.1403 -0.1886
  190SLPC  H12Y22025   0.253   5.603   8.285  2.0279  0.4208 -1.6803
  190SLPC  C31322026   0.355   5.428   8.335 -0.4834  0.1756  0.4125
  190SLPC  H13X22027   0.369   5.471   8.436  2.9510 -0.2465  0.2628
  190SLPC  H13Y22028   0.444   5.468   8.280 -0.2849  1.2439  1.4688
  190SLPC  C31422029   0.361   5.269   8.329  1.0162 -0.7918  0.0753
  190SLPC  H14X22030   0.455   5.226   8.369  1.0480 -0.4617  0.3675
  190SLPC  H14Y22031   0.354   5.256   8.219 -1.5289 -1.9682  0.3203
  190SLPC  C31522032   0.239   5.208   8.403  0.2310  0.4919  0.3941
  190SLPC  H15X22033   0.152   5.252   8.349  1.7109  0.1265 -2.4866
  190SLPC  H15Y22034   0.235   5.253   8.504 -1.1752  0.1156  0.5333
  190SLPC  C31622035   0.251   5.053   8.421  0.3070  0.1076 -0.2372
  190SLPC  H16X22036   0.332   5.034   8.494 -1.0283 -0.4400  1.1649
  190SLPC  H16Y22037   0.283   5.008   8.325  1.4998  1.0817 -0.3150
  190SLPC  C31722038   0.114   5.003   8.469 -0.1410 -0.3848  0.0420
  190SLPC  H17X22039   0.036   5.035   8.397  1.3682  2.0817 -0.6014
  190SLPC  H17Y22040   0.090   5.056   8.563  0.4793  0.7074 -0.3978
  190SLPC  C31822041   0.113   4.857   8.507  0.8154 -0.7503  0.5774
  190SLPC  H18X22042   0.195   4.834   8.578 -0.5417 -0.1679  2.4197
  190SLPC  H18Y22043   0.130   4.779   8.430 -1.0782 -2.2063  1.5716
  190SLPC  H18Z22044   0.016   4.827   8.551 -0.3763 -0.0617 -1.4492
  191SLPC     N22045   4.453   3.140   5.789  0.3371 -0.1058 -0.4232
  191SLPC   C1322046   4.529   3.146   5.663  0.4064 -1.1034  0.5080
  191SLPC  H13A22047   4.630   3.178   5.686 -0.1016  0.2907  0.8592
  191SLPC  H13B22048   4.520   3.049   5.616 -1.7116 -0.7339  0.0953
  191SLPC  H13C22049   4.475   3.213   5.598  0.3058 -1.2586  0.4311
  191SLPC   C1422050   4.314   3.107   5.751  0.3410 -0.0986  0.3761
  191SLPC  H14A22051   4.267   3.188   5.698 -0.7003  0.9234  2.7184
  191SLPC  H14B22052   4.313   3.022   5.684  1.4982  1.0448 -1.1627
  191SLPC  H14C22053   4.254   3.080   5.836 -0.4128 -0.0361 -0.1325
  191SLPC   C1522054   4.470   3.276   5.845  0.9813 -0.1613 -0.5078
  191SLPC  H15A22055   4.430   3.340   5.768 -1.1772 -0.8389  0.0048
  191SLPC  H15B22056   4.417   3.291   5.938  1.1781  2.4602 -0.7327
  191SLPC  H15C22057   4.576   3.297   5.853  0.8674  0.2571 -0.0744
  191SLPC   C1222058   4.516   3.032   5.879 -0.0518 -0.8015  0.0343
  191SLPC  H12A22059   4.518   2.945   5.815 -0.5272 -0.3435 -0.6219
  191SLPC  H12B22060   4.447   3.021   5.962 -1.5148  1.9590 -0.6879
  191SLPC   C1122061   4.656   3.058   5.940 -0.2610  0.1032 -0.2186
  191SLPC  H11A22062   4.683   2.971   6.004  1.9804  1.0349  0.1910
  191SLPC  H11B22063   4.650   3.141   6.014  0.9931 -0.6304  0.7429
  191SLPC     P22064   4.908   3.071   5.874 -0.4173  0.0503  0.1543
  191SLPC   O1322065   4.941   2.928   5.887  0.2105 -0.1582  0.6565
  191SLPC   O1422066   4.982   3.152   5.772  0.2895 -0.3462  0.9169
  191SLPC   O1222067   4.760   3.090   5.837  0.5344 -0.3024  0.1437
  191SLPC   O1122068   4.905   3.137   6.011 -0.0350 -0.3983  0.4005
  191SLPC    C122069   4.907   3.277   6.034 -0.6797 -0.5544 -0.6127
  191SLPC    HA22070   5.008   3.306   5.998 -0.7233  1.1134  0.5084
  191SLPC    HB22071   4.830   3.338   5.982 -0.5628  2.3333  2.2887
  191SLPC    C222072   4.912   3.319   6.187  0.4347  0.3288 -0.4506
  191SLPC    HS22073   4.903   3.430   6.185 -2.1888  0.1616 -1.6901
  191SLPC   O2122074   5.034   3.261   6.234  0.0247  0.4141 -0.0943
  191SLPC   C2122075   5.094   3.331   6.331  0.2089 -0.4493 -0.2846
  191SLPC   O2222076   5.055   3.441   6.370  0.8633 -0.9848  0.3397
  191SLPC   C2222077   5.222   3.263   6.372 -0.0007 -0.6868 -0.1077
  191SLPC   H2R22078   5.203   3.162   6.413 -0.9915  0.0225  1.2258
  191SLPC   H2S22079   5.291   3.248   6.285 -0.4035 -0.7214 -0.4224
  191SLPC    C322080   4.798   3.248   6.256 -0.0936  0.1607 -0.7770
  191SLPC    HX22081   4.817   3.138   6.261 -1.0834 -0.1278 -2.5433
  191SLPC    HY22082   4.717   3.261   6.181  0.8152 -0.1119 -1.8437
  191SLPC   O3122083   4.771   3.300   6.385  0.0541 -0.1484 -0.2006
  191SLPC   C3122084   4.684   3.397   6.403 -0.3046 -0.0975 -0.1216
  191SLPC   O3222085   4.615   3.439   6.313  0.3219 -0.6587 -0.1323
  191SLPC   C3222086   4.694   3.453   6.550  0.0289 -0.0648 -0.7212
  191SLPC   H2X22087   4.802   3.453   6.578  0.0599  0.9888 -0.7863
  191SLPC   H2Y22088   4.638   3.376   6.608 -0.0385  1.4008  1.2819
  191SLPC   C2322089   5.299   3.350   6.479 -0.3597  0.7256  0.1923
  191SLPC   H3R22090   5.311   3.457   6.450  3.7424  0.7035  1.1828
  191SLPC   H3S22091   5.407   3.324   6.473 -0.4675  0.4989 -0.9741
  191SLPC   C2422092   5.241   3.349   6.622  0.2507  0.0736 -0.6396
  191SLPC   H4R22093   5.308   3.288   6.688  0.2647  0.5085 -0.2462
  191SLPC   H4S22094   5.142   3.299   6.623  0.6562 -0.7526 -0.4101
  191SLPC   C2522095   5.211   3.487   6.689 -0.4165  0.3210 -0.8443
  191SLPC   H5R22096   5.166   3.552   6.611 -0.6579 -0.2862 -1.2212
  191SLPC   H5S22097   5.313   3.528   6.702  0.7313 -1.5063 -3.2530
  191SLPC   C2622098   5.141   3.476   6.826 -0.2469  0.7618 -0.3162
  191SLPC   H6R22099   5.151   3.567   6.889  1.3617 -0.3494  1.1433
  191SLPC   H6S22100   5.185   3.388   6.877 -1.2889  1.2870  1.5817
  191SLPC   C2722101   4.989   3.426   6.809 -0.8332 -0.0714  0.1039
  191SLPC   H7R22102   5.000   3.334   6.748  0.8751  0.3646 -0.3166
  191SLPC   H7S22103   4.936   3.507   6.753  2.2119  1.1539 -1.2632
  191SLPC   C2822104   4.920   3.401   6.941  0.3821  0.1590 -0.6705
  191SLPC   H8R22105   4.820   3.368   6.907 -0.3078  1.2373  0.2602
  191SLPC   H8S22106   4.896   3.495   6.995 -1.3287 -0.2635 -0.6517
  191SLPC   C2922107   4.973   3.287   7.025  0.2029 -0.1721 -0.7362
  191SLPC   H9R22108   5.082   3.290   7.039  0.1332  2.0231 -0.4567
  191SLPC  C21022109   4.900   3.190   7.078 -0.0246  0.3388 -0.7802
  191SLPC  H10R22110   4.953   3.121   7.144  2.7846  0.6628 -2.5210
  191SLPC  C21122111   4.755   3.161   7.081  0.1867 -0.6669  0.2683
  191SLPC  H11R22112   4.694   3.247   7.047  0.1453 -0.6642  0.3476
  191SLPC  H11S22113   4.710   3.156   7.183 -2.5752  0.1029 -0.8320
  191SLPC  C21222114   4.700   3.038   7.022  1.0501  0.8237 -0.4586
  191SLPC  H12R22115   4.687   2.953   7.091  0.1971  1.6182  0.3944
  191SLPC  C21322116   4.649   3.024   6.898 -0.0182 -0.5158  0.1751
  191SLPC  H13R22117   4.614   2.922   6.874  0.0272 -0.4275 -0.2726
  191SLPC  C21422118   4.635   3.121   6.786 -0.1160 -0.2144 -0.9210
  191SLPC  H14R22119   4.685   3.219   6.806  1.4823 -1.1254 -0.2444
  191SLPC  H14S22120   4.529   3.133   6.757 -0.1611 -1.4923 -1.3327
  191SLPC  C21522121   4.705   3.055   6.664  0.3421  0.1089  0.0407
  191SLPC  H15R22122   4.679   3.109   6.570 -0.2826 -0.8182 -0.3305
  191SLPC  H15S22123   4.657   2.955   6.660  0.8203 -0.1561  0.8337
  191SLPC  C21622124   4.854   3.054   6.676  0.2141 -0.6064 -0.1150
  191SLPC  H16R22125   4.884   2.994   6.765  0.2733  0.2378  0.4364
  191SLPC  H16S22126   4.884   3.160   6.690  0.3230 -0.8095  1.4318
  191SLPC  C21722127   4.933   2.991   6.554 -0.6702  0.6926  0.0165
  191SLPC  H17R22128   4.916   3.057   6.466 -1.8114  0.3313 -0.0437
  191SLPC  H17S22129   4.881   2.902   6.514  1.6276  0.1633 -2.1161
  191SLPC  C21822130   5.084   2.971   6.568 -0.7327 -0.9915  0.1512
  191SLPC  H18R22131   5.122   3.062   6.619 -2.0383 -0.1406 -0.3699
  191SLPC  H18S22132   5.132   2.969   6.468  0.6935  0.0044  0.7718
  191SLPC  H18T22133   5.101   2.874   6.620  1.0032 -1.4214 -1.1114
  191SLPC   C3322134   4.616   3.585   6.588  0.0530 -0.2024  0.3816
  191SLPC   H3X22135   4.542   3.605   6.508  0.5978  0.5663  0.0473
  191SLPC   H3Y22136   4.687   3.671   6.586  1.1087 -1.0666 -0.6544
  191SLPC   C3422137   4.542   3.582   6.727  0.1040  0.0129  0.6043
  191SLPC   H4X22138   4.478   3.492   6.710 -3.1459  1.8357  2.2421
  191SLPC   H4Y22139   4.469   3.665   6.738  2.0044  1.8581 -0.1715
  191SLPC   C3522140   4.631   3.558   6.851  0.9348  0.1975 -0.2844
  191SLPC   H5X22141   4.709   3.636   6.864  0.6462  0.5060 -0.3813
  191SLPC   H5Y22142   4.681   3.460   6.836  0.9546 -0.2732  2.3540
  191SLPC   C3622143   4.562   3.561   6.991 -0.1474  0.4862 -0.1323
  191SLPC   H6X22144   4.545   3.670   7.009  0.5173  0.2359  2.3862
  191SLPC   H6Y22145   4.642   3.515   7.052 -0.3107  1.4367  0.8281
  191SLPC   C3722146   4.439   3.467   7.002 -0.1525 -0.3567 -0.8385
  191SLPC   H7X22147   4.462   3.371   6.950 -1.6617 -0.3158 -1.6389
  191SLPC   H7Y22148   4.361   3.518   6.943  0.7302 -1.0124 -2.6289
  191SLPC   C3822149   4.408   3.430   7.148 -0.2501  0.2959  0.3974
  191SLPC   H8X22150   4.362   3.329   7.140 -1.3847  0.7554  0.7858
  191SLPC   H8Y22151   4.339   3.510   7.183 -0.5821  0.2338 -0.0884
  191SLPC   C3922152   4.516   3.405   7.246 -0.0982 -0.0484  0.2270
  191SLPC   H9X22153   4.521   3.501   7.302  1.8467 -1.0275  1.8699
  191SLPC   H9Y22154   4.608   3.384   7.187 -0.4063  3.7344 -1.9399
  191SLPC  C31022155   4.486   3.293   7.346  0.3248  0.2885 -0.6454
  191SLPC  H10X22156   4.553   3.305   7.434 -0.3983  1.1283 -0.2010
  191SLPC  H10Y22157   4.514   3.193   7.307  3.2859  0.0231  1.7494
  191SLPC  C31122158   4.343   3.292   7.394  0.4372 -0.4694 -0.2501
  191SLPC  H11X22159   4.263   3.243   7.333 -2.7901  2.0693  1.6074
  191SLPC  H11Y22160   4.312   3.398   7.402  2.6784  0.1767  0.3195
  191SLPC  C31222161   4.321   3.225   7.534  0.1635 -0.3328  0.5184
  191SLPC  H12X22162   4.400   3.273   7.595  0.7461 -0.0529 -0.4498
  191SLPC  H12Y22163   4.349   3.117   7.532  2.0357  0.0855  1.8685
  191SLPC  C31322164   4.178   3.246   7.587 -0.1732  0.1417 -0.8956
  191SLPC  H13X22165   4.128   3.181   7.512  1.3390 -1.3116 -0.6964
  191SLPC  H13Y22166   4.133   3.348   7.578  0.8551  0.6309 -0.6128
  191SLPC  C31422167   4.178   3.191   7.731  0.6071  0.2751  0.6741
  191SLPC  H14X22168   4.244   3.102   7.739 -1.2555 -1.0316  2.1436
  191SLPC  H14Y22169   4.081   3.150   7.763  0.0854 -0.2423 -1.4221
  191SLPC  C31522170   4.225   3.290   7.840  0.0169  0.3845  0.7217
  191SLPC  H15X22171   4.290   3.367   7.794  0.1253  0.5655  1.1655
  191SLPC  H15Y22172   4.280   3.242   7.924 -0.5330 -1.3831  0.0999
  191SLPC  C31622173   4.100   3.360   7.905  0.5035 -0.0091 -0.4319
  191SLPC  H16X22174   4.019   3.389   7.835 -1.8367  0.5774  2.3038
  191SLPC  H16Y22175   4.139   3.449   7.959  1.1219 -0.0880 -0.7380
  191SLPC  C31722176   4.035   3.265   8.007  0.0263 -0.6792 -0.8256
  191SLPC  H17X22177   4.109   3.205   8.064 -0.9855 -1.9586 -0.8105
  191SLPC  H17Y22178   3.989   3.183   7.947  0.2162 -0.1824 -1.6697
  191SLPC  C31822179   3.932   3.329   8.106 -0.4386  0.3962 -0.0993
  191SLPC  H18X22180   3.895   3.249   8.174 -0.0761  0.4011  0.1061
  191SLPC  H18Y22181   3.853   3.379   8.047  0.1269 -0.7871 -1.9407
  191SLPC  H18Z22182   3.979   3.396   8.182 -1.5129  0.0518  0.8884
  192SLPC     N22183   5.235   4.709   6.347 -0.5409  0.2913  0.4134
  192SLPC   C1322184   5.208   4.755   6.206 -1.0569  0.6024 -0.3172
  192SLPC  H13A22185   5.247   4.692   6.128  1.5038 -0.6338  1.8376
  192SLPC  H13B22186   5.101   4.762   6.191 -1.4371 -2.9439 -0.1342
  192SLPC  H13C22187   5.247   4.854   6.189 -2.3633  1.8083  2.8684
  192SLPC   C1422188   5.154   4.794   6.438  0.0125 -0.4037 -0.6755
  192SLPC  H14A22189   5.159   4.901   6.421 -3.7093  0.5103  2.4556
  192SLPC  H14B22190   5.050   4.763   6.436 -1.1312  2.8755  0.8475
  192SLPC  H14C22191   5.182   4.783   6.541 -1.9029 -1.1607 -0.2012
  192SLPC   C1522192   5.384   4.731   6.370 -0.1489  0.2507 -0.6745
  192SLPC  H15A22193   5.448   4.685   6.296 -1.4665  1.5608 -2.7286
  192SLPC  H15B22194   5.391   4.839   6.365 -1.3398  0.3603 -0.3675
  192SLPC  H15C22195   5.407   4.695   6.469 -1.8674 -1.6666 -0.9077
  192SLPC   C1222196   5.195   4.561   6.364  0.3079 -0.0182 -0.0277
  192SLPC  H12A22197   5.234   4.501   6.284  0.4009  0.1793 -0.1291
  192SLPC  H12B22198   5.087   4.569   6.357  0.2547  0.9648  1.3985
  192SLPC   C1122199   5.207   4.496   6.501 -0.1842  0.4438  0.2451
  192SLPC  H11A22200   5.156   4.398   6.491  0.6637 -0.0010  0.1528
  192SLPC  H11B22201   5.145   4.556   6.572  0.0870  0.6560  0.3072
  192SLPC     P22202   5.439   4.387   6.479 -0.0703 -0.3706  0.0316
  192SLPC   O1322203   5.378   4.320   6.365  0.4094 -0.0946 -0.4386
  192SLPC   O1422204   5.564   4.454   6.447 -0.1766 -0.2445 -0.0689
  192SLPC   O1222205   5.341   4.485   6.547  0.0640  0.2230  0.1066
  192SLPC   O1122206   5.454   4.293   6.604 -0.3195  0.3393  0.2249
  192SLPC    C122207   5.508   4.335   6.726  0.3823  0.4465 -0.5577
  192SLPC    HA22208   5.610   4.294   6.745  0.0117  0.2937  1.3703
  192SLPC    HB22209   5.511   4.446   6.737 -0.9782  0.5940 -1.4648
  192SLPC    C222210   5.433   4.281   6.848  0.1189 -0.1566  0.1301
  192SLPC    HS22211   5.472   4.312   6.947 -1.1756  0.7133  0.3866
  192SLPC   O2122212   5.408   4.137   6.844  0.0760 -0.1794 -0.6280
  192SLPC   C2122213   5.507   4.066   6.895  0.3851 -0.4180 -0.1356
  192SLPC   O2222214   5.608   4.108   6.947 -0.2688  0.0066 -0.1532
  192SLPC   C2222215   5.491   3.918   6.873  0.9260 -0.2017 -0.3324
  192SLPC   H2R22216   5.386   3.895   6.903  0.7684  2.5122  1.5301
  192SLPC   H2S22217   5.491   3.883   6.767 -0.8643 -1.9825  0.1817
  192SLPC    C322218   5.293   4.347   6.839 -0.1524  0.3965 -0.3989
  192SLPC    HX22219   5.258   4.338   6.734 -1.6237  1.4993 -0.0395
  192SLPC    HY22220   5.315   4.452   6.869  0.8093  0.4947 -1.4011
  192SLPC   O3122221   5.204   4.272   6.926  0.1685 -0.4339 -0.8030
  192SLPC   C3122222   5.198   4.318   7.048 -0.3448  0.4491 -0.2690
  192SLPC   O3222223   5.244   4.422   7.094 -0.0408  0.1594  0.0568
  192SLPC   C3222224   5.134   4.210   7.132 -0.3189 -0.8308 -0.0269
  192SLPC   H2X22225   5.036   4.182   7.087 -1.5523  0.3093  1.8265
  192SLPC   H2Y22226   5.122   4.249   7.235  1.4225 -0.0023 -0.0937
  192SLPC   C2322227   5.579   3.823   6.952 -0.3964 -0.0554  0.0534
  192SLPC   H3R22228   5.684   3.854   6.938 -0.1280 -1.1082 -0.3333
  192SLPC   H3S22229   5.568   3.725   6.901 -1.6012  1.2040 -2.2662
  192SLPC   C2422230   5.560   3.808   7.103 -0.1255  0.0544 -0.3641
  192SLPC   H4R22231   5.452   3.802   7.128 -0.5208  0.3605 -1.8993
  192SLPC   H4S22232   5.607   3.892   7.158 -0.9715  0.2481  0.0789
  192SLPC   C2522233   5.633   3.679   7.142  0.4800  0.1501  0.5522
  192SLPC   H5R22234   5.738   3.672   7.107  0.4626 -2.7937  0.8474
  192SLPC   H5S22235   5.599   3.594   7.080  1.5081  0.6179 -0.7081
  192SLPC   C2622236   5.613   3.646   7.284 -0.2242  0.6045 -0.2049
  192SLPC   H6R22237   5.506   3.628   7.307 -0.7003  3.8777  0.6336
  192SLPC   H6S22238   5.641   3.728   7.353 -1.3841  0.1586  0.8313
  192SLPC   C2722239   5.693   3.523   7.333  0.0515 -0.7997 -0.2284
  192SLPC   H7R22240   5.802   3.544   7.326  0.3155 -2.4637 -2.0181
  192SLPC   H7S22241   5.667   3.435   7.270 -1.9355  0.7605 -1.7040
  192SLPC   C2822242   5.659   3.473   7.480  0.0697  0.5324  0.1137
  192SLPC   H8R22243   5.741   3.399   7.492  0.9151  1.0685 -1.8943
  192SLPC   H8S22244   5.557   3.429   7.485  0.0191  0.4066 -1.4943
  192SLPC   C2922245   5.682   3.568   7.590  0.0386 -0.2218 -0.5798
  192SLPC   H9R22246   5.768   3.636   7.588 -0.8441  0.9470 -0.3677
  192SLPC  C21022247   5.608   3.583   7.701  0.1398 -1.0268  0.0511
  192SLPC  H10R22248   5.639   3.665   7.768 -2.7119  0.3202 -0.0886
  192SLPC  C21122249   5.488   3.503   7.737  0.4678 -0.1540  0.4678
  192SLPC  H11R22250   5.507   3.395   7.755 -1.2531 -0.5003  0.3503
  192SLPC  H11S22251   5.413   3.505   7.655  0.3230  0.9247  0.6163
  192SLPC  C21222252   5.428   3.546   7.862 -0.1030 -0.1208 -0.7913
  192SLPC  H12R22253   5.360   3.631   7.850  1.8696  1.6750 -0.0414
  192SLPC  C21322254   5.463   3.519   7.983 -0.5894 -1.1718 -0.3367
  192SLPC  H13R22255   5.410   3.568   8.066  2.7853 -1.9829  2.5418
  192SLPC  C21422256   5.570   3.421   8.017  0.0224  0.0541  0.3250
  192SLPC  H14R22257   5.669   3.471   8.003  0.1033 -0.3377 -0.6227
  192SLPC  H14S22258   5.569   3.335   7.946  1.5971  0.1884  0.0946
  192SLPC  C21522259   5.571   3.357   8.153 -0.2565 -0.3435 -0.4515
  192SLPC  H15R22260   5.635   3.266   8.155  1.0298  0.4919 -2.1244
  192SLPC  H15S22261   5.475   3.319   8.195 -0.6557 -0.3819 -1.3876
  192SLPC  C21622262   5.643   3.447   8.258 -0.2203 -0.3107 -0.1420
  192SLPC  H16R22263   5.589   3.544   8.249  0.4080 -0.0154 -0.8883
  192SLPC  H16S22264   5.746   3.465   8.221 -0.3280 -0.2628 -0.4247
  192SLPC  C21722265   5.643   3.394   8.403 -0.4091  0.1710  0.0674
  192SLPC  H17R22266   5.542   3.364   8.439  0.2243 -0.7211  1.1505
  192SLPC  H17S22267   5.707   3.304   8.413 -0.3309  0.4226  2.1189
  192SLPC  C21822268   5.710   3.493   8.499 -0.6835  0.6249  0.1372
  192SLPC  H18R22269   5.820   3.506   8.486 -0.7580  0.8712 -0.2726
  192SLPC  H18S22270   5.697   3.447   8.599 -0.0367  0.1138 -0.0041
  192SLPC  H18T22271   5.665   3.594   8.496  0.1526  0.9770 -1.4470
  192SLPC   C3322272   5.214   4.076   7.141  0.7573  0.1479 -0.4440
  192SLPC   H3X22273   5.223   4.016   7.048  0.6490 -2.4739  1.1399
  192SLPC   H3Y22274   5.150   4.016   7.210  2.2669 -0.1154  0.7766
  192SLPC   C3422275   5.344   4.088   7.217  0.3464  0.7978 -0.2967
  192SLPC   H4X22276   5.357   4.191   7.257 -1.3360  0.8422  0.1821
  192SLPC   H4Y22277   5.424   4.079   7.140  1.0115 -0.0840  0.4773
  192SLPC   C3522278   5.370   3.985   7.334 -0.5128  0.2217  0.2765
  192SLPC   H5X22279   5.477   4.007   7.353 -0.3482  1.2504 -1.6314
  192SLPC   H5Y22280   5.369   3.879   7.304  1.5921  1.1118 -3.5566
  192SLPC   C3622281   5.293   4.003   7.461  0.3375  0.2799 -0.2056
  192SLPC   H6X22282   5.188   3.969   7.449  1.4731 -3.6081 -0.5771
  192SLPC   H6Y22283   5.288   4.106   7.501 -0.4379 -0.2302  1.0783
  192SLPC   C3722284   5.356   3.913   7.570 -0.2185 -0.5860  0.0768
  192SLPC   H7X22285   5.435   3.972   7.621 -0.9066  0.3987  0.0487
  192SLPC   H7Y22286   5.408   3.826   7.525  0.7386  1.3961 -3.0349
  192SLPC   C3822287   5.262   3.880   7.689  0.2361 -0.1658 -0.7666
  192SLPC   H8X22288   5.318   3.833   7.772  0.0168  0.2578 -0.3725
  192SLPC   H8Y22289   5.189   3.803   7.658 -0.1673 -0.5229  1.0127
  192SLPC   C3922290   5.184   4.002   7.747  0.3309  0.4912 -0.7627
  192SLPC   H9X22291   5.105   4.028   7.674 -0.6539 -1.4361 -0.4302
  192SLPC   H9Y22292   5.251   4.086   7.777  0.8156 -0.1939  0.1137
  192SLPC  C31022293   5.116   3.970   7.889  0.0167  0.3410 -0.3463
  192SLPC  H10X22294   5.199   3.962   7.962 -0.6558  0.0481  0.4012
  192SLPC  H10Y22295   5.070   3.870   7.874 -0.2353  0.4730 -0.4525
  192SLPC  C31122296   5.011   4.077   7.940 -0.3171  0.2649 -0.2248
  192SLPC  H11X22297   4.923   4.070   7.872 -0.1319  1.5370 -0.6346
  192SLPC  H11Y22298   5.050   4.181   7.938  0.5271 -0.0254  0.8346
  192SLPC  C31222299   4.984   4.053   8.082  0.2973 -0.2147  0.5207
  192SLPC  H12X22300   5.067   4.097   8.140 -0.8034  1.4426  0.9146
  192SLPC  H12Y22301   4.986   3.944   8.107 -2.0906 -0.3629  0.3112
  192SLPC  C31322302   4.849   4.111   8.119  0.6424  0.2245  0.2669
  192SLPC  H13X22303   4.764   4.077   8.056  0.3327 -1.4561  1.5490
  192SLPC  H13Y22304   4.852   4.222   8.112  0.1192  0.2220 -0.1129
  192SLPC  C31422305   4.800   4.081   8.260  1.0362  0.3436 -0.3144
  192SLPC  H14X22306   4.696   4.119   8.266  1.0910  0.4140  0.2686
  192SLPC  H14Y22307   4.859   4.137   8.335 -0.3188  0.5576  0.6203
  192SLPC  C31522308   4.791   3.930   8.290  0.1090  0.4592 -0.2662
  192SLPC  H15X22309   4.885   3.888   8.331  0.2374  0.4990 -0.5230
  192SLPC  H15Y22310   4.757   3.881   8.197 -1.0968 -0.8539  0.8185
  192SLPC  C31622311   4.686   3.896   8.402 -0.0575  0.5903 -0.0888
  192SLPC  H16X22312   4.580   3.923   8.382 -1.5727 -4.4637 -0.4154
  192SLPC  H16Y22313   4.717   3.952   8.493 -1.5662  0.7921  0.3314
  192SLPC  C31722314   4.690   3.747   8.437  0.1519  0.5719  0.7552
  192SLPC  H17X22315   4.795   3.718   8.456  0.3147  0.1913 -0.6657
  192SLPC  H17Y22316   4.662   3.695   8.343  1.4383 -0.6522  1.0303
  192SLPC  C31822317   4.597   3.708   8.547  0.0273  0.0630 -0.0828
  192SLPC  H18X22318   4.494   3.749   8.541  0.6773  1.5598 -1.9990
  192SLPC  H18Y22319   4.633   3.734   8.649 -1.2717 -0.0858  0.4275
  192SLPC  H18Z22320   4.593   3.597   8.549 -1.0936  0.0545 -1.4461
  193SOD    SOD22321   1.817   5.508   2.926 -0.0471  0.1750 -0.0480
  194SOD    SOD22322   6.164   3.144   1.460  0.3093  0.4591  0.3591
  195SOD    SOD22323   5.419   2.630  15.101 -0.0089  0.1412 -0.0854
  196SOD    SOD22324   2.052   3.690  10.509  0.1266 -0.2500  0.4127
  197SOD    SOD22325   5.572   5.399  16.825  0.1031 -0.2838 -0.0180
  198SOD    SOD22326   0.764   2.921   3.282  0.0415  0.3401 -0.1540
  199SOD    SOD22327   3.619   4.999   2.213  0.5751 -0.3853 -0.7503
  200SOD    SOD22328   5.257   4.210   5.325  0.0390  0.4865 -0.0408
  201SOD    SOD22329   3.193   2.478  13.149 -0.6004  0.0714  0.0933
  202SOD    SOD22330   2.886   5.386   4.868 -0.2785 -0.0671 -0.5554
  203SOD    SOD22331   6.050   4.865  16.373 -0.0047  0.2389 -0.1383
  204SOD    SOD22332   2.633   4.921   0.356  0.2148  0.5199 -0.3784
  205SOD    SOD22333   5.733   2.029   5.953 -0.8378 -0.4922 -0.0585
  206SOD    SOD22334   0.338   4.363  11.228 -0.4268  0.0130  0.4153
  207SOD    SOD22335   0.480   4.056   5.223 -0.1461  0.1295  0.0221
  208SOD    SOD22336   0.009   5.596   4.430  0.0028 -0.0213  0.3494
  209SOD    SOD22337   5.073   3.276  10.547 -0.4154 -0.1935 -0.0994
  210SOD    SOD22338   6.270   1.514  16.268  0.2431 -0.1627  0.9310
  211SOD    SOD22339   1.219   3.363   2.468  0.0952  0.4447 -0.1264
  212SOD    SOD22340   4.303   3.971   2.496 -0.0508 -0.3423  0.1152
  213SOD    SOD22341   5.410   4.130   3.193  0.2412  0.0648  0.0311
  214SOD    SOD22342   0.636   0.311   1.360  0.5339 -0.5582  0.1723
  215SOD    SOD22343   2.433   6.564   3.115  0.4319 -0.2138 -0.4286
  216SOD    SOD22344   3.969   1.801   5.735  0.0429  0.7020  0.1401
  217SOD    SOD22345   1.536   4.973  12.549 -0.2659  0.3905  0.1085
  218SOD    SOD22346   0.700   3.962   1.884  0.4521 -0.3139 -0.1309
  219SOD    SOD22347   5.941   0.126   4.917  0.0819 -0.2339  0.4919
  220SOD    SOD22348   5.852   0.032  12.733  0.1773  0.0325 -0.3066
  221SOD    SOD22349   4.531   0.862   0.628 -0.5001 -0.0831 -0.3554
  222SOD    SOD22350   5.016   6.027   6.404 -0.5133  0.2676  0.2494
  223SOD    SOD22351   4.237   3.214   2.434  0.1474  0.6802 -0.1646
  224SOD    SOD22352   0.206   1.962  11.072 -0.2091 -0.0889 -0.2917
  225SOD    SOD22353   6.348   6.282   3.778  0.4419  0.0541  0.1449
  226SOD    SOD22354   0.423   3.381  16.683 -0.0292 -0.0407 -0.3721
  227SOD    SOD22355   5.466   5.217   4.227  0.3240 -0.3407  0.7470
  228SOD    SOD22356   0.050   3.029   0.214  0.0815  0.2397  0.0824
  229SOD    SOD22357   6.457   1.508  13.252  0.4465 -0.1585  0.3209
  230SOD    SOD22358   1.431   4.247  13.269  0.5157 -0.3812 -0.2601
  231SOD    SOD22359   0.828   1.743  10.762 -0.2551 -0.0818  0.0536
  232SOD    SOD22360   2.636   3.184  11.268  0.3666 -0.3662  0.3223
  233SOD    SOD22361   1.671   5.063   4.333  0.3540  0.1006  0.3411
  234SOD    SOD22362   2.061   2.151   4.526 -0.2059 -0.1168 -0.3132
  235SOD    SOD22363   0.818   5.282  14.195  0.0026 -0.0091 -0.0365
  236SOD    SOD22364   5.768   0.442   3.644 -0.1160  0.1704  0.0686
  237SOD    SOD22365   5.903   2.277  10.860 -0.1784 -0.6908  0.3888
  238SOD    SOD22366   2.842   2.639   4.671 -0.0137  0.0005 -0.0934
  239SOD    SOD22367   1.863   0.103  12.231 -0.2694 -0.3027 -0.1120
  240SOD    SOD22368   0.620   0.947  12.418 -0.1911  0.3044  0.1442
  241SOD    SOD22369   2.295   0.704   6.403  0.4390  0.3324  0.1182
  242SOD    SOD22370   2.653   4.988   3.843  0.0313  0.6606  0.0815
  243SOD    SOD22371   1.257   4.142   2.946  0.1292 -0.3332  0.2678
  244SOD    SOD22372   2.942   1.207   6.009  0.6844 -0.1891 -0.0617
  245SOD    SOD22373   0.368   1.323   2.451  0.0745  0.4133 -0.5306
  246SOD    SOD22374   4.638   2.925  10.864 -0.0020 -0.1540 -0.2137
  247SOD    SOD22375   3.318   3.016  16.660 -0.0122 -0.5501 -0.4489
  248SOD    SOD22376   5.230   1.076   3.964 -0.4463  0.0544  0.0292
  249SOD    SOD22377   2.107   3.863   5.948  0.4773  0.0775  0.1180
  250SOD    SOD22378   3.634   2.675  11.816 -0.0858 -0.2317  0.3835
  251SOD    SOD22379   4.023   3.743   4.614  0.4303 -0.3157 -0.2055
  252SOD    SOD22380   0.571   1.442  14.465 -0.0014 -0.8004  0.2626
  253SOD    SOD22381   3.139   1.711   2.204 -0.0614 -0.1164 -0.2372
  254SOD    SOD22382   3.414   4.135   3.356  0.1203 -0.0880 -0.2531
  255SOD    SOD22383   0.614   3.088   4.700 -0.2069  0.2265  0.0293
  256SOD    SOD22384   4.595   5.601  15.717  0.3486 -0.1949 -0.6689
  257SOD    SOD22385   1.747   6.360   5.038 -0.1191 -0.0345  0.0812
  258SOD    SOD22386   2.768   4.618   3.289 -0.0045  0.0120  0.5181
  259SOD    SOD22387   5.836   3.430   6.083  0.0780  0.0059  0.1287
  260SOD    SOD22388   6.113   6.808   2.423 -0.1899  0.4254  0.1331
  261SOD    SOD22389   1.386   2.939   1.847 -0.2712 -0.7408  0.1019
  262SOD    SOD22390   5.975   6.115   1.173  0.0280  0.3795  0.2414
  263SOD    SOD22391   5.498   3.656  16.253  0.3488 -0.0654 -0.3591
  264SOD    SOD22392   6.738   4.179  12.081  0.2920  0.0339  0.3756
  265SOD    SOD22393   4.127   4.790   0.007 -0.1890 -0.0334  0.5392
  266CLA    CLA22394   5.421   5.847  16.610  0.0116 -0.2442 -0.1422
  267CLA    CLA22395   3.243   2.748  17.092 -0.1469 -0.0355 -0.0436
  268CLA    CLA22396   2.150   3.369  13.163 -0.1316  0.1472 -0.1330
  269CLA    CLA22397   4.458   6.336  11.659  0.3579 -0.5635  0.0353
  270CLA    CLA22398   3.594   3.835   2.998 -0.2242  0.2390  0.3233
  271CLA    CLA22399   1.797   1.941   3.076  0.4914  0.4237 -0.1121
  272CLA    CLA22400   2.184   5.575   3.619 -0.0027  0.3670 -0.0924
  273CLA    CLA22401   1.457   3.802   2.649  0.2720  0.2279 -0.4116
  274CLA    CLA22402   5.991   5.599   1.918 -0.4192  0.0724 -0.2133
  275CLA    CLA22403   2.383   5.109  12.570  0.3048  0.2485  0.0537
  276CLA    CLA22404   6.512   2.482   2.337 -0.3147  0.1680  0.0838
  277CLA    CLA22405   5.885   2.269   5.225 -0.4284  0.1445 -0.4838
  278CLA    CLA22406   5.296   3.029   1.117 -0.1244  0.2858 -0.0517
  279CLA    CLA22407   4.515   1.221  15.646  0.0257 -0.4369  0.0621
  280CLA    CLA22408   0.362   1.042   0.502 -0.1950  0.3137  0.1935
  281CLA    CLA22409   6.203   3.269  14.293 -0.2723  0.0810  0.2930
  282CLA    CLA22410   3.228   4.746   3.954 -0.0997  0.4057 -0.3185
  283CLA    CLA22411   5.864   0.085  16.864  0.3028  0.1529  0.5194
  284CLA    CLA22412   2.258   6.750   3.563  0.4072  0.3536  0.0378
  285CLA    CLA22413   6.750   5.503  14.382 -0.0110  0.0025 -0.3487
  286CLA    CLA22414   4.891   3.504  16.106  0.1741  0.0327  0.1241
  287CLA    CLA22415   3.113   2.930   2.806 -0.2815 -0.1379 -0.2525
  288CLA    CLA22416   4.816   2.038   3.497 -0.1664 -0.1378 -0.3621
  289CLA    CLA22417   4.239   3.081  11.588 -0.2862  0.2175  0.0499
  290CLA    CLA22418   3.863   4.052  14.030 -0.3892 -0.3873 -0.3203
  291CLA    CLA22419   0.894   0.453   3.774 -0.0110  0.3514 -0.2760
  292CLA    CLA22420   6.031   5.171   5.812  0.3651  0.4784  0.1870
  293CLA    CLA22421   1.025   2.649   1.808  0.0567  0.2311 -0.4204
  294CLA    CLA22422   3.525   3.612  13.494 -0.2376 -0.0003 -0.1305
  295CLA    CLA22423   0.012   0.449   3.559 -0.2018 -0.2745  0.0360
  296CLA    CLA22424   3.019   5.058   2.020 -0.0227 -0.0783  0.2049
  297CLA    CLA22425   5.147   4.563   5.579  0.3380 -0.7578 -0.2854
  298CLA    CLA22426   5.564   4.342  15.959 -0.0682 -0.2055 -0.4500
  299CLA    CLA22427   0.127   6.384   1.581  0.3041  0.0894  0.3933
  300CLA    CLA22428   3.692   6.363   0.325  0.3751  0.2634  0.1409
  301CLA    CLA22429   6.189   5.590   4.080 -0.0993 -0.0560 -0.3462
  302CLA    CLA22430   4.611   1.148   1.784  0.1568  0.0118 -0.1488
  303CLA    CLA22431   6.562   3.103  16.221  0.2089 -0.2905  0.0560
  304CLA    CLA22432   6.478   3.209   3.582  0.0774 -0.0600 -0.2055
  305CLA    CLA22433   0.764   1.581   1.788 -0.2106 -0.0876 -0.0350
  306CLA    CLA22434   0.923   5.194  12.453  0.0548 -0.0388 -0.0006
  307CLA    CLA22435   3.635   0.057   1.376  0.3968 -0.1837 -0.3390
  308CLA    CLA22436   1.774   4.927   3.897  0.2931 -0.1415  0.0670
  309CLA    CLA22437   2.949   4.021  15.113  0.1341  0.2325 -0.4510
  310CLA    CLA22438   2.640   3.047   4.870  0.1385 -0.4979 -0.2501
  311CLA    CLA22439   1.827   1.468   4.956 -0.1543 -0.1565  0.0529
  312CLA    CLA22440   2.577   4.441   5.361 -0.4431 -0.1669 -0.0443
  313CLA    CLA22441   3.868   2.980   4.102 -0.2824 -0.3226 -0.2084
  314CLA    CLA22442   1.795   6.772   0.997  0.0686  0.2573  0.4229
  315CLA    CLA22443   4.461   4.313   3.906 -0.0034  0.0159  0.1276
  316CLA    CLA22444   4.371   2.239  13.603  0.1307  0.0345 -0.2027
  317CLA    CLA22445   3.453   4.907  16.849  0.0290 -0.1489  0.3668
  318CLA    CLA22446   3.865   4.418   3.377  0.0510 -0.4973 -0.0580
  319TIP3   OH222447   2.289   1.286  13.761 -0.2316 -0.0964 -0.0014
  319TIP3    H122448   2.300   1.287  13.666 -1.7060 -1.0837 -0.1950
  319TIP3    H222449   2.354   1.223  13.792  1.0462  1.0566 -0.2014
  320TIP3   OH222450   4.137   1.814  12.272 -0.3903 -0.5240  0.2693
  320TIP3    H122451   4.220   1.789  12.232 -1.3302 -0.1940 -1.9910
  320TIP3    H222452   4.079   1.740  12.256 -0.9828 -0.1029  0.4204
  321TIP3   OH222453   1.372   6.613   6.601 -0.3944 -0.2757 -0.4210
  321TIP3    H122454   1.336   6.547   6.661 -0.5293 -0.1980 -0.4181
  321TIP3    H222455   1.386   6.565   6.519 -1.2510 -0.1137 -0.6662
  322TIP3   OH222456   6.116   3.656   0.923 -0.0550  0.3446 -0.1344
  322TIP3    H122457   6.037   3.685   0.877 -2.0826  0.0777  2.8840
  322TIP3    H222458   6.146   3.581   0.873 -2.2660 -0.0852 -0.9515
  323TIP3   OH222459   0.496   0.496   0.430 -0.1064 -0.3196  0.1502
  323TIP3    H122460   0.581   0.474   0.468 -0.5550 -0.6337  1.0174
  323TIP3    H222461   0.434   0.437   0.474 -0.6304 -0.8463 -1.2510
  324TIP3   OH222462   6.671   0.551  17.211 -0.2428  0.8526  0.2104
  324TIP3    H122463   6.628   0.624  17.257 -0.1717  2.1480 -1.6813
  324TIP3    H222464   6.764   0.571  17.215 -0.2728  1.3579 -1.0194
  325TIP3   OH222465   6.022   1.803  13.975  0.1308  0.3447 -0.4060
  325TIP3    H122466   6.075   1.735  13.934 -1.1489 -0.3809 -0.9414
  325TIP3    H222467   5.989   1.762  14.056 -1.3984 -0.0470 -1.1927
  326TIP3   OH222468   3.809   4.130  15.744  0.2196  0.2520 -0.4367
  326TIP3    H122469   3.729   4.080  15.755 -0.3986  1.2583 -0.2082
  326TIP3    H222470   3.879   4.071  15.772 -0.5790 -0.1199  0.8340
  327TIP3   OH222471   4.114   1.467   3.091 -0.0420  0.2209  0.2956
  327TIP3    H122472   4.172   1.391   3.098 -0.3623 -0.2536 -1.5855
  327TIP3    H222473   4.172   1.542   3.101  0.6632 -0.2558 -0.1044
  328TIP3   OH222474   4.492   2.025   3.527  0.2091  0.1189  0.0020
  328TIP3    H122475   4.427   1.978   3.578 -0.1084  0.0673 -0.4473
  328TIP3    H222476   4.575   1.984   3.550  0.0292 -0.1259  0.2187
  329TIP3   OH222477   5.493   0.611   3.902  0.6711 -0.4215 -0.3271
  329TIP3    H122478   5.405   0.639   3.878  0.9139 -0.2389 -1.0183
  329TIP3    H222479   5.546   0.628   3.825  1.3572 -0.3463  0.1467
  330TIP3   OH222480   5.449   1.224  12.036 -0.3859 -0.3095  0.3740
  330TIP3    H122481   5.502   1.159  11.990  1.4057  0.2630  1.5096
  330TIP3    H222482   5.497   1.307  12.024 -0.7786  0.1533  1.8046
  331TIP3   OH222483   1.926   4.455   1.953  0.0584 -0.1194  0.3683
  331TIP3    H122484   1.855   4.419   2.007 -0.0230  1.8533  1.6719
  331TIP3    H222485   2.002   4.453   2.010  0.6868 -0.6303 -0.4576
  332TIP3   OH222486   0.545   4.781  17.195 -0.6840  0.5358  0.2236
  332TIP3    H122487   0.519   4.730  17.272 -0.7199  0.7072  0.3275
  332TIP3    H222488   0.529   4.723  17.121  2.0208 -0.7186  0.4979
  333TIP3   OH222489   0.912   0.176   5.091  0.0189  0.0506  0.6845
  333TIP3    H122490   0.897   0.117   5.017 -2.6395 -0.6709  1.6891
  333TIP3    H222491   0.891   0.124   5.169  0.5650  1.4490  1.8253
  334TIP3   OH222492   2.214   4.402   2.806 -0.3247  0.1475 -0.1504
  334TIP3    H122493   2.160   4.364   2.738 -1.8834  0.4095  0.8904
  334TIP3    H222494   2.215   4.496   2.787 -1.6006  0.3592  0.7120
  335TIP3   OH222495   3.240   4.635   6.326 -0.4462 -0.0790  0.2857
  335TIP3    H122496   3.256   4.550   6.285  0.4269  0.0639  0.3118
  335TIP3    H222497   3.324   4.661   6.362 -1.2980 -0.5320  2.8356
  336TIP3   OH222498   0.214   0.887   1.311 -0.2449 -0.3942 -0.8330
  336TIP3    H122499   0.154   0.812   1.311  1.4075 -1.7712 -0.6611
  336TIP3    H222500   0.259   0.882   1.227  0.0223  0.3002 -0.7366
  337TIP3   OH222501   2.343   5.868   1.601  0.3154  0.6319  0.4075
  337TIP3    H122502   2.271   5.882   1.540 -0.1130 -2.2364  0.1193
  337TIP3    H222503   2.317   5.791   1.651  3.0845 -0.3813  0.4384
  338TIP3   OH222504   5.089   3.298  12.316 -0.0292  0.0351 -0.1149
  338TIP3    H122505   5.164   3.258  12.271 -0.2859  0.5061 -0.9914
  338TIP3    H222506   5.021   3.301  12.249  0.1045  2.3194 -0.2205
  339TIP3   OH222507   4.651   2.606   2.737  0.2869 -0.6704  0.5169
  339TIP3    H122508   4.741   2.591   2.706  0.5428 -0.5514  1.1935
  339TIP3    H222509   4.634   2.698   2.719 -0.0230 -0.8974 -0.4156
  340TIP3   OH222510   3.545   3.769  13.755 -0.5810  0.0410  0.2931
  340TIP3    H122511   3.511   3.855  13.727  0.2356  0.1536 -0.4224
  340TIP3    H222512   3.538   3.715  13.677 -1.3987 -0.6531  0.8391
  341TIP3   OH222513   2.625   6.120  14.900  0.1355  0.0472  0.5168
  341TIP3    H122514   2.716   6.124  14.869  0.1095 -0.1691  0.4133
  341TIP3    H222515   2.620   6.190  14.965 -0.0834  1.1903 -0.6875
  342TIP3   OH222516   3.224   4.319   1.019 -0.0242  0.4474 -0.0575
  342TIP3    H122517   3.146   4.268   0.995  0.2557  0.3750 -0.8303
  342TIP3    H222518   3.211   4.404   0.977 -0.4253  0.9952  1.1178
  343TIP3   OH222519   5.088   5.706  12.761 -0.6725  0.8260 -0.9905
  343TIP3    H122520   5.033   5.766  12.710  0.0826  1.7218 -0.7495
  343TIP3    H222521   5.170   5.753  12.775 -0.8057  0.5504  0.9609
  344TIP3   OH222522   4.446   5.841   5.895  0.5502 -0.2911  0.1252
  344TIP3    H122523   4.422   5.769   5.954  1.0406 -1.2946 -0.8531
  344TIP3    H222524   4.466   5.914   5.953 -3.0730  0.1356  1.1330
  345TIP3   OH222525   5.531   5.514   1.170  0.3666  0.5408 -0.1275
  345TIP3    H122526   5.494   5.467   1.244  1.6207  1.0352  0.8536
  345TIP3    H222527   5.479   5.485   1.094  0.0817 -1.1732  0.6777
  346TIP3   OH222528   6.001   5.162   3.563  0.0620  1.2451  0.2496
  346TIP3    H122529   6.072   5.221   3.535  1.9199 -0.9292  0.1100
  346TIP3    H222530   6.022   5.140   3.654 -1.1296  1.4590  0.6023
  347TIP3   OH222531   3.710   6.391  13.249 -0.0617  0.3612  0.1905
  347TIP3    H122532   3.783   6.337  13.278 -0.2081 -0.3311 -0.7174
  347TIP3    H222533   3.648   6.390  13.323 -0.4097 -1.3391 -0.0794
  348TIP3   OH222534   6.731   4.073   3.918 -0.5840  0.2000  0.2673
  348TIP3    H122535   6.709   4.073   4.011  0.5348  1.3067  0.5551
  348TIP3    H222536   6.794   4.144   3.908 -0.3303 -0.2023 -1.2572
  349TIP3   OH222537   5.893   1.768   1.281  0.5834 -0.6725 -0.1664
  349TIP3    H122538   5.939   1.822   1.217  1.3308 -0.0868  0.8382
  349TIP3    H222539   5.801   1.778   1.258  0.8671 -1.0932 -1.6185
  350TIP3   OH222540   1.802   3.454  11.280  0.0697 -0.2073 -0.9715
  350TIP3    H122541   1.826   3.486  11.193  0.6347  0.8235 -0.4582
  350TIP3    H222542   1.808   3.532  11.337  0.7318 -1.0567  0.1792
  351TIP3   OH222543   0.622   0.107  12.488 -0.2754  0.4110  0.6775
  351TIP3    H122544   0.622   0.013  12.466  0.9133  0.4103  0.5976
  351TIP3    H222545   0.530   0.128  12.504 -0.9167 -0.1827 -1.8127
  352TIP3   OH222546   5.823   3.816   0.328 -0.1487 -0.1012  0.0029
  352TIP3    H122547   5.733   3.808   0.297 -0.3036 -1.1134  0.6691
  352TIP3    H222548   5.815   3.844   0.419  0.1664 -0.9855  0.3150
  353TIP3   OH222549   4.028   0.172  16.973 -0.0317  0.7141  0.1130
  353TIP3    H122550   4.017   0.096  16.915  2.1645  0.4727 -0.0579
  353TIP3    H222551   3.985   0.146  17.055  0.2291 -0.5250 -0.1214
  354TIP3   OH222552   3.220   0.407   5.400  0.3097 -0.1893 -0.5433
  354TIP3    H122553   3.275   0.367   5.332  1.7234  0.9112 -0.1198
  354TIP3    H222554   3.241   0.359   5.480 -1.5358 -1.6448 -0.8742
  355TIP3   OH222555   1.647   4.354  16.133 -0.8470 -0.2781  0.4222
  355TIP3    H122556   1.582   4.307  16.081  0.9609 -1.0530 -1.2704
  355TIP3    H222557   1.668   4.293  16.205 -0.9534 -0.6459  0.1455
  356TIP3   OH222558   3.991   3.725  14.809 -0.1312  0.3237 -0.0571
  356TIP3    H122559   4.011   3.683  14.893 -2.6907 -0.0034  0.4965
  356TIP3    H222560   3.898   3.707  14.796  0.2229  0.1389 -3.1268
  357TIP3   OH222561   5.114   4.849   4.605 -0.1833  0.5700  0.2130
  357TIP3    H122562   5.143   4.904   4.678 -0.6694  0.3577  0.5715
  357TIP3    H222563   5.044   4.900   4.564  0.8383  1.1972 -0.8092
  358TIP3   OH222564   5.545   5.428   1.887 -0.2805 -0.3241  0.2562
  358TIP3    H122565   5.525   5.383   1.969  1.1943 -1.3506  0.0870
  358TIP3    H222566   5.618   5.380   1.850 -0.3125  0.6847 -1.2265
  359TIP3   OH222567   3.735   6.446   4.121  0.5555 -0.0678 -0.1161
  359TIP3    H122568   3.658   6.393   4.100  0.6019 -0.3283  0.3648
  359TIP3    H222569   3.794   6.432   4.046  0.8391 -1.2261  0.2935
  360TIP3   OH222570   5.846   5.360   5.635 -0.7680 -0.1487  0.4212
  360TIP3    H122571   5.867   5.303   5.709 -2.0228 -0.5144  0.5163
  360TIP3    H222572   5.796   5.304   5.575 -0.8590  0.4889 -0.1129
  361TIP3   OH222573   0.702   3.597   1.315  0.2763 -0.0211  0.5601
  361TIP3    H122574   0.668   3.645   1.391 -1.9101  0.3550 -0.5882
  361TIP3    H222575   0.634   3.605   1.249  1.7591 -1.0552 -1.1843
  362TIP3   OH222576   1.853   6.332   4.080 -0.4595  0.5318 -0.0919
  362TIP3    H122577   1.793   6.278   4.029 -0.7562  1.0789 -0.3360
  362TIP3    H222578   1.869   6.409   4.025  1.1986 -0.0172 -0.4196
  363TIP3   OH222579   4.482   2.014  16.988  0.3221  0.2716  0.5407
  363TIP3    H122580   4.526   2.003  16.904  1.7674  0.7857  1.1962
  363TIP3    H222581   4.547   2.057  17.044 -1.1253  1.3444  1.4752
  364TIP3   OH222582   6.589   2.318  15.306 -0.5336 -0.2775  0.4100
  364TIP3    H122583   6.596   2.396  15.250 -1.2061  0.1958  0.9729
  364TIP3    H222584   6.496   2.313  15.329 -0.6506 -1.7095 -0.2585
  365TIP3   OH222585   3.029   3.865  13.813  0.0842 -0.0879  0.5386
  365TIP3    H122586   2.975   3.944  13.804  0.3465  0.1246  0.8044
  365TIP3    H222587   3.058   3.867  13.904 -1.1598 -1.2922  1.0069
  366TIP3   OH222588   2.708   5.936  13.262  0.4692 -0.0898  0.4863
  366TIP3    H122589   2.655   5.890  13.327  1.2667  0.6564  1.7266
  366TIP3    H222590   2.738   5.868  13.202 -1.0058 -0.6653  0.3847
  367TIP3   OH222591   6.071   6.799   2.162 -0.1462 -0.3981  0.1542
  367TIP3    H122592   6.051   6.714   2.121  0.3891 -0.3327 -0.2529
  367TIP3    H222593   6.048   6.864   2.096 -0.3190 -0.2357  0.3723
  368TIP3   OH222594   0.860   0.086   4.774 -0.0072 -0.0960 -0.0469
  368TIP3    H122595   0.882  -0.002   4.745 -0.3949  0.1972 -1.2846
  368TIP3    H222596   0.922   0.143   4.729 -0.0082  0.2944  0.4375
  369TIP3   OH222597   2.801   6.385  11.491 -0.0341 -0.0088  0.5182
  369TIP3    H122598   2.739   6.437  11.439  0.2154 -0.1072  0.1131
  369TIP3    H222599   2.795   6.421  11.579 -0.2427  0.3659  0.3532
  370TIP3   OH222600   6.592   4.753  15.990 -0.2168 -0.6036  0.1411
  370TIP3    H122601   6.660   4.752  16.057 -0.3168 -4.4826  0.4578
  370TIP3    H222602   6.518   4.708  16.031 -1.8347  0.6286 -1.2704
  371TIP3   OH222603   0.976   4.024  16.225  0.0377 -0.0509  0.2380
  371TIP3    H122604   1.065   4.034  16.194  0.1340  0.3569  0.6297
  371TIP3    H222605   0.960   4.103  16.278 -0.2254 -0.5623  0.9392
  372TIP3   OH222606   1.349   4.207   4.754 -0.2193  0.2871  0.5060
  372TIP3    H122607   1.425   4.264   4.767 -0.6000  1.1311 -0.8634
  372TIP3    H222608   1.387   4.123   4.730  0.2999  0.4427  0.7551
  373TIP3   OH222609   0.343   6.173   2.671 -0.6204  0.0592  0.5003
  373TIP3    H122610   0.261   6.130   2.647 -0.3345  0.2768 -0.9335
  373TIP3    H222611   0.389   6.187   2.588 -0.0290  1.7607  1.0688
  374TIP3   OH222612   1.001   4.542  15.035  0.2807  0.4198 -0.4239
  374TIP3    H122613   0.950   4.473  14.993  2.2905 -0.7335 -1.0764
  374TIP3    H222614   1.008   4.610  14.968 -0.0559  0.4178 -0.4631
  375TIP3   OH222615   2.978   5.842   3.417  0.0235 -0.2018  0.4628
  375TIP3    H122616   2.913   5.788   3.462 -0.8396  0.8501  0.5050
  375TIP3    H222617   2.931   5.922   3.393  0.8633 -0.1121 -0.9974
  376TIP3   OH222618   6.677   0.959   2.948  0.0480 -0.4798 -0.1650
  376TIP3    H122619   6.597   0.940   2.998 -1.6135 -0.5685 -2.6700
  376TIP3    H222620   6.705   1.045   2.979 -2.2149  0.4798 -0.5822
  377TIP3   OH222621   1.126   5.526   0.601 -0.4183 -0.0034 -0.0576
  377TIP3    H122622   1.050   5.583   0.586  0.5575  1.3656 -0.0620
  377TIP3    H222623   1.201   5.586   0.599  0.4916 -0.9640  2.1378
  378TIP3   OH222624   5.054   5.292  16.051  0.5564 -0.3552 -0.3194
  378TIP3    H122625   5.110   5.335  15.987  0.7472 -1.5416 -0.9752
  378TIP3    H222626   5.100   5.302  16.135 -0.5709  2.8354  0.0556
  379TIP3   OH222627   2.395   4.522  16.259  0.4391 -0.4460  0.0434
  379TIP3    H122628   2.370   4.462  16.330  0.8221  0.4912  0.9877
  379TIP3    H222629   2.313   4.535  16.210 -0.0950 -0.2612  0.9531
  380TIP3   OH222630   4.696   0.211  11.651 -0.5347  0.5956  0.3520
  380TIP3    H122631   4.610   0.210  11.609  0.2112 -2.8602 -1.4601
  380TIP3    H222632   4.748   0.272  11.599 -1.2773  0.9266 -0.0090
  381TIP3   OH222633   2.905   5.979   4.388 -0.0809 -0.2037  0.5852
  381TIP3    H122634   2.993   5.947   4.410  0.0969 -0.4601 -0.4159
  381TIP3    H222635   2.854   5.966   4.468  0.4876 -1.1967  0.8117
  382TIP3   OH222636   1.016   3.128   1.255 -0.2135 -0.3022  0.1613
  382TIP3    H122637   1.095   3.076   1.272  0.6506  0.8361 -0.1644
  382TIP3    H222638   0.955   3.104   1.323 -0.5275 -3.0372 -0.9835
  383TIP3   OH222639   2.239   1.763  12.464  0.6641  0.1611 -0.3720
  383TIP3    H122640   2.215   1.835  12.405  3.0394  2.3247  1.0799
  383TIP3    H222641   2.307   1.716  12.417  1.8398  1.2711  0.1615
  384TIP3   OH222642   1.805   0.350  12.955  0.2163  0.6293  0.4320
  384TIP3    H122643   1.871   0.316  13.015  0.8698  1.0965 -0.0060
  384TIP3    H222644   1.781   0.436  12.991 -0.8492  0.0709  1.1032
  385TIP3   OH222645   3.874   3.044   3.796  0.3762 -0.1881 -0.4004
  385TIP3    H122646   3.872   3.032   3.890  2.5793 -0.6603 -0.3594
  385TIP3    H222647   3.861   2.957   3.760 -0.6700  0.0204 -0.5770
  386TIP3   OH222648   4.324   3.163  16.368  0.3751  0.5921 -0.1078
  386TIP3    H122649   4.333   3.083  16.317  2.1117  0.0479  0.9763
  386TIP3    H222650   4.406   3.171  16.416 -0.3673  2.1925  1.0042
  387TIP3   OH222651   5.748   3.745   1.103 -0.1374  0.5398  0.4628
  387TIP3    H122652   5.786   3.824   1.063 -1.8163  0.6430 -1.0400
  387TIP3    H222653   5.676   3.778   1.157  1.4556  0.3020  2.9233
  388TIP3   OH222654   3.795   3.526   3.354 -0.2075  0.2908  0.0060
  388TIP3    H122655   3.738   3.540   3.279  0.5925  0.9134 -0.4985
  388TIP3    H222656   3.780   3.434   3.379  1.0958 -0.6069 -2.2742
  389TIP3   OH222657   4.987   3.730   6.009 -0.0699  0.6192 -0.5532
  389TIP3    H122658   4.935   3.801   5.970 -1.1395 -0.7720 -1.7502
  389TIP3    H222659   5.016   3.677   5.934  1.3352  0.1742  0.2642
  390TIP3   OH222660   2.411   2.354  13.888  0.0438  0.2299  0.7485
  390TIP3    H122661   2.386   2.436  13.845 -1.8227 -0.3597  0.6192
  390TIP3    H222662   2.361   2.354  13.970 -1.5225 -1.6117 -0.1347
  391TIP3   OH222663   4.248   0.893   5.467  0.0520 -1.0772 -0.0384
  391TIP3    H122664   4.324   0.948   5.485 -0.9438 -0.2624  2.0319
  391TIP3    H222665   4.283   0.804   5.459  1.0537 -1.0387  2.9574
  392TIP3   OH222666   6.480   0.341   1.733  0.0876 -0.4333 -0.5015
  392TIP3    H122667   6.385   0.353   1.724 -0.2900 -0.4709  2.5310
  392TIP3    H222668   6.498   0.260   1.687 -1.1540  0.0317 -1.9269
  393TIP3   OH222669   3.537   2.893  15.426 -0.8728 -0.0559  0.7362
  393TIP3    H122670   3.505   2.879  15.515 -1.5382 -1.5184  0.2992
  393TIP3    H222671   3.615   2.838  15.419 -0.2968  0.7390  0.6700
  394TIP3   OH222672   4.898   4.034  14.722 -0.2231  0.9281 -0.4036
  394TIP3    H122673   4.863   4.062  14.637 -0.1498 -0.4181 -0.9077
  394TIP3    H222674   4.864   4.098  14.784 -3.6539 -0.2637 -0.8294
  395TIP3   OH222675   1.288   3.314  14.244  0.4455  0.3325 -0.1336
  395TIP3    H122676   1.248   3.401  14.239 -1.8477 -0.6186  0.2706
  395TIP3    H222677   1.265   3.272  14.161 -0.5924 -0.6916  0.6315
  396TIP3   OH222678   2.880   3.266  12.584  0.3104  0.4084 -0.1908
  396TIP3    H122679   2.826   3.319  12.526  0.5026  0.8103 -0.0026
  396TIP3    H222680   2.910   3.327  12.652  0.8271  0.1382 -0.1740
  397TIP3   OH222681   5.606   3.441   3.587 -0.0164  0.4917 -0.1622
  397TIP3    H122682   5.684   3.439   3.642 -0.1896 -0.8463  0.0665
  397TIP3    H222683   5.570   3.353   3.593 -1.4052  1.0076 -0.4788
  398TIP3   OH222684   0.269   6.800  12.828  0.5885  0.0632  0.6118
  398TIP3    H122685   0.247   6.752  12.749 -2.7675  0.6585  1.0466
  398TIP3    H222686   0.364   6.810  12.824  0.7401 -1.4350 -2.4142
  399TIP3   OH222687   0.294   6.106  13.078  0.0513 -0.3472  0.1694
  399TIP3    H122688   0.212   6.146  13.108  0.2810  1.0715 -1.0145
  399TIP3    H222689   0.284   6.013  13.101 -1.9711 -0.2604 -0.1336
  400TIP3   OH222690   6.568   0.412  16.605  0.4919 -0.2987 -0.1241
  400TIP3    H122691   6.626   0.403  16.681  0.2958 -2.3515 -0.1619
  400TIP3    H222692   6.527   0.326  16.596 -0.0383  0.1167 -2.1283
  401TIP3   OH222693   5.844   0.947   0.045 -0.2165 -0.2482  0.2724
  401TIP3    H122694   5.869   1.024   0.096 -1.4780 -0.5811  1.4563
  401TIP3    H222695   5.784   0.981  -0.022 -0.7270 -0.1843  0.7566
  402TIP3   OH222696   2.913   5.887   0.472 -0.5184  0.3724 -0.3403
  402TIP3    H122697   2.891   5.798   0.442  1.5093 -0.6746  1.0083
  402TIP3    H222698   3.006   5.897   0.450 -0.7610  2.2956 -0.6681
  403TIP3   OH222699   1.437   1.067   4.291  0.3487  0.3295 -0.2259
  403TIP3    H122700   1.368   1.124   4.257  0.3988  0.0874 -0.7419
  403TIP3    H222701   1.416   0.980   4.257 -0.1841 -0.1378  1.2271
  404TIP3   OH222702   4.732   5.876   1.405  0.1485 -0.3100  0.3171
  404TIP3    H122703   4.711   5.782   1.409  0.5345 -0.4508 -0.7416
  404TIP3    H222704   4.756   5.891   1.314 -1.6843  1.1952  0.0297
  405TIP3   OH222705   3.515   3.439  10.951 -0.0183  0.6714 -0.1133
  405TIP3    H122706   3.581   3.444  10.882  2.2405  1.7315  1.9676
  405TIP3    H222707   3.485   3.348  10.949  2.6910 -0.3224 -0.2097
  406TIP3   OH222708   4.601   3.498  14.626  0.5467 -0.1476 -0.3236
  406TIP3    H122709   4.512   3.482  14.593  0.2272  0.2944  0.2974
  406TIP3    H222710   4.590   3.570  14.689  1.6015  1.0512 -1.4538
  407TIP3   OH222711   3.001   2.339   0.476 -0.2596  0.4321 -0.4292
  407TIP3    H122712   3.074   2.295   0.520  0.4689  1.4300 -0.5955
  407TIP3    H222713   3.019   2.329   0.383 -0.1710  0.9217 -0.4689
  408TIP3   OH222714   3.462   2.259  10.315 -0.1833 -0.1533 -0.1847
  408TIP3    H122715   3.368   2.273  10.325 -0.7676 -3.2018 -0.6121
  408TIP3    H222716   3.502   2.337  10.355 -2.8451  1.6950 -0.8906
  409TIP3   OH222717   4.960   4.123  15.698 -0.4276  0.3672 -0.1943
  409TIP3    H122718   4.870   4.153  15.709  0.1794  2.5201 -0.7830
  409TIP3    H222719   5.014   4.198  15.720  1.3593 -1.3642  1.9052
  410TIP3   OH222720   2.020   1.020  16.880 -0.1292 -0.0138 -0.6826
  410TIP3    H122721   2.027   1.073  16.959 -2.4736 -0.2815 -0.2386
  410TIP3    H222722   2.076   0.945  16.897  0.5541  0.6432  0.0864
  411TIP3   OH222723   4.828   0.614  16.367 -0.5307  0.4968 -0.0625
  411TIP3    H122724   4.913   0.616  16.410  0.1638  0.1128 -1.3668
  411TIP3    H222725   4.765   0.634  16.437  0.8384  4.1814  0.3214
  412TIP3   OH222726   4.142   0.077  15.784 -0.3661 -0.5574 -0.5552
  412TIP3    H122727   4.203   0.142  15.750 -0.1141 -1.0132 -0.9919
  412TIP3    H222728   4.059   0.123  15.793 -0.0603 -0.0355 -0.3350
  413TIP3   OH222729   0.900   1.089  13.179  0.3031  0.0004  0.2662
  413TIP3    H122730   0.939   1.055  13.260  1.0754 -0.7391 -0.4039
  413TIP3    H222731   0.911   1.184  13.186 -0.9047  0.0898  1.6577
  414TIP3   OH222732   1.827   1.736   5.125 -0.4338 -0.2241  0.1701
  414TIP3    H122733   1.821   1.648   5.086  0.2289 -0.4482  0.5559
  414TIP3    H222734   1.742   1.748   5.168 -0.5618 -0.6497  0.0474
  415TIP3   OH222735   2.378   6.236   1.542 -0.1489  0.1979 -0.0479
  415TIP3    H122736   2.336   6.153   1.522  1.5360 -0.9719  1.0316
  415TIP3    H222737   2.334   6.299   1.485 -1.3070 -1.4504 -1.0752
  416TIP3   OH222738   6.547   1.509   0.148 -0.0023  0.0666  0.1892
  416TIP3    H122739   6.612   1.454   0.191 -1.0375 -1.4490 -0.1215
  416TIP3    H222740   6.484   1.531   0.218 -2.0953 -3.0082 -0.5275
  417TIP3   OH222741   1.150   2.983   6.200  0.1805 -0.4728 -0.4282
  417TIP3    H122742   1.066   2.987   6.246  0.9707 -0.9309  1.1276
  417TIP3    H222743   1.207   2.932   6.258  2.2389  1.7883 -0.3003
  418TIP3   OH222744   4.082   4.150  14.961 -0.0330  0.2560 -0.3353
  418TIP3    H122745   4.094   4.096  14.883 -0.4666  0.1188 -0.3107
  418TIP3    H222746   4.049   4.089  15.027  0.5724  0.3190  0.0333
  419TIP3   OH222747   0.714   2.687   6.228 -0.4195  0.3786 -0.6646
  419TIP3    H122748   0.754   2.612   6.272 -1.3543  0.4551  0.3789
  419TIP3    H222749   0.649   2.719   6.291  0.6335  2.6777 -0.6580
  420TIP3   OH222750   1.524   0.246   3.749 -0.1447  0.1523  0.0610
  420TIP3    H122751   1.442   0.226   3.794 -0.3459  1.1054  0.1370
  420TIP3    H222752   1.509   0.219   3.658  0.5122 -2.4745  0.6364
  421TIP3   OH222753   3.313   4.931  12.355  0.6948 -0.3326 -0.4010
  421TIP3    H122754   3.277   4.844  12.335  1.6372 -0.2940 -2.5516
  421TIP3    H222755   3.320   4.933  12.451 -0.3217 -2.2174 -0.2426
  422TIP3   OH222756   1.299   5.231   6.066  0.0148  0.0081  0.1852
  422TIP3    H122757   1.259   5.147   6.089  1.4051 -0.5231  0.7902
  422TIP3    H222758   1.225   5.289   6.048 -0.9884 -1.8007 -2.0656
  423TIP3   OH222759   4.919   4.513   0.617 -0.9502  0.1167  0.3717
  423TIP3    H122760   4.878   4.433   0.648 -0.8979  0.4655  1.3918
  423TIP3    H222761   5.013   4.497   0.626 -0.8930 -0.1504 -0.5938
  424TIP3   OH222762   6.814   5.845  13.344  0.1419 -0.0881 -0.3102
  424TIP3    H122763   6.787   5.917  13.400 -1.0769  0.4276 -1.4920
  424TIP3    H222764   6.823   5.770  13.403  1.6057  1.0181  0.9729
  425TIP3   OH222765   3.472   6.557  13.905 -0.2184  0.1999  0.2883
  425TIP3    H122766   3.509   6.473  13.877  1.2771  0.2909  1.8168
  425TIP3    H222767   3.525   6.622  13.860  0.3846  0.3216  1.1536
  426TIP3   OH222768   2.055   0.023  12.142  0.0990  0.1756  0.1204
  426TIP3    H122769   2.136   0.059  12.178 -0.1078 -0.7645  1.6297
  426TIP3    H222770   2.085  -0.042  12.078  0.4809  1.4573 -1.0567
  427TIP3   OH222771   4.215   5.349  15.783 -0.3832  0.4946  0.2956
  427TIP3    H122772   4.231   5.429  15.833  0.2421 -0.2185  1.2794
  427TIP3    H222773   4.122   5.330  15.796 -0.7908  1.6018 -0.8028
  428TIP3   OH222774   3.248   5.050   1.830 -0.3730  0.1823  0.1654
  428TIP3    H122775   3.263   4.956   1.831  0.3617  0.2891  1.5651
  428TIP3    H222776   3.179   5.064   1.895 -0.6214  0.5920 -0.1819
  429TIP3   OH222777   4.124   1.651  14.447  0.2761  0.2509  0.0228
  429TIP3    H122778   4.218   1.645  14.465  0.3280 -0.1492 -0.3503
  429TIP3    H222779   4.096   1.732  14.488  0.8152  0.4401  0.0183
  430TIP3   OH222780   1.024   1.442  15.336 -0.2109  0.3469 -0.6712
  430TIP3    H122781   0.951   1.503  15.350  0.4518  1.2381 -0.9414
  430TIP3    H222782   0.988   1.373  15.281 -0.7227  1.0409 -1.2273
  431TIP3   OH222783   4.503   2.348   6.539 -0.1612 -0.1111  0.3592
  431TIP3    H122784   4.567   2.354   6.610  0.7246  0.2267 -0.4475
  431TIP3    H222785   4.535   2.278   6.483 -1.1532 -0.7567  0.5579
  432TIP3   OH222786   5.897   2.515  14.491  0.7014 -0.2366  0.0350
  432TIP3    H122787   5.883   2.602  14.528  1.2644 -0.2226  0.2122
  432TIP3    H222788   5.871   2.524  14.399  0.2647 -0.0173  0.1746
  433TIP3   OH222789   3.447   2.529  14.435  0.4879  0.0704 -0.0789
  433TIP3    H122790   3.415   2.618  14.422  0.4530  0.3378  1.6077
  433TIP3    H222791   3.368   2.475  14.434  0.2330  0.3809  1.2793
  434TIP3   OH222792   5.827   4.516   5.215  0.3355 -0.2712 -0.0917
  434TIP3    H122793   5.736   4.542   5.233  0.8396  0.0902  2.1865
  434TIP3    H222794   5.858   4.581   5.152 -0.0867  1.5251  1.4527
  435TIP3   OH222795   2.868   5.329   1.064 -0.2786  0.2274  0.0051
  435TIP3    H122796   2.873   5.249   1.013  0.1528 -0.6670  1.3884
  435TIP3    H222797   2.810   5.307   1.137 -0.3795  1.2680  0.2517
  436TIP3   OH222798   4.282   1.790   4.011  0.0147 -0.5737 -0.3098
  436TIP3    H122799   4.306   1.835   4.091 -1.8370  1.0181 -0.5921
  436TIP3    H222800   4.346   1.718   4.004  1.1766  0.1842  1.7223
  437TIP3   OH222801   4.920   3.851  12.605 -0.1155 -0.3630 -0.0754
  437TIP3    H122802   5.008   3.881  12.626  0.0339 -0.2614 -0.8544
  437TIP3    H222803   4.881   3.831  12.691  1.5146 -2.8296  0.1967
  438TIP3   OH222804   3.831   3.902   2.763 -0.5334 -0.1448  0.4531
  438TIP3    H122805   3.803   3.879   2.674  0.9714  0.4695 -0.2164
  438TIP3    H222806   3.749   3.910   2.813 -1.5175  0.8949 -1.2177
  439TIP3   OH222807   2.123   2.974   5.425  0.0941  0.2309 -0.3974
  439TIP3    H122808   2.118   3.020   5.341  0.0398  0.2763 -0.3692
  439TIP3    H222809   2.040   2.993   5.468 -0.1069 -0.2535 -0.5674
  440TIP3   OH222810   1.739   5.418   2.544  0.9915  0.7630 -0.4187
  440TIP3    H122811   1.765   5.356   2.612  2.0449  1.5933 -0.0296
  440TIP3    H222812   1.659   5.459   2.577 -0.0118 -0.7272 -0.9171
  441TIP3   OH222813   3.729   4.501   5.509  0.3997  0.0532 -0.0435
  441TIP3    H122814   3.729   4.576   5.449  0.8792  0.1269  0.0471
  441TIP3    H222815   3.770   4.430   5.459  0.0231 -0.1291 -0.0992
  442TIP3   OH222816   6.309   5.961  13.877 -0.2182  0.3155 -0.3809
  442TIP3    H122817   6.392   5.979  13.833 -0.6586  1.5888 -0.7450
  442TIP3    H222818   6.301   6.030  13.943 -1.3332  0.6679 -0.8589
  443TIP3   OH222819   3.303   6.149  13.854  0.1722 -0.0364  0.0991
  443TIP3    H122820   3.293   6.152  13.759  1.7137  1.2708 -0.0768
  443TIP3    H222821   3.249   6.221  13.887 -0.6072 -0.6818  0.2620
  444TIP3   OH222822   5.262   5.769  16.348 -0.2627  0.4480  0.2581
  444TIP3    H122823   5.311   5.687  16.349  0.3115  0.7678 -0.3949
  444TIP3    H222824   5.300   5.821  16.419 -0.8380  0.0457  0.8773
  445TIP3   OH222825   3.590   3.535   2.146 -0.3422 -0.2802 -0.2410
  445TIP3    H122826   3.677   3.520   2.182 -0.3396 -0.8134 -0.4650
  445TIP3    H222827   3.554   3.605   2.200 -1.0282 -2.2100  1.9704
  446TIP3   OH222828   1.797   5.326  14.814  0.0425 -0.4396  0.3668
  446TIP3    H122829   1.790   5.349  14.906 -0.8583 -0.8735  0.4098
  446TIP3    H222830   1.891   5.311  14.800  0.1081 -1.0271  1.3704
  447TIP3   OH222831   4.736   4.801   2.981  0.3169  0.5270  1.0468
  447TIP3    H122832   4.772   4.733   2.924 -0.5998  1.1858 -0.3827
  447TIP3    H222833   4.694   4.754   3.052 -1.4904 -0.5348 -0.6095
  448TIP3   OH222834   3.048   4.739   4.263  0.3377  1.0061 -0.4373
  448TIP3    H122835   3.067   4.732   4.170 -0.1309 -2.3357 -0.4108
  448TIP3    H222836   2.952   4.748   4.268  0.4094  1.7563 -0.2594
  449TIP3   OH222837   3.798   6.244  14.818 -0.2020 -0.4132  0.3156
  449TIP3    H122838   3.714   6.288  14.810  0.5926  1.4273  1.4774
  449TIP3    H222839   3.863   6.313  14.803  1.1134 -1.0941  2.3983
  450TIP3   OH222840   2.605   1.983  12.901  0.2546  0.5741 -0.0357
  450TIP3    H122841   2.700   1.974  12.910  0.1077 -0.2256  0.8851
  450TIP3    H222842   2.569   1.936  12.976 -0.8344  2.1584  0.4961
  451TIP3   OH222843   2.363   4.784   5.161 -0.1945 -0.1352  0.2554
  451TIP3    H122844   2.306   4.723   5.209 -0.2790  0.0268  0.3644
  451TIP3    H222845   2.443   4.789   5.214 -0.4327  0.3305  0.5807
  452TIP3   OH222846   0.113   0.919  12.289 -0.7156  0.3742  0.1175
  452TIP3    H122847   0.142   0.881  12.372 -0.5098  0.8748  0.2781
  452TIP3    H222848   0.028   0.959  12.309 -0.3192  1.1533  0.2764
  453TIP3   OH222849   2.353   5.393  15.962 -0.2058 -0.3485 -0.4465
  453TIP3    H122850   2.273   5.424  15.920 -0.3971 -1.2471 -0.7624
  453TIP3    H222851   2.349   5.298  15.954  1.0489 -0.3919 -0.7517
  454TIP3   OH222852   4.095   3.638   1.128 -1.1716  0.2980 -0.1928
  454TIP3    H122853   4.079   3.722   1.171  0.1869  0.2856  0.4079
  454TIP3    H222854   4.100   3.660   1.035 -0.0361  1.0439  0.0197
  455TIP3   OH222855   4.106   2.418  14.569 -0.2229  0.5691  0.0868
  455TIP3    H122856   4.095   2.457  14.482  1.1075  1.8420  0.4393
  455TIP3    H222857   4.021   2.432  14.612 -1.1499 -0.7703 -1.2370
  456TIP3   OH222858   6.710   6.509   0.462  0.1169 -0.1415  0.0312
  456TIP3    H122859   6.683   6.493   0.371  0.4655 -0.6561  0.0189
  456TIP3    H222860   6.739   6.600   0.462  1.7956 -0.6388 -0.7857
  457TIP3   OH222861   5.117   1.142  12.674 -0.0204  0.3204  0.1022
  457TIP3    H122862   5.089   1.136  12.765 -1.8418  0.3141 -0.4197
  457TIP3    H222863   5.163   1.226  12.669 -0.9600  0.8949  0.7744
  458TIP3   OH222864   3.036   5.811  16.272 -0.0434  0.1350 -0.0479
  458TIP3    H122865   2.986   5.869  16.215  1.5009  2.5560  0.9061
  458TIP3    H222866   2.972   5.778  16.335 -0.9542  0.8935 -0.5521
  459TIP3   OH222867   0.456   4.088  12.260 -0.0609  0.3831 -0.6156
  459TIP3    H122868   0.368   4.123  12.278 -0.4419 -0.8641  0.1317
  459TIP3    H222869   0.507   4.109  12.338 -0.0100  0.1927 -0.5955
  460TIP3   OH222870   6.245   2.257   1.804 -0.1538  0.1293 -0.4122
  460TIP3    H122871   6.285   2.170   1.812  1.0377  0.6043 -0.9014
  460TIP3    H222872   6.218   2.279   1.893  0.1989 -0.4463 -0.1532
  461TIP3   OH222873   0.530   4.594  16.975 -0.4398 -0.1182 -0.3920
  461TIP3    H122874   0.442   4.556  16.988  0.1044 -1.3316 -0.1080
  461TIP3    H222875   0.522   4.645  16.895 -2.0228  1.7146  0.8459
  462TIP3   OH222876   2.775   3.599  11.959 -0.0867 -0.0103 -0.6878
  462TIP3    H122877   2.802   3.611  11.868  0.0533  2.9170 -0.3650
  462TIP3    H222878   2.695   3.547  11.954 -0.2517  0.3563 -2.5010
  463TIP3   OH222879   3.979   3.268  16.942 -0.2089  0.1228 -0.3713
  463TIP3    H122880   3.889   3.300  16.943 -0.2186  0.1208 -1.0589
  463TIP3    H222881   3.975   3.186  16.893  0.3608  0.7236 -1.4476
  464TIP3   OH222882   2.460   2.934   1.816 -0.1600 -0.4490  0.3537
  464TIP3    H122883   2.493   2.883   1.890  1.5080  0.8679  0.5851
  464TIP3    H222884   2.539   2.971   1.776 -1.1507  0.0931 -1.1755
  465TIP3   OH222885   1.780   5.894  15.285 -0.1039 -0.1348  0.7015
  465TIP3    H122886   1.786   5.987  15.309 -0.3268 -0.2461  1.2050
  465TIP3    H222887   1.870   5.868  15.267 -0.0014  0.0954  0.8738
  466TIP3   OH222888   6.131   5.695   3.419 -0.0088  0.0045  0.1526
  466TIP3    H122889   6.169   5.631   3.479 -0.1053 -0.9302 -0.7495
  466TIP3    H222890   6.044   5.660   3.399 -0.6639  1.1964  0.7935
  467TIP3   OH222891   3.498   4.942  16.291 -0.1718 -0.0579 -0.3048
  467TIP3    H122892   3.458   4.888  16.359  0.1012 -1.2443 -1.0591
  467TIP3    H222893   3.581   4.898  16.271  0.9986  1.7324  0.4371
  468TIP3   OH222894   1.713   3.970   1.077 -0.7270  0.0181 -0.2200
  468TIP3    H122895   1.767   4.021   1.136 -0.7636 -0.4747  0.2520
  468TIP3    H222896   1.731   3.879   1.101 -0.5649 -0.2006 -1.1263
  469TIP3   OH222897   5.966   4.978  11.941 -0.4073 -0.1972  0.1387
  469TIP3    H122898   5.982   4.903  11.998 -0.3836 -1.0161 -0.9311
  469TIP3    H222899   5.919   4.942  11.866  0.8904  0.5917 -1.0986
  470TIP3   OH222900   6.614   1.345  13.299 -0.7198  0.4375 -0.3184
  470TIP3    H122901   6.694   1.345  13.247 -0.1443  1.8444  0.5215
  470TIP3    H222902   6.591   1.252  13.309 -1.5858  0.0560 -4.1317
  471TIP3   OH222903   3.017   1.483  12.512 -0.2184 -0.3566 -0.6362
  471TIP3    H122904   3.029   1.422  12.439  0.1493 -1.4310  0.2908
  471TIP3    H222905   2.998   1.567  12.470 -2.0375 -1.3387 -1.9557
  472TIP3   OH222906   0.197   3.140   4.702 -0.1308  0.1595 -0.0598
  472TIP3    H122907   0.211   3.076   4.771 -1.4743 -0.4895 -0.3668
  472TIP3    H222908   0.237   3.221   4.735  4.3616 -1.4433 -0.8927
  473TIP3   OH222909   5.836   6.453  16.467 -0.1328  0.3269 -0.1917
  473TIP3    H122910   5.793   6.380  16.512 -0.8870 -0.6916 -2.4323
  473TIP3    H222911   5.879   6.502  16.537 -0.5775 -1.6008  1.5350
  474TIP3   OH222912   1.946   2.237  15.583  0.5264  0.4955  0.8665
  474TIP3    H122913   1.874   2.301  15.578  0.2607  0.1988  0.8897
  474TIP3    H222914   1.923   2.180  15.656 -0.0010 -0.5524 -0.0914
  475TIP3   OH222915   5.650   2.694  11.790  0.1722  0.0361  0.2577
  475TIP3    H122916   5.581   2.760  11.786 -0.4468 -0.6487 -1.1608
  475TIP3    H222917   5.606   2.616  11.824 -0.3651 -1.0333 -2.6381
  476TIP3   OH222918   5.866   4.683   4.987  0.4215 -0.1886  0.0611
  476TIP3    H122919   5.957   4.693   5.014  0.4775  0.4706 -0.3616
  476TIP3    H222920   5.867   4.695   4.892 -0.0341 -0.6703 -0.0118
  477TIP3   OH222921   2.749   5.228   6.109 -0.1959  0.3649  0.1970
  477TIP3    H122922   2.823   5.174   6.135  0.2127  1.5093  1.5139
  477TIP3    H222923   2.737   5.290   6.181 -2.3904  0.2668  0.0085
  478TIP3   OH222924   0.150   5.333   4.518  0.0382 -0.1887  0.0516
  478TIP3    H122925   0.108   5.279   4.451  0.2403 -0.0830 -0.1658
  478TIP3    H222926   0.117   5.300   4.601  0.4892 -0.9360 -0.0545
  479TIP3   OH222927   1.132   6.691   2.778  0.1363  0.2660  0.0307
  479TIP3    H122928   1.205   6.635   2.752 -0.2278 -0.3338  0.3005
  479TIP3    H222929   1.125   6.681   2.872 -0.3126  0.3061  0.0043
  480TIP3   OH222930   5.570   3.819   5.304  0.1583  0.1279  0.1231
  480TIP3    H122931   5.589   3.779   5.389  1.0461  1.5159  0.6170
  480TIP3    H222932   5.637   3.783   5.246 -0.2238 -0.5411  0.0831
  481TIP3   OH222933   2.972   6.296   6.504 -0.5708 -0.8319  0.0755
  481TIP3    H122934   3.036   6.308   6.433 -0.4677  0.7539  0.3920
  481TIP3    H222935   3.023   6.259   6.576 -0.2694 -0.6839 -0.0592
  482TIP3   OH222936   5.897   6.573  11.181 -0.5051  0.2635 -0.2282
  482TIP3    H122937   5.980   6.534  11.207  0.7865  3.2444  0.5711
  482TIP3    H222938   5.863   6.516  11.112  3.2740  0.0292 -2.1099
  483TIP3   OH222939   3.989   0.029   4.668 -0.2650 -0.3716  0.1398
  483TIP3    H122940   3.911   0.024   4.612  0.7925 -0.4104 -1.3813
  483TIP3    H222941   3.971   0.102   4.727 -2.5184 -1.9483  1.5639
  484TIP3   OH222942   3.123   6.068  16.743  0.4905  0.6251  0.4001
  484TIP3    H122943   3.050   6.069  16.681 -0.2217  0.0481  1.2131
  484TIP3    H222944   3.135   6.160  16.768  0.9224  0.8932 -0.7349
  485TIP3   OH222945   0.418   2.990   5.309 -0.0260 -0.0373 -0.0668
  485TIP3    H122946   0.469   3.035   5.377 -0.2123  0.9014 -0.5242
  485TIP3    H222947   0.366   3.060   5.269 -1.1327 -0.8579 -0.0882
  486TIP3   OH222948   2.427   6.248   2.672 -0.4595  0.7549  0.2658
  486TIP3    H122949   2.351   6.302   2.694 -1.9599 -0.7563 -0.9460
  486TIP3    H222950   2.425   6.241   2.577 -0.1710 -1.1598  0.3550
  487TIP3   OH222951   0.197   0.519  12.550 -0.1133 -0.1022 -0.5592
  487TIP3    H122952   0.178   0.435  12.591 -0.7645  0.7809  1.0683
  487TIP3    H222953   0.229   0.497  12.462 -2.2295 -1.9490 -0.9470
  488TIP3   OH222954   4.407   5.976  11.700  0.5818 -0.6865 -0.5262
  488TIP3    H122955   4.457   5.998  11.622 -1.0086  0.1233 -1.3854
  488TIP3    H222956   4.343   6.047  11.708  1.4152 -0.1304  2.1930
  489TIP3   OH222957   0.225   6.549   5.251  0.0026 -0.2090 -0.5750
  489TIP3    H122958   0.173   6.590   5.320  0.1372 -1.4998  0.3430
  489TIP3    H222959   0.163   6.496   5.202  0.2426 -0.8749 -0.1745
  490TIP3   OH222960   6.452   0.338  17.206  0.0713  0.8858  0.1001
  490TIP3    H122961   6.461   0.372  17.117 -0.1927  1.3042  0.2336
  490TIP3    H222962   6.537   0.358  17.248  1.2666 -1.7589 -0.8650
  491TIP3   OH222963   3.990   3.114   4.932 -0.5278  0.1216  0.7153
  491TIP3    H122964   3.897   3.093   4.921 -0.6013  1.0464 -0.6398
  491TIP3    H222965   4.023   3.127   4.843  1.9273 -4.1891  0.7337
  492TIP3   OH222966   1.395   0.406  17.262 -0.3182  0.2720  0.0539
  492TIP3    H122967   1.453   0.467  17.307 -0.5003  0.5603 -0.0956
  492TIP3    H222968   1.326   0.462  17.225 -1.1448 -0.1327  0.9238
  493TIP3   OH222969   2.778   4.302   2.405 -0.2806 -0.1193  0.5796
  493TIP3    H122970   2.700   4.325   2.456 -1.4024 -0.2310 -1.0081
  493TIP3    H222971   2.748   4.233   2.346  0.5576  0.9375 -1.1756
  494TIP3   OH222972   4.806   5.457   5.034 -0.2618  0.1898 -0.0209
  494TIP3    H122973   4.868   5.385   5.048  0.3306  0.5596 -0.6851
  494TIP3    H222974   4.857   5.536   5.053  0.0230  0.6152 -2.2433
  495TIP3   OH222975   5.871   4.069  12.141  0.2398 -0.3987 -0.0996
  495TIP3    H122976   5.835   3.980  12.135  0.8533 -0.5629 -2.4140
  495TIP3    H222977   5.824   4.118  12.073 -0.1301  1.1041  1.1876
  496TIP3   OH222978   2.801   1.943  15.101 -0.1796  0.3020  0.7674
  496TIP3    H122979   2.795   1.992  15.020 -0.1780 -0.7164  0.1408
  496TIP3    H222980   2.719   1.893  15.106  0.1234 -0.1781  1.0277
  497TIP3   OH222981   4.383   3.047  12.619 -0.2258  0.0091  0.0393
  497TIP3    H122982   4.420   3.130  12.589 -1.0597  0.6156  0.6692
  497TIP3    H222983   4.366   3.060  12.712  0.7545 -1.2887  0.4273
  498TIP3   OH222984   6.396   4.963  12.097 -0.5729 -0.3170 -0.4785
  498TIP3    H122985   6.447   5.022  12.042 -0.1395 -2.0280 -2.0083
  498TIP3    H222986   6.334   4.921  12.037 -3.4647  1.2034  1.1950
  499TIP3   OH222987   3.192   1.860  16.805  0.0378  0.4675 -0.4597
  499TIP3    H122988   3.259   1.821  16.749  0.5019  0.3230  0.1818
  499TIP3    H222989   3.238   1.879  16.887 -0.4345  1.4103 -0.4047
  500TIP3   OH222990   5.512   3.882   1.780  0.4825  0.4063 -0.7093
  500TIP3    H122991   5.471   3.957   1.823  0.2969 -0.0834 -0.0235
  500TIP3    H222992   5.600   3.878   1.817 -0.3963 -1.3525  1.3333
  501TIP3   OH222993   0.048   4.038   4.856 -0.0052  0.4932 -0.2218
  501TIP3    H122994  -0.033   3.987   4.855 -0.5788  1.3785 -1.9106
  501TIP3    H222995   0.068   4.054   4.764  2.1251  0.2794  0.1516
  502TIP3   OH222996   6.067   4.745  11.612 -0.1038 -0.0572  0.1007
  502TIP3    H122997   5.983   4.789  11.626 -1.1868 -1.5567 -1.2515
  502TIP3    H222998   6.094   4.715  11.698 -1.6586 -0.6844  0.4088
  503TIP3   OH222999   4.339   0.994   3.707  0.5451  0.6589  0.6761
  503TIP3    H123000   4.399   1.002   3.782  0.7140  0.0994  0.5989
  503TIP3    H223001   4.381   0.932   3.648  0.6399  1.4468 -0.1106
  504TIP3   OH223002   3.213   0.821   2.143  0.5335 -0.1945  0.1695
  504TIP3    H123003   3.303   0.843   2.119  1.2368 -3.2225 -0.3136
  504TIP3    H223004   3.163   0.833   2.062  0.7883 -0.0394  0.0332
  505TIP3   OH223005   1.908   0.561   4.390 -0.5607 -0.1569 -0.7726
  505TIP3    H123006   1.825   0.556   4.343 -0.9641 -1.3699  0.0418
  505TIP3    H223007   1.904   0.491   4.455  1.3936 -0.7071 -1.1703
  506TIP3   OH223008   1.509   3.629  14.030  0.2649  0.2775 -0.2830
  506TIP3    H123009   1.566   3.671  14.095  1.1929  0.4014 -1.1500
  506TIP3    H223010   1.531   3.536  14.036 -0.3090  0.1664  0.2027
  507TIP3   OH223011   3.177   1.019  12.262 -0.1482 -0.3134 -0.2409
  507TIP3    H123012   3.234   1.070  12.204 -0.5961  0.7479  0.2212
  507TIP3    H223013   3.144   0.949  12.206  2.0419 -1.3395 -0.3740
  508TIP3   OH223014   0.277   0.008   5.828  0.4076 -0.1451  0.1467
  508TIP3    H123015   0.238   0.087   5.867  0.1694 -0.2968  0.2143
  508TIP3    H223016   0.324  -0.033   5.899 -3.0454 -2.4377  1.3466
  509TIP3   OH223017   3.330   6.808  13.522  0.3672  0.2272  0.5305
  509TIP3    H123018   3.288   6.894  13.518  0.7659  0.3908 -0.4253
  509TIP3    H223019   3.421   6.827  13.543  0.4620  0.0360  0.2874
  510TIP3   OH223020   0.553   0.481  12.630  0.4963 -0.2141 -0.3743
  510TIP3    H123021   0.600   0.404  12.663 -0.8107 -1.0451 -0.3779
  510TIP3    H223022   0.509   0.517  12.707 -0.3494 -0.5491 -0.6845
  511TIP3   OH223023   4.315   3.879   4.001  0.2297 -0.7091 -0.6208
  511TIP3    H123024   4.339   3.792   3.968  3.1211 -0.6952  1.0816
  511TIP3    H223025   4.293   3.864   4.093  0.3890  0.3307 -0.4029
  512TIP3   OH223026   3.313   4.322  12.038  0.0368 -0.4211 -0.5948
  512TIP3    H123027   3.246   4.271  12.084 -2.3401  1.6697 -1.4562
  512TIP3    H223028   3.364   4.363  12.108 -2.3584  1.2871  0.2936
  513TIP3   OH223029   1.715   0.772  11.984  0.0805  0.2733 -0.2095
  513TIP3    H123030   1.801   0.813  11.973 -0.0897  0.6051 -0.3327
  513TIP3    H223031   1.732   0.678  11.976  0.4538  0.3273 -0.0777
  514TIP3   OH223032   5.696   6.242  16.600  0.3249  0.5357  0.3143
  514TIP3    H123033   5.629   6.197  16.651 -1.1104  1.2932 -0.8301
  514TIP3    H223034   5.697   6.195  16.516 -0.3604  1.8715 -0.4705
  515TIP3   OH223035   0.141   4.636  13.907  0.0973 -0.2700  0.0851
  515TIP3    H123036   0.083   4.654  13.981  0.2711 -0.0807  0.1751
  515TIP3    H223037   0.088   4.585  13.847 -0.9635  1.9685 -0.9813
  516TIP3   OH223038   4.655   0.693  12.850 -0.1267 -0.0346  0.3202
  516TIP3    H123039   4.563   0.674  12.870 -0.7865 -0.3722 -2.5612
  516TIP3    H223040   4.652   0.777  12.804  1.2571  0.8042  1.6857
  517TIP3   OH223041   4.039   0.407   0.969 -0.1983  0.2445  0.2923
  517TIP3    H123042   3.952   0.393   0.931 -0.4892  0.3249  0.9216
  517TIP3    H223043   4.065   0.494   0.938 -1.6769  1.6161  2.5583
  518TIP3   OH223044   5.673   4.659   4.501 -0.6868 -0.7724  0.2996
  518TIP3    H123045   5.640   4.746   4.524  1.2334 -0.4371  2.1336
  518TIP3    H223046   5.657   4.606   4.579  0.5199 -1.3238  0.1941
  519TIP3   OH223047   0.094   3.441  11.678 -0.7987  0.0271  0.1996
  519TIP3    H123048   0.047   3.507  11.729 -2.8657 -0.0702 -1.4258
  519TIP3    H223049   0.176   3.427  11.726 -1.5580  1.6624  2.1242
  520TIP3   OH223050   6.817   5.346  11.301  0.2676  0.3202  0.4628
  520TIP3    H123051   6.766   5.396  11.365 -1.0657 -0.5606  0.1008
  520TIP3    H223052   6.871   5.412  11.257  0.0851  1.1407  1.4440
  521TIP3   OH223053   2.515   6.277   0.846  0.6137  0.2457  0.0853
  521TIP3    H123054   2.480   6.254   0.760 -0.4788  0.8540  0.3432
  521TIP3    H223055   2.607   6.300   0.829  0.1936  1.1680 -1.0691
  522TIP3   OH223056   2.592   5.831  12.492  0.0507 -1.1016  0.1783
  522TIP3    H123057   2.639   5.848  12.573  0.6978 -0.7102 -0.2674
  522TIP3    H223058   2.647   5.769  12.445 -0.6837 -1.8993  0.3507
  523TIP3   OH223059   0.213   5.406   3.003 -0.2549 -0.0435  0.5347
  523TIP3    H123060   0.146   5.470   2.978  0.0961 -0.0028 -0.3771
  523TIP3    H223061   0.273   5.455   3.059  0.7292  0.8467 -1.2060
  524TIP3   OH223062   6.195   0.598  16.478 -0.1954 -0.1025  0.2841
  524TIP3    H123063   6.234   0.685  16.487  0.9481 -0.6022  0.4501
  524TIP3    H223064   6.231   0.549  16.552 -0.6537 -0.7764  0.0672
  525TIP3   OH223065   4.863   6.557   2.243 -0.1200 -0.1632  0.2755
  525TIP3    H123066   4.877   6.649   2.219 -0.3397  0.1284  1.2343
  525TIP3    H223067   4.892   6.508   2.166 -1.3796  0.7569 -0.8505
  526TIP3   OH223068   2.120   4.095   0.855 -0.2873 -0.0108 -0.2677
  526TIP3    H123069   2.106   4.159   0.926 -1.4481 -1.0891  0.5188
  526TIP3    H223070   2.056   4.119   0.789  0.0650  0.3343 -0.4894
  527TIP3   OH223071   2.141   2.034   1.736  0.2687  0.0062 -0.2463
  527TIP3    H123072   2.160   1.956   1.789  1.9773  0.8492  0.4533
  527TIP3    H223073   2.121   2.102   1.800 -1.7127  0.0757 -0.8669
  528TIP3   OH223074   3.124   1.408  13.327  0.2247 -0.2189  0.3694
  528TIP3    H123075   3.186   1.457  13.273  0.2860 -0.8895 -0.1935
  528TIP3    H223076   3.178   1.364  13.392  0.2732 -0.2630  0.3005
  529TIP3   OH223077   6.552   0.505   0.256  0.0866 -0.1870  0.5276
  529TIP3    H123078   6.531   0.587   0.212 -0.3102 -0.6179 -0.1014
  529TIP3    H223079   6.648   0.499   0.251  0.0142 -0.6864 -1.1724
  530TIP3   OH223080   5.098   5.504   2.877  0.3639 -0.3106 -0.1327
  530TIP3    H123081   5.129   5.584   2.919 -1.0433 -0.6139  1.6165
  530TIP3    H223082   5.010   5.524   2.847  0.1568 -1.0768 -0.0681
  531TIP3   OH223083   3.119   2.665  14.502  0.0385 -0.4758 -0.2001
  531TIP3    H123084   3.044   2.667  14.561  0.4332 -0.0393  0.2904
  531TIP3    H223085   3.126   2.755  14.470  0.7214 -0.3707  0.2290
  532TIP3   OH223086   0.766   5.755   5.985  0.1119  0.7755 -0.1483
  532TIP3    H123087   0.755   5.730   6.077 -0.5086  3.1135  0.4935
  532TIP3    H223088   0.677   5.759   5.950  0.3389  0.0134 -0.8450
  533TIP3   OH223089   4.610   2.851  12.640 -0.3999  0.1524  0.4772
  533TIP3    H123090   4.627   2.784  12.574  0.9957  0.5198  0.4436
  533TIP3    H223091   4.515   2.866  12.634 -0.7450 -1.7281  0.4284
  534TIP3   OH223092   3.848   4.877  16.905  0.8874 -0.3865 -0.4962
  534TIP3    H123093   3.782   4.908  16.843 -0.0483 -1.1379  0.1080
  534TIP3    H223094   3.876   4.793  16.870  1.2886 -0.2210 -0.5754
  535TIP3   OH223095   6.591   6.259  12.245 -0.1051  0.1922  0.4086
  535TIP3    H123096   6.503   6.270  12.281  0.9689  0.1651  3.2601
  535TIP3    H223097   6.599   6.329  12.181 -2.2428  0.0619 -0.0862
  536TIP3   OH223098   1.810   4.776  17.020  0.1304  0.1796 -0.7627
  536TIP3    H123099   1.896   4.766  17.060  0.2622 -0.9430 -1.2885
  536TIP3    H223100   1.790   4.869  17.030  0.6059  0.1287  0.9579
  537TIP3   OH223101   0.038   2.062   1.874 -0.3067  0.0824 -0.1815
  537TIP3    H123102   0.065   2.095   1.960 -1.0305 -0.1298  0.1277
  537TIP3    H223103   0.035   2.140   1.819 -0.3723  0.2966  0.1200
  538TIP3   OH223104   4.146   2.220   3.151 -0.0538 -0.5030  0.3834
  538TIP3    H123105   4.191   2.287   3.100  1.0777 -0.1875  1.7573
  538TIP3    H223106   4.054   2.229   3.127  0.3553  0.0851 -1.0662
  539TIP3   OH223107   1.840   0.882   2.609 -0.3954  0.0202 -0.3568
  539TIP3    H123108   1.880   0.925   2.685  2.2875 -1.2212 -0.9589
  539TIP3    H223109   1.770   0.827   2.646  1.5935 -1.4584  1.4424
  540TIP3   OH223110   6.325   6.737   2.336 -0.0362  0.8257 -0.1442
  540TIP3    H123111   6.349   6.676   2.266 -0.8144  1.3875 -0.9282
  540TIP3    H223112   6.374   6.817   2.316 -0.7731  1.2094 -0.4378
  541TIP3   OH223113   2.890   0.468  16.204  0.3281  0.3616 -0.2767
  541TIP3    H123114   2.847   0.395  16.159  0.2492  0.0581  0.2866
  541TIP3    H223115   2.905   0.436  16.292 -2.5747  2.0970  0.9962
  542TIP3   OH223116   5.921   3.951  13.667  0.5499  0.3819 -0.2742
  542TIP3    H123117   5.935   4.025  13.726  2.2805  0.3397 -0.5897
  542TIP3    H223118   5.995   3.955  13.606 -1.0789  0.3359 -2.3634
  543TIP3   OH223119   2.011   0.291   5.755 -0.1113 -0.4428  0.3144
  543TIP3    H123120   2.014   0.383   5.728  1.2462 -0.8094 -0.9187
  543TIP3    H223121   2.022   0.242   5.674  0.7237 -1.6551  1.1265
  544TIP3   OH223122   1.336   6.530  16.456  0.4711  0.4715  0.3992
  544TIP3    H123123   1.419   6.522  16.410  1.0639  1.9915  1.1189
  544TIP3    H223124   1.359   6.563  16.542 -0.8422  0.4420  0.7876
  545TIP3   OH223125   1.918   3.077  15.058  0.0206  0.2826  0.2662
  545TIP3    H123126   1.957   3.111  15.138  0.1424  1.0743 -0.1260
  545TIP3    H223127   1.986   3.023  15.018 -0.3479 -0.8914  1.1541
  546TIP3   OH223128   1.569   5.388  16.002  0.4059  0.4461  0.3785
  546TIP3    H123129   1.557   5.481  16.021  1.6463  0.2463  2.4234
  546TIP3    H223130   1.608   5.352  16.082  0.6094 -1.7016 -0.6242
  547TIP3   OH223131   2.149   0.421   0.531 -0.6278  0.7983 -0.6508
  547TIP3    H123132   2.218   0.486   0.518 -1.7181  1.6069 -3.0875
  547TIP3    H223133   2.158   0.362   0.456  0.3234 -1.9923  1.4747
  548TIP3   OH223134   1.120   6.033  16.869  0.2335 -0.3105 -0.0753
  548TIP3    H123135   1.137   6.011  16.777 -2.3774 -1.4616 -0.3625
  548TIP3    H223136   1.052   6.100  16.865  0.3460 -0.1207  1.0247
  549TIP3   OH223137   3.691   1.577   0.455 -0.6314  0.0011  0.1173
  549TIP3    H123138   3.616   1.636   0.448  0.0327  0.7826 -0.6434
  549TIP3    H223139   3.737   1.604   0.535  0.5547  1.6174 -1.0531
  550TIP3   OH223140   1.378   6.542  15.922  0.5124  0.5731 -0.2192
  550TIP3    H123141   1.321   6.514  15.851  0.6291 -1.1508  0.3117
  550TIP3    H223142   1.334   6.512  16.002  0.8445  1.6315  0.3786
  551TIP3   OH223143   6.005   6.207  15.993 -0.9416 -0.2777 -0.2485
  551TIP3    H123144   5.988   6.275  16.058 -0.3123  1.9371 -2.2799
  551TIP3    H223145   5.943   6.225  15.923  0.8219 -0.3020 -1.8700
  552TIP3   OH223146   2.838   5.322   4.292 -0.1470 -0.0742  0.5172
  552TIP3    H123147   2.908   5.331   4.356 -0.3557 -1.0263  0.8880
  552TIP3    H223148   2.845   5.401   4.238  0.6513  0.2601  1.0902
  553TIP3   OH223149   2.838   4.282  11.942  0.3953 -0.5440  0.2584
  553TIP3    H123150   2.898   4.246  12.007 -0.8486 -1.3681  1.0043
  553TIP3    H223151   2.754   4.287  11.988  0.1710  1.9411 -0.2973
  554TIP3   OH223152   3.905   3.311   4.146 -0.1632  0.0527 -0.1150
  554TIP3    H123153   3.900   3.216   4.135  1.2690 -0.2950  1.7203
  554TIP3    H223154   3.918   3.324   4.240 -1.1124  2.1231 -0.2107
  555TIP3   OH223155   0.307   5.971  12.205  0.1213  0.1093 -0.2087
  555TIP3    H123156   0.270   5.893  12.164  1.4540 -0.5419 -0.2201
  555TIP3    H223157   0.260   5.979  12.288  0.2400 -0.9492 -0.0267
  556TIP3   OH223158   2.673   5.836  15.498 -0.2122 -0.4380 -0.6327
  556TIP3    H123159   2.733   5.881  15.439 -0.5975  0.9231 -0.0361
  556TIP3    H223160   2.723   5.824  15.579 -0.1009 -1.1299 -0.7993
  557TIP3   OH223161   5.872   1.934  16.957 -0.4218 -0.1597 -0.4336
  557TIP3    H123162   5.875   1.970  17.046 -2.4249 -1.1846  0.1038
  557TIP3    H223163   5.940   1.866  16.957  0.6775  0.8920 -0.2272
  558TIP3   OH223164   3.595   2.044  15.025 -0.0673  1.1297 -0.3968
  558TIP3    H123165   3.525   2.001  14.975  0.3297 -0.2601  0.1727
  558TIP3    H223166   3.551   2.083  15.100 -0.2143 -0.1364  0.2102
  559TIP3   OH223167   0.233   5.499   6.464 -0.1841 -0.1186 -0.2343
  559TIP3    H123168   0.166   5.549   6.511  1.0719  1.8900 -0.4217
  559TIP3    H223169   0.275   5.446   6.532  0.1568  1.0827  0.5243
  560TIP3   OH223170   2.716   4.635   0.062 -0.0831 -0.1601  0.1121
  560TIP3    H123171   2.731   4.637  -0.033  1.1929 -0.9958  0.2690
  560TIP3    H223172   2.767   4.707   0.097  0.4149 -0.5904  0.2770
  561TIP3   OH223173   2.614   4.881  15.766 -0.3624 -0.0214 -0.5636
  561TIP3    H123174   2.611   4.842  15.854 -2.4088  2.0443  0.3997
  561TIP3    H223175   2.624   4.975  15.783  0.0398  0.3315 -2.6012
  562TIP3   OH223176   3.895   3.614  11.131  0.2476 -0.4913  0.1478
  562TIP3    H123177   3.824   3.551  11.116  0.3012 -0.5235  0.0304
  562TIP3    H223178   3.951   3.606  11.054  0.9052 -1.1511  0.6926
  563TIP3   OH223179   1.688   1.366   1.511 -0.2107 -0.7977  0.1994
  563TIP3    H123180   1.688   1.355   1.416  2.9549  0.0193 -0.0210
  563TIP3    H223181   1.661   1.457   1.524 -0.6767 -0.9187  0.1239
  564TIP3   OH223182   6.634   3.542  16.899 -0.1781 -0.0510  0.6949
  564TIP3    H123183   6.673   3.511  16.981 -0.1256 -1.0985  0.2869
  564TIP3    H223184   6.539   3.532  16.913 -0.2204  0.7787  1.0173
  565TIP3   OH223185   2.111   1.836   3.452  0.3003 -1.1041 -0.3017
  565TIP3    H123186   2.173   1.819   3.380 -0.2806  0.0271 -1.0822
  565TIP3    H223187   2.163   1.882   3.518  0.7147 -1.7114 -0.1959
  566TIP3   OH223188   6.625   6.752  12.779 -0.2756  0.5785 -0.3082
  566TIP3    H123189   6.606   6.685  12.844 -0.8451  0.0200 -1.0334
  566TIP3    H223190   6.556   6.743  12.714  0.7861  0.4975 -1.4798
  567TIP3   OH223191   0.773   5.089   1.034  0.6236  0.1724  0.5452
  567TIP3    H123192   0.840   5.087   1.103  0.8670  1.0792  0.3485
  567TIP3    H223193   0.741   5.179   1.035 -1.9884 -0.6781  1.9391
  568TIP3   OH223194   4.080   0.588  11.313 -0.2468  0.6726  0.3495
  568TIP3    H123195   4.102   0.525  11.382 -0.3362 -1.5405 -1.5308
  568TIP3    H223196   3.989   0.611  11.329  0.3679  2.0501  2.2765
  569TIP3   OH223197   5.666   3.521   3.311  0.0753  0.4546  0.3647
  569TIP3    H123198   5.756   3.489   3.310 -0.8937 -2.6310 -1.5513
  569TIP3    H223199   5.648   3.540   3.404  1.8447 -1.5046  1.1755
  570TIP3   OH223200   5.376   3.030  14.256  0.0324 -0.6054 -0.3426
  570TIP3    H123201   5.459   3.071  14.281 -0.1093  0.7363 -1.8504
  570TIP3    H223202   5.336   3.003  14.338  0.4535  1.7594  0.7134
  571TIP3   OH223203   1.447   1.310  10.302  0.0630 -0.3334 -0.0883
  571TIP3    H123204   1.419   1.396  10.271 -0.5620  0.0177  1.3415
  571TIP3    H223205   1.539   1.304  10.278  0.0832  0.6804 -0.3111
  572TIP3   OH223206   6.332   0.595  12.757  0.0268 -0.1933  0.1085
  572TIP3    H123207   6.299   0.616  12.669  0.1625 -3.2761 -0.7973
  572TIP3    H223208   6.420   0.632  12.759  0.7826 -1.6778 -1.8673
  573TIP3   OH223209   1.594   5.785  13.021  0.2421 -0.9162  0.4458
  573TIP3    H123210   1.589   5.772  13.116 -0.1759 -1.1806  0.3900
  573TIP3    H223211   1.673   5.838  13.009  0.5551 -1.2600  0.9040
  574TIP3   OH223212   5.200   4.910   2.330 -0.5363 -0.1351 -0.4942
  574TIP3    H123213   5.226   4.983   2.387  0.3640  0.9182 -2.1646
  574TIP3    H223214   5.282   4.879   2.293 -0.9775 -1.6764 -0.2314
  575TIP3   OH223215   3.775   3.078   2.711 -0.3734  0.0634 -0.5865
  575TIP3    H123216   3.806   3.003   2.661 -0.3214 -0.8171  0.7028
  575TIP3    H223217   3.680   3.074   2.702 -0.5892 -1.7487  1.5258
  576TIP3   OH223218   0.399   1.767   1.534  0.1047 -0.6863 -0.3705
  576TIP3    H123219   0.444   1.836   1.485  0.9891 -0.4121  0.7754
  576TIP3    H223220   0.341   1.814   1.594  0.6590 -0.9182  0.3686
  577TIP3   OH223221   3.180   3.120  13.470  0.4624  0.1843  0.3128
  577TIP3    H123222   3.089   3.092  13.478  0.6722 -0.5005  0.3570
  577TIP3    H223223   3.197   3.171  13.550  0.0207  0.6193  0.1390
  578TIP3   OH223224   5.812   4.454  12.320  0.0257 -0.2368 -0.2689
  578TIP3    H123225   5.763   4.467  12.238  2.4481  2.4217 -1.4437
  578TIP3    H223226   5.764   4.505  12.385 -1.5824 -1.8828 -0.0943
  579TIP3   OH223227   5.984   3.261   1.392  0.2512 -0.6089 -0.0694
  579TIP3    H123228   5.905   3.312   1.378 -0.8139 -1.7034  1.5753
  579TIP3    H223229   5.967   3.178   1.347  1.9381  0.3232 -2.6651
  580TIP3   OH223230   0.342   5.003  13.970  0.2650  0.4948 -0.1474
  580TIP3    H123231   0.435   4.979  13.970 -0.1516 -1.3388 -1.2233
  580TIP3    H223232   0.342   5.098  13.965  2.0900  0.5438  0.0692
  581TIP3   OH223233   0.053   4.483   0.782 -0.1867 -0.2093  0.3807
  581TIP3    H123234   0.004   4.468   0.862  0.9238 -1.1054  0.9332
  581TIP3    H223235   0.108   4.405   0.773  1.6971  1.0612  0.2450
  582TIP3   OH223236   2.484   4.631  11.503  0.6612 -0.1887  0.2152
  582TIP3    H123237   2.536   4.559  11.468  0.4676  0.8246 -2.4777
  582TIP3    H223238   2.544   4.680  11.559  1.9047 -0.3915 -0.8958
  583TIP3   OH223239   1.822   5.014  16.722  0.2829  0.4079 -0.0660
  583TIP3    H123240   1.730   5.042  16.713  0.1190 -0.2856 -0.6437
  583TIP3    H223241   1.841   5.025  16.815 -0.0919  1.4390 -0.0950
  584TIP3   OH223242   5.406   3.627   0.606 -0.5478  0.4132 -0.3796
  584TIP3    H123243   5.338   3.693   0.594 -0.2776  0.9646  0.9515
  584TIP3    H223244   5.371   3.570   0.674 -0.0963  0.1135 -0.3999
  585TIP3   OH223245   6.338   4.345  14.367 -0.3053 -0.0183 -0.2347
  585TIP3    H123246   6.292   4.265  14.342 -0.8651  0.5025 -0.9184
  585TIP3    H223247   6.382   4.323  14.449 -1.0153 -0.8154 -0.0565
  586TIP3   OH223248   0.506   5.432   1.640 -0.0592 -0.0102 -0.0581
  586TIP3    H123249   0.422   5.399   1.609 -0.1592  0.4414 -0.2773
  586TIP3    H223250   0.531   5.499   1.576  0.4883 -0.1736 -0.0175
  587TIP3   OH223251   1.728   2.157   3.341 -0.5111 -0.0952 -0.5149
  587TIP3    H123252   1.811   2.190   3.377 -0.7131 -0.7750  0.6493
  587TIP3    H223253   1.744   2.064   3.325 -1.1795 -0.3441  0.1881
  588TIP3   OH223254   4.564   6.048  17.284 -0.2951  0.0261  0.1074
  588TIP3    H123255   4.583   6.127  17.233  1.2224  0.7192  1.6413
  588TIP3    H223256   4.496   6.075  17.345 -0.6082 -0.1937 -0.1444
  589TIP3   OH223257   4.843   0.660   5.784 -0.0516  0.0515 -0.1580
  589TIP3    H123258   4.786   0.642   5.859  2.3081  1.5429  2.1225
  589TIP3    H223259   4.808   0.742   5.747 -1.9865 -1.3231 -1.6231
  590TIP3   OH223260   1.923   2.011  16.843  0.1431 -0.3810 -0.3433
  590TIP3    H123261   1.992   1.974  16.788 -0.0765  1.1400 -1.7434
  590TIP3    H223262   1.952   2.100  16.862  0.2576 -0.8955  2.1721
  591TIP3   OH223263   4.388   1.581  14.392  0.6925 -0.7346 -0.4433
  591TIP3    H123264   4.462   1.635  14.419  0.7652 -0.3155 -1.4524
  591TIP3    H223265   4.426   1.510  14.342  0.4349 -0.6783 -0.7212
  592TIP3   OH223266   1.761   1.123  12.424 -0.1999 -0.1473  0.0727
  592TIP3    H123267   1.854   1.112  12.443  0.6011  0.6749 -2.9260
  592TIP3    H223268   1.729   1.034  12.407  0.6560 -0.2378 -1.2266
  593TIP3   OH223269   6.001   5.467   3.062  0.3513 -0.5690 -0.0249
  593TIP3    H123270   5.916   5.424   3.067  0.1743 -0.1463  0.8898
  593TIP3    H223271   6.059   5.411   3.114  0.7465 -1.0800 -0.9851
  594TIP3   OH223272   1.388   3.254   1.379  0.5215 -0.9023 -0.1733
  594TIP3    H123273   1.433   3.171   1.390 -1.8910 -2.6454 -2.2778
  594TIP3    H223274   1.298   3.237   1.407 -0.5051  0.3685 -2.4316
  595TIP3   OH223275   4.013   2.438   2.921 -0.2199 -0.0312 -0.4489
  595TIP3    H123276   4.063   2.516   2.946  0.5403 -1.1195  1.7643
  595TIP3    H223277   3.960   2.466   2.847  1.1230  2.1547 -0.6833
  596TIP3   OH223278   3.059   1.884  11.375  0.4940 -0.6599 -0.0611
  596TIP3    H123279   3.089   1.975  11.376  3.0268 -1.4230  1.2143
  596TIP3    H223280   3.066   1.857  11.283 -1.4771  0.7118 -0.6842
  597TIP3   OH223281   0.775   3.982  12.439 -0.5258  0.0075 -0.8362
  597TIP3    H123282   0.719   3.962  12.514  0.5951 -1.9808 -0.4507
  597TIP3    H223283   0.762   3.909  12.379 -0.3100  0.8387 -1.9202
  598TIP3   OH223284   3.006   2.643  11.731  0.0155  0.4814  0.1382
  598TIP3    H123285   3.016   2.608  11.643 -0.4543 -0.0690  0.2948
  598TIP3    H223286   2.924   2.692  11.729  0.1455  0.7019  0.1941
  599TIP3   OH223287   3.511   0.268   3.978  0.2175 -0.1390 -0.0417
  599TIP3    H123288   3.425   0.306   3.994 -0.0300 -0.9480  0.6251
  599TIP3    H223289   3.493   0.176   3.958  1.0320 -0.8575  2.1810
  600TIP3   OH223290   2.918   0.472  17.259 -0.2503 -0.6068 -0.5598
  600TIP3    H123291   2.990   0.434  17.310  1.7401 -0.7514 -3.2243
  600TIP3    H223292   2.924   0.566  17.277 -0.6767 -0.8018  0.7008
  601TIP3   OH223293   0.641   1.097  14.975 -0.6675  0.2323 -0.6306
  601TIP3    H123294   0.566   1.091  14.915 -2.7580 -0.7943  1.9019
  601TIP3    H223295   0.612   1.052  15.054  1.7969  1.8571  1.3358
  602TIP3   OH223296   2.932   6.523  15.643 -0.0384 -0.6783 -0.6116
  602TIP3    H123297   2.964   6.454  15.585  0.4621 -0.9118 -0.0719
  602TIP3    H223298   2.884   6.582  15.586 -1.6768 -2.1969 -0.8831
  603TIP3   OH223299   1.742   5.202   1.536 -0.5551 -0.3077 -0.0882
  603TIP3    H123300   1.748   5.260   1.612 -2.0798  2.0885 -1.6437
  603TIP3    H223301   1.785   5.251   1.466 -1.0033 -1.5400 -1.2639
  604TIP3   OH223302   0.348   0.149   5.344 -0.0240  0.1315 -0.7186
  604TIP3    H123303   0.361   0.244   5.344 -0.2209  0.2080  1.4878
  604TIP3    H223304   0.402   0.117   5.417  0.2192 -1.4958 -1.5659
  605TIP3   OH223305   5.763   0.863  14.092 -0.2379 -0.2098  0.0003
  605TIP3    H123306   5.854   0.877  14.117 -0.3194  0.6288 -0.1495
  605TIP3    H223307   5.753   0.912  14.011 -0.4951 -1.3286 -0.6576
  606TIP3   OH223308   4.827   2.964   1.029 -0.5543 -0.1045 -0.5736
  606TIP3    H123309   4.882   2.981   1.106  1.6017 -1.8200 -1.6135
  606TIP3    H223310   4.745   2.931   1.066 -0.7872  2.0265  1.0317
  607TIP3   OH223311   0.091   5.900  12.898  0.5535  0.2592 -0.5865
  607TIP3    H123312   0.077   5.972  12.836  0.2594  0.2367 -0.5464
  607TIP3    H223313   0.011   5.899  12.951  0.2110 -0.6239 -1.1111
  608TIP3   OH223314   4.696   4.606   3.191  0.3927  0.0124  0.7517
  608TIP3    H123315   4.722   4.577   3.279  0.9513  2.1157  1.3280
  608TIP3    H223316   4.734   4.541   3.132  3.7625  0.8251  1.8079
  609TIP3   OH223317   3.997   6.523   1.127 -0.0290 -0.5852 -0.7723
  609TIP3    H123318   3.983   6.501   1.219 -0.5165 -1.1833 -0.9827
  609TIP3    H223319   3.938   6.465   1.079  0.6418 -0.6867 -1.4943
  610TIP3   OH223320   6.020   6.485  12.177  0.1494 -0.2274  0.7141
  610TIP3    H123321   5.987   6.412  12.124  0.4517  0.6491 -0.7311
  610TIP3    H223322   5.979   6.473  12.263  0.3119 -2.1767  0.5740
  611TIP3   OH223323   6.513   4.679   1.865 -0.3489  0.7846  0.0798
  611TIP3    H123324   6.564   4.683   1.946  0.8172 -0.5498 -0.5453
  611TIP3    H223325   6.427   4.647   1.892  0.5075 -1.2146  0.6513
  612TIP3   OH223326   6.183   3.302  12.626 -0.0732  0.5763 -0.9489
  612TIP3    H123327   6.178   3.218  12.581 -0.8076  0.8308 -1.3614
  612TIP3    H223328   6.100   3.310  12.672  0.4668  0.5476  0.0724
  613TIP3   OH223329   2.492   4.462   1.682  0.2672 -0.4167  0.1470
  613TIP3    H123330   2.539   4.425   1.608 -2.6772 -3.0506 -0.6458
  613TIP3    H223331   2.457   4.545   1.650 -0.1625 -1.0711 -1.1579
  614TIP3   OH223332   6.287   0.074   4.727 -0.2423  0.0297 -0.1324
  614TIP3    H123333   6.318   0.115   4.808 -1.0419 -0.0727  0.2382
  614TIP3    H223334   6.281   0.146   4.665  1.3687 -0.0498 -0.4323
  615TIP3   OH223335   2.246   6.355  17.263  0.6955  0.6309 -0.0305
  615TIP3    H123336   2.268   6.446  17.284  1.0196  0.5264  0.0923
  615TIP3    H223337   2.318   6.326  17.207  1.0237  0.1965  0.6082
  616TIP3   OH223338   4.714   5.269   0.806  0.3981  0.2724  0.5875
  616TIP3    H123339   4.787   5.242   0.862 -0.5568 -1.7467  0.9512
  616TIP3    H223340   4.724   5.216   0.726 -0.0195  0.8114  0.1703
  617TIP3   OH223341   4.851   3.340  16.883 -0.2752 -0.2819  0.4264
  617TIP3    H123342   4.895   3.255  16.885  0.7225  0.2324  2.5714
  617TIP3    H223343   4.843   3.360  16.790  0.6287 -2.1210 -0.1040
  618TIP3   OH223344   1.813   6.619   3.678 -0.1734 -0.2631 -0.1603
  618TIP3    H123345   1.851   6.629   3.765 -1.0630 -0.4705  0.2622
  618TIP3    H223346   1.753   6.545   3.686  0.3416 -0.8141 -1.1681
  619TIP3   OH223347   5.950   5.055   5.184 -0.4194 -0.6572  0.2165
  619TIP3    H123348   5.916   4.983   5.237 -0.4644 -1.0162 -0.2927
  619TIP3    H223349   5.879   5.120   5.183 -0.2497 -0.4461  0.9582
  620TIP3   OH223350   3.278   3.376  13.603 -0.1118 -0.3084  0.4598
  620TIP3    H123351   3.327   3.458  13.596  1.1907 -1.0138  0.9361
  620TIP3    H223352   3.213   3.381  13.534  0.8878  0.5129 -0.4571
  621TIP3   OH223353   5.177   4.711  10.383 -0.3960 -0.4643 -0.0703
  621TIP3    H123354   5.138   4.624  10.370  0.1305 -0.7419  0.1699
  621TIP3    H223355   5.204   4.710  10.475 -1.0202  0.2184  0.1295
  622TIP3   OH223356   4.512   2.938   2.244 -0.4959 -0.3845 -0.1711
  622TIP3    H123357   4.560   2.979   2.172  1.1176  0.7023  1.4168
  622TIP3    H223358   4.533   2.845   2.237 -0.3266 -0.2926 -1.0593
  623TIP3   OH223359   0.453   5.032   2.206  0.4300  0.2605 -0.5597
  623TIP3    H123360   0.518   5.054   2.138  0.4659  0.4359 -0.4693
  623TIP3    H223361   0.453   4.936   2.209  0.6681  0.2590 -0.5775
  624TIP3   OH223362   2.009   0.683   3.230 -0.5191 -0.3192 -0.2385
  624TIP3    H123363   2.024   0.598   3.190  0.0368  0.8801 -2.7913
  624TIP3    H223364   1.965   0.734   3.162 -0.0736  1.7022  0.9096
  625TIP3   OH223365   1.423   6.202  16.749  0.1000  0.7817  0.8346
  625TIP3    H123366   1.418   6.107  16.761  0.5480  0.9530  2.6130
  625TIP3    H223367   1.364   6.220  16.676 -1.2351 -0.6808  1.5105
  626TIP3   OH223368   2.657   4.302  13.013 -0.3443  0.1474 -0.0250
  626TIP3    H123369   2.614   4.375  12.968  0.7474 -0.4509 -2.1315
  626TIP3    H223370   2.667   4.234  12.947  1.8935 -0.5692  0.9279
  627TIP3   OH223371   2.601   3.940  12.422  0.2840  0.3860  0.4068
  627TIP3    H123372   2.591   4.028  12.387 -1.3739  1.3900  3.0806
  627TIP3    H223373   2.515   3.899  12.411  0.7824 -0.5856  0.0011
  628TIP3   OH223374   2.864   1.003  12.428 -0.2695 -0.1047  0.2712
  628TIP3    H123375   2.888   0.997  12.335  0.5763  1.1379  0.3745
  628TIP3    H223376   2.945   1.032  12.471 -0.8389  0.0143  1.2887
  629TIP3   OH223377   2.024   2.251  13.948  0.4125 -0.0404  0.2428
  629TIP3    H123378   2.078   2.293  14.014 -1.5678  0.0471  1.9044
  629TIP3    H223379   1.941   2.234  13.992 -1.1394  0.3506 -2.3113
  630TIP3   OH223380   0.886   0.993   1.744 -0.1177  0.0278 -0.2459
  630TIP3    H123381   0.974   1.031   1.731 -0.2264  0.1596 -0.6132
  630TIP3    H223382   0.900   0.921   1.805  0.2355  0.0958 -0.2424
  631TIP3   OH223383   3.183   4.236   4.903  0.0179  0.0728  0.2448
  631TIP3    H123384   3.231   4.319   4.896 -0.8814  0.5982  0.1816
  631TIP3    H223385   3.190   4.212   4.996 -0.7258  0.8379  0.5066
  632TIP3   OH223386   0.857   1.953   3.520 -0.0852  0.2407 -0.4599
  632TIP3    H123387   0.794   1.974   3.589 -2.3296 -1.6273 -1.7933
  632TIP3    H223388   0.934   1.920   3.567 -1.2203 -0.1841  1.1777
  633TIP3   OH223389   4.341   3.942   2.239 -0.8433  0.5972 -0.0176
  633TIP3    H123390   4.416   3.991   2.206 -2.1086  2.3964 -0.3811
  633TIP3    H223391   4.305   3.898   2.161  1.4460 -2.7381  0.6132
  634TIP3   OH223392   2.112   4.511   5.862  0.5595  0.5060  0.0415
  634TIP3    H123393   2.172   4.552   5.800  1.7634  0.2951  1.0238
  634TIP3    H223394   2.097   4.423   5.826  3.0578 -0.4582  1.1034
  635TIP3   OH223395   0.690   4.696  15.570  0.3794  0.0361  0.4386
  635TIP3    H123396   0.630   4.750  15.519 -0.0848 -2.1028 -1.4323
  635TIP3    H223397   0.670   4.606  15.543  2.1423 -0.9758  2.2770
  636TIP3   OH223398   4.097   4.274   3.567  0.2029 -0.0993  0.1291
  636TIP3    H123399   4.040   4.327   3.512  1.9749  0.8513 -0.9220
  636TIP3    H223400   4.185   4.308   3.549  1.0736 -1.2686  1.9018
  637TIP3   OH223401   6.723   5.827  15.503  0.3543 -0.1224  0.8763
  637TIP3    H123402   6.699   5.771  15.429  1.1434  0.0434  0.4869
  637TIP3    H223403   6.746   5.765  15.572  1.2966 -0.2933  0.4208
  638TIP3   OH223404   6.785   1.796  14.482 -0.2481 -0.5924  0.0311
  638TIP3    H123405   6.807   1.731  14.415 -0.5153 -1.8997  1.1610
  638TIP3    H223406   6.733   1.747  14.546 -1.8918  1.1265  0.1045
  639TIP3   OH223407   0.615   5.234  16.728  0.1730  0.3739 -0.3325
  639TIP3    H123408   0.698   5.243  16.683 -0.3388 -0.5945 -1.5166
  639TIP3    H223409   0.600   5.319  16.769  1.6020  0.6369 -0.3146
  640TIP3   OH223410   1.605   2.709  12.740 -0.0490 -0.3333 -0.5673
  640TIP3    H123411   1.514   2.724  12.716 -0.5905  0.5682  1.7369
  640TIP3    H223412   1.601   2.674  12.830  1.8927  1.4343  0.2971
  641TIP3   OH223413   3.329   6.753  12.508  1.1720 -0.0292  0.5245
  641TIP3    H123414   3.279   6.710  12.438  1.0240  0.9238  0.0130
  641TIP3    H223415   3.385   6.815  12.462  0.6117  1.0744  1.2834
  642TIP3   OH223416   3.417   4.283  13.922 -0.6810  0.1974 -0.3458
  642TIP3    H123417   3.388   4.220  13.856  0.1398 -0.5810  0.0201
  642TIP3    H223418   3.513   4.278  13.919 -0.6360  0.2433  0.8155
  643TIP3   OH223419   3.444   2.414  12.186 -0.3364  0.6002 -0.7442
  643TIP3    H123420   3.355   2.435  12.215 -0.8712  0.0017 -1.8754
  643TIP3    H223421   3.432   2.373  12.100  0.9900 -0.1329 -0.6029
  644TIP3   OH223422   5.509   4.582  12.759  0.1108  0.2602 -0.5962
  644TIP3    H123423   5.502   4.528  12.837  1.0999 -1.7524 -1.8201
  644TIP3    H223424   5.425   4.570  12.714  0.9697 -1.8853 -1.7849
  645TIP3   OH223425   6.320   6.332   5.326 -0.0608 -0.6479 -0.0121
  645TIP3    H123426   6.336   6.261   5.388  0.2519 -0.4105  0.1852
  645TIP3    H223427   6.394   6.327   5.266  1.2984  0.9968  1.4087
  646TIP3   OH223428   4.464   6.364   4.770 -0.3423  0.3307 -0.3468
  646TIP3    H123429   4.432   6.300   4.706  1.8309 -2.2101  0.8724
  646TIP3    H223430   4.426   6.335   4.854  1.2220  0.1375  0.3364
  647TIP3   OH223431   6.605   6.422   2.455 -0.0194 -0.2031 -0.4610
  647TIP3    H123432   6.634   6.496   2.509  1.0717 -0.3063 -0.8903
  647TIP3    H223433   6.513   6.441   2.438  0.2774  1.1601 -0.7009
  648TIP3   OH223434   1.662   4.327   5.589 -0.3857 -0.2987 -0.6712
  648TIP3    H123435   1.728   4.297   5.527  0.4638  0.3628 -0.1045
  648TIP3    H223436   1.671   4.269   5.665  0.6199  0.7475  0.0398
  649TIP3   OH223437   4.280   5.608  12.649  0.2248 -0.2833  0.4479
  649TIP3    H123438   4.315   5.592  12.561 -1.8416  0.9806 -0.6871
  649TIP3    H223439   4.357   5.627  12.702  1.4403  0.1856 -1.3778
  650TIP3   OH223440   4.434   6.319   2.552 -0.0599  0.2416 -0.0243
  650TIP3    H123441   4.421   6.335   2.459  0.3147  0.3653 -0.0527
  650TIP3    H223442   4.484   6.394   2.583 -0.7761  0.5517  0.4185
  651TIP3   OH223443   3.532   5.618  12.182 -0.0065  0.7948 -0.1350
  651TIP3    H123444   3.473   5.682  12.142 -1.3114 -0.9882 -1.2178
  651TIP3    H223445   3.533   5.544  12.121 -0.2422 -1.1131  2.0272
  652TIP3   OH223446   6.433   5.765  12.442 -0.7956 -0.0883  0.1979
  652TIP3    H123447   6.522   5.775  12.409 -0.7270 -0.0552  0.3971
  652TIP3    H223448   6.379   5.813  12.378 -0.7423 -0.6233 -0.2616
  653TIP3   OH223449   4.172   1.054  17.050 -0.0810 -0.0454 -0.3087
  653TIP3    H123450   4.217   1.028  16.970  1.1281 -0.2356  0.4162
  653TIP3    H223451   4.220   1.132  17.080 -0.0869 -0.3804  0.5967
  654TIP3   OH223452   6.165   4.528  15.582 -0.6161 -0.5850 -0.7628
  654TIP3    H123453   6.221   4.594  15.540  1.1051 -2.0572 -0.9150
  654TIP3    H223454   6.176   4.450  15.527  0.8274 -2.2537  1.7074
  655TIP3   OH223455   2.027   2.737   3.140 -0.8098  0.0443  0.2944
  655TIP3    H123456   2.045   2.829   3.120 -1.3786  1.3445  4.8080
  655TIP3    H223457   2.111   2.702   3.168 -0.9482 -0.3490  0.2252
  656TIP3   OH223458   1.815   2.977  12.119  0.2910 -0.4582 -0.1033
  656TIP3    H123459   1.796   2.886  12.144 -0.5112 -0.9478 -2.2292
  656TIP3    H223460   1.782   2.984  12.029  1.1829  1.6861 -0.3230
  657TIP3   OH223461   1.095   1.292  12.119  0.2036  0.3162  0.2231
  657TIP3    H123462   1.181   1.333  12.132 -0.0594  0.8156  0.3999
  657TIP3    H223463   1.032   1.362  12.134 -0.2099  0.2180 -0.9224
  658TIP3   OH223464   3.089   1.009   6.047 -0.2111  0.0078 -0.3196
  658TIP3    H123465   3.055   0.933   6.095  1.7478 -1.5814 -1.3153
  658TIP3    H223466   3.161   0.974   5.995  0.5859  2.5335 -1.0334
  659TIP3   OH223467   4.522   6.065  16.854 -0.2263  0.5343 -0.0101
  659TIP3    H123468   4.492   6.016  16.778 -0.4920 -1.2718  1.1940
  659TIP3    H223469   4.511   6.004  16.928  2.2551  1.3411  1.1475
  660TIP3   OH223470   4.750   5.362   1.454 -0.1787  0.9546  0.3372
  660TIP3    H123471   4.791   5.369   1.367  2.4278 -2.4764  1.0642
  660TIP3    H223472   4.766   5.447   1.495  0.6741  1.8308 -1.6748
  661TIP3   OH223473   5.105   4.643   0.004 -0.0941 -0.1649 -0.2209
  661TIP3    H123474   5.089   4.729   0.042 -0.0440  0.3012 -1.2333
  661TIP3    H223475   5.155   4.660  -0.076  1.3594 -1.2500  0.3959
  662TIP3   OH223476   0.460   3.517   6.624  0.4758 -0.3227  0.4176
  662TIP3    H123477   0.387   3.560   6.669  1.0342  0.7423  0.3184
  662TIP3    H223478   0.488   3.449   6.684 -0.5681 -0.7210  0.4807
  663TIP3   OH223479   4.376   3.709  15.081 -0.2403  0.0596  0.0821
  663TIP3    H123480   4.350   3.742  15.167 -1.6853 -1.3173  0.2227
  663TIP3    H223481   4.457   3.662  15.097  0.1596  0.8472  0.4432
  664TIP3   OH223482   3.358   2.863  14.418 -0.3412 -0.8351  0.5538
  664TIP3    H123483   3.298   2.905  14.357  1.0652 -0.2442 -0.4750
  664TIP3    H223484   3.443   2.904  14.401  0.2070 -1.0009  2.5768
  665TIP3   OH223485   5.498   2.082  16.560  0.2081  0.1730 -0.4753
  665TIP3    H123486   5.458   2.017  16.501 -1.0958  1.4723 -1.1039
  665TIP3    H223487   5.528   2.151  16.501  2.9879 -0.4834  0.0430
  666TIP3   OH223488   0.486   6.216   2.921  0.2121 -0.5145 -0.3835
  666TIP3    H123489   0.577   6.207   2.892  0.2692  1.8820 -1.1771
  666TIP3    H223490   0.435   6.182   2.848  0.4249 -2.1230  0.1742
  667TIP3   OH223491   1.476   0.097   6.880  0.1583 -0.8646  0.5003
  667TIP3    H123492   1.384   0.086   6.903 -0.3403 -0.4241 -1.1528
  667TIP3    H223493   1.482   0.067   6.789  1.6738 -0.9508  0.5887
  668TIP3   OH223494   5.367   1.009  10.566  0.1247 -0.1058 -0.4078
  668TIP3    H123495   5.450   1.050  10.540 -0.1314  1.9568  1.6553
  668TIP3    H223496   5.307   1.082  10.578 -2.0772 -1.5617 -1.8710
  669TIP3   OH223497   1.589   5.546   2.109 -0.3257 -0.1038 -0.4567
  669TIP3    H123498   1.665   5.538   2.168 -1.0651  0.0866  0.5404
  669TIP3    H223499   1.592   5.638   2.080  0.9471 -0.5775 -2.0167
  670TIP3   OH223500   0.029   5.638   4.642 -0.1868  0.1088 -0.0427
  670TIP3    H123501   0.110   5.685   4.661  0.4273 -0.9879  0.1676
  670TIP3    H223502  -0.012   5.625   4.728  0.2916 -0.8338  0.0592
  671TIP3   OH223503   1.558   0.544  15.856 -0.0174 -0.8293 -0.4874
  671TIP3    H123504   1.553   0.638  15.839 -0.2906 -0.6604  0.4515
  671TIP3    H223505   1.470   0.511  15.839 -0.3905 -0.5969  0.8388
  672TIP3   OH223506   1.269   4.760  14.961  0.2686 -0.2043 -0.4108
  672TIP3    H123507   1.178   4.781  14.981  0.2205 -1.6814  1.1194
  672TIP3    H223508   1.272   4.756  14.865 -1.6865 -1.6877 -0.4816
  673TIP3   OH223509   6.336   5.294  15.102 -0.0643  1.4099  0.0091
  673TIP3    H123510   6.293   5.308  15.018 -3.2929 -1.1884  1.0226
  673TIP3    H223511   6.394   5.219  15.088 -0.9196  0.7066  0.1318
  674TIP3   OH223512   0.357   3.372   5.931 -0.2464 -0.2875  0.1405
  674TIP3    H123513   0.298   3.368   6.007 -0.3621  1.3955  0.1700
  674TIP3    H223514   0.438   3.333   5.962  0.5478  2.5770  2.0003
  675TIP3   OH223515   5.202   0.389  14.949 -0.0792  0.3037 -0.8289
  675TIP3    H123516   5.161   0.455  14.893 -0.7271 -0.1533 -0.8903
  675TIP3    H223517   5.283   0.432  14.979 -1.5970  2.0634  1.0453
  676TIP3   OH223518   0.433   2.367  12.751  0.0994  0.3382  0.3697
  676TIP3    H123519   0.398   2.439  12.698  4.2399  0.8331 -2.1056
  676TIP3    H223520   0.424   2.290  12.695  0.0663 -0.1369  1.0224
  677TIP3   OH223521   6.041   2.437   3.006  0.3507 -0.2771  0.0882
  677TIP3    H123522   5.975   2.425   3.073 -0.2788 -1.2797 -0.6776
  677TIP3    H223523   6.080   2.523   3.024 -2.6912  1.4125 -0.7442
  678TIP3   OH223524   5.933   0.594   0.988 -0.2265 -0.4829  0.0890
  678TIP3    H123525   6.007   0.548   0.948 -0.4440  1.2454 -2.5011
  678TIP3    H223526   5.972   0.674   1.025 -0.7220  0.2105 -0.8805
  679TIP3   OH223527   5.494   1.801  17.068 -0.3069  0.2234  0.1754
  679TIP3    H123528   5.561   1.865  17.094 -0.9898  0.7005  0.7924
  679TIP3    H223529   5.444   1.785  17.148  0.2986 -1.6616  0.2260
  680TIP3   OH223530   2.825   4.594   5.590 -0.1021  0.2829  0.5887
  680TIP3    H123531   2.740   4.621   5.556  0.2981  0.9988  0.1339
  680TIP3    H223532   2.847   4.661   5.655  0.2481  0.2688  0.4856
  681TIP3   OH223533   6.507   5.763  17.078  0.3367  0.3327  0.3078
  681TIP3    H123534   6.575   5.811  17.032 -0.5416 -0.3841 -1.8810
  681TIP3    H223535   6.542   5.674  17.087  0.6004  0.5293  1.2698
  682TIP3   OH223536   0.970   5.971  12.825  0.0624  0.1235  0.0424
  682TIP3    H123537   0.954   5.957  12.731  1.9224  0.2264 -0.3392
  682TIP3    H223538   0.890   5.942  12.868  0.1314 -2.4314 -1.3914
  683TIP3   OH223539   4.769   5.853   1.113  0.2518  0.1281 -0.1084
  683TIP3    H123540   4.788   5.762   1.092  1.8878  0.3578  0.2219
  683TIP3    H223541   4.774   5.898   1.029  0.5987  0.0838 -0.1139
  684TIP3   OH223542   6.283   2.021  12.800 -0.0575 -0.1447 -0.4938
  684TIP3    H123543   6.191   2.003  12.819 -0.3840 -0.8392 -2.4932
  684TIP3    H223544   6.286   2.038  12.706  1.2470  4.2235  0.1214
  685TIP3   OH223545   0.235   6.403  12.798  0.5022  0.3619 -0.4514
  685TIP3    H123546   0.313   6.407  12.852  0.4811  2.1572 -0.4898
  685TIP3    H223547   0.163   6.393  12.860  0.5372  1.6647 -0.1916
  686TIP3   OH223548   5.271   5.246   5.114 -0.3114 -0.0747 -0.3879
  686TIP3    H123549   5.332   5.181   5.078 -0.4586 -0.4047 -0.0508
  686TIP3    H223550   5.228   5.201   5.186  1.4176  1.1703  1.5455
  687TIP3   OH223551   0.807   0.506  16.035  0.5808  0.6175 -0.0952
  687TIP3    H123552   0.749   0.446  15.988  1.3080  0.1338 -0.3974
  687TIP3    H223553   0.895   0.480  16.009  0.9065  2.1181 -0.5700
  688TIP3   OH223554   1.688   5.658  12.376  0.7011  0.5728  0.1934
  688TIP3    H123555   1.607   5.685  12.419  0.3862  1.2469 -0.7893
  688TIP3    H223556   1.753   5.722  12.405  0.7391  0.4060  0.4812
  689TIP3   OH223557   1.104   4.413   5.148 -0.0068  0.2784 -0.0042
  689TIP3    H123558   1.098   4.481   5.081 -0.8676 -0.7454 -1.0114
  689TIP3    H223559   1.155   4.343   5.106 -0.3461 -0.2765  0.4992
  690TIP3   OH223560   6.410   3.458  11.759  0.3165  0.8865 -0.0595
  690TIP3    H123561   6.372   3.400  11.693 -0.0105  1.9492 -0.8329
  690TIP3    H223562   6.421   3.403  11.836 -0.5172 -0.0640 -0.5960
  691TIP3   OH223563   3.423   3.255   1.516 -0.1547 -0.5861 -0.1250
  691TIP3    H123564   3.485   3.311   1.563 -0.3378 -0.6549  0.2002
  691TIP3    H223565   3.366   3.220   1.584 -0.2609 -0.8912 -0.3691
  692TIP3   OH223566   3.222   3.920  17.260 -0.3477 -0.4553 -0.0597
  692TIP3    H123567   3.177   3.841  17.229 -1.9343  0.5459 -0.4287
  692TIP3    H223568   3.259   3.960  17.181  0.6753 -0.9394  0.1599
  693TIP3   OH223569   2.046   5.968  13.081 -0.4526  0.4642  0.1408
  693TIP3    H123570   2.131   5.970  13.126  0.5278  1.2783 -1.6326
  693TIP3    H223571   2.024   5.875  13.074  0.7504  0.1884 -0.1681
  694TIP3   OH223572   4.250   2.196  17.209  0.5099 -0.5796  0.2615
  694TIP3    H123573   4.297   2.263  17.159 -2.1709  0.6493 -0.8281
  694TIP3    H223574   4.232   2.127  17.145 -0.5862 -0.2460  0.1897
  695TIP3   OH223575   0.737   4.345  14.326 -0.0293 -0.1213  0.0095
  695TIP3    H123576   0.651   4.302  14.331  0.3733 -1.3993 -2.3155
  695TIP3    H223577   0.763   4.358  14.417 -1.7399 -1.7097  0.7887
  696TIP3   OH223578   0.221   6.462   4.753 -0.4088 -0.0705 -0.7393
  696TIP3    H123579   0.210   6.557   4.756 -2.2729 -0.2715  0.4704
  696TIP3    H223580   0.316   6.449   4.750 -0.1186  1.8147 -2.6063
  697TIP3   OH223581   3.989   5.635  16.992 -0.4259  0.3525  0.2776
  697TIP3    H123582   3.903   5.677  16.991 -1.5282 -1.7698  0.8966
  697TIP3    H223583   4.017   5.640  17.084  0.3743  1.4368  0.0039
  698TIP3   OH223584   6.377   3.268  14.786 -0.0014 -0.1470 -0.5188
  698TIP3    H123585   6.355   3.305  14.701 -2.0403  1.5322  0.6288
  698TIP3    H223586   6.436   3.332  14.826 -0.4220 -0.0623 -0.0264
  699TIP3   OH223587   5.278   0.997   3.518  0.7496  0.1865 -0.2037
  699TIP3    H123588   5.222   0.997   3.441  1.8944  0.1762 -1.0739
  699TIP3    H223589   5.289   1.089   3.541 -0.6464  0.1412  0.7824
  700TIP3   OH223590   2.231   5.974  13.497  0.1958 -0.2201  0.3412
  700TIP3    H123591   2.232   5.947  13.405  1.1191 -0.2945  0.3675
  700TIP3    H223592   2.276   6.058  13.499  1.4562 -0.8847  0.9139
  701TIP3   OH223593   3.888   4.791   0.017  0.4565  0.4815 -0.4093
  701TIP3    H123594   3.828   4.854  -0.023  0.6450 -0.4609 -2.2639
  701TIP3    H223595   3.830   4.734   0.068  0.3503  2.4696  1.8877
  702TIP3   OH223596   4.998   2.439   1.231 -0.6532  0.1802  0.6587
  702TIP3    H123597   4.903   2.455   1.236 -0.9133 -1.5149  2.5085
  702TIP3    H223598   5.035   2.523   1.204 -2.7320  0.6525 -1.0226
  703TIP3   OH223599   1.283   1.663  11.653 -0.1575 -0.6899 -0.1699
  703TIP3    H123600   1.309   1.661  11.745  0.9777 -1.7744 -0.4890
  703TIP3    H223601   1.361   1.637  11.605 -0.4191  0.8137 -1.5376
  704TIP3   OH223602   2.530   5.886   6.786  0.1551  0.2289 -0.0941
  704TIP3    H123603   2.543   5.980   6.769  1.9652  0.0146 -0.1379
  704TIP3    H223604   2.465   5.883   6.856  1.4874  1.6355  1.2930
  705TIP3   OH223605   2.705   0.521  13.010  0.0247 -0.0789  0.1924
  705TIP3    H123606   2.670   0.607  12.987  2.9086  0.5335 -2.5745
  705TIP3    H223607   2.633   0.460  12.992 -0.8578  1.4008 -1.6167
  706TIP3   OH223608   4.085   6.151   0.486  1.2189 -0.3493 -0.5079
  706TIP3    H123609   4.037   6.227   0.516  1.4515 -0.5199  0.3319
  706TIP3    H223610   4.020   6.096   0.442  0.5330 -0.7823  0.9919
  707TIP3   OH223611   3.495   2.602   5.431 -0.2719  0.0606  0.0553
  707TIP3    H123612   3.462   2.534   5.373 -1.4705  0.1995  0.5409
  707TIP3    H223613   3.567   2.642   5.383  0.3315 -1.4108 -0.3204
  708TIP3   OH223614   6.386   6.421   6.672 -0.1093 -0.2748 -0.1987
  708TIP3    H123615   6.345   6.407   6.758 -1.2876  0.6768 -0.5669
  708TIP3    H223616   6.372   6.339   6.625  1.0145 -0.9951  0.6799
  709TIP3   OH223617   1.015   6.663  14.063 -0.7745 -0.0751 -0.0774
  709TIP3    H123618   1.044   6.688  13.975  1.4477 -0.9580  0.3343
  709TIP3    H223619   0.920   6.657  14.056 -0.8870  2.2837 -1.7594
  710TIP3   OH223620   5.472   0.081  13.556  0.0108  0.0394 -0.5541
  710TIP3    H123621   5.419   0.023  13.501 -0.4439  0.8568 -0.9976
  710TIP3    H223622   5.451   0.055  13.646 -0.0310 -0.6110 -0.7439
  711TIP3   OH223623   4.013   0.283  14.222 -0.3873 -0.4833 -0.1701
  711TIP3    H123624   4.082   0.225  14.253 -0.2578  0.2332  0.9477
  711TIP3    H223625   3.932   0.240  14.250 -0.2737  1.7739  4.6026
  712TIP3   OH223626   2.500   0.671  16.851  0.6256 -0.4093  0.6276
  712TIP3    H123627   2.534   0.674  16.940  3.0678  0.2675 -0.2508
  712TIP3    H223628   2.506   0.761  16.819 -0.9398 -0.4900 -0.0135
  713TIP3   OH223629   0.153   0.918   2.723 -0.1683  0.2637 -0.0695
  713TIP3    H123630   0.128   0.851   2.787 -0.0831 -0.8865 -1.2121
  713TIP3    H223631   0.224   0.966   2.765  1.0651 -1.5698  0.0546
  714TIP3   OH223632   1.853   6.501   3.012 -0.1564 -0.0577  0.1019
  714TIP3    H123633   1.830   6.484   3.103 -0.2026 -0.9224 -0.0662
  714TIP3    H223634   1.883   6.416   2.978  0.6903  0.4429 -0.4473
  715TIP3   OH223635   0.325   6.453   0.897  0.5466  0.3292  0.4330
  715TIP3    H123636   0.379   6.378   0.922 -1.2602 -0.7766  1.2295
  715TIP3    H223637   0.292   6.431   0.810  0.1500  0.2785  0.5958
  716TIP3   OH223638   5.818   1.184  10.436  0.4887 -0.2894  0.1844
  716TIP3    H123639   5.734   1.169  10.479  0.4346 -0.0892  0.1487
  716TIP3    H223640   5.879   1.126  10.481 -0.2995 -2.9317 -1.9201
  717TIP3   OH223641   0.321   4.148   2.058  0.5473 -0.1920 -0.0817
  717TIP3    H123642   0.392   4.116   2.115  0.4848 -2.2169 -1.0231
  717TIP3    H223643   0.364   4.164   1.974  0.2587  0.6640 -0.0692
  718TIP3   OH223644   6.086   0.972  12.479 -0.0834  0.1128 -0.3136
  718TIP3    H123645   6.080   0.877  12.486 -1.0257  0.2433  0.9293
  718TIP3    H223646   5.999   0.999  12.448  0.8198  0.4425 -2.8191
  719TIP3   OH223647   1.151   5.662   2.248 -0.1342 -0.2168 -0.0197
  719TIP3    H123648   1.077   5.621   2.292  0.0286 -0.6271 -0.1212
  719TIP3    H223649   1.118   5.747   2.219 -0.5133 -0.3253  0.0863
  720TIP3   OH223650   2.364   2.646   0.209 -0.0707 -0.2120 -0.0876
  720TIP3    H123651   2.286   2.604   0.245 -0.4363 -0.4565 -1.1245
  720TIP3    H223652   2.405   2.578   0.155  1.5117 -0.4607  1.3376
  721TIP3   OH223653   1.245   5.866   5.318 -0.4642 -0.4095 -0.1995
  721TIP3    H123654   1.310   5.821   5.372  1.0610  2.0501  0.1328
  721TIP3    H223655   1.163   5.819   5.336  0.4322 -1.1505  2.4617
  722TIP3   OH223656   0.131   5.658  13.120 -0.1110  0.1316  0.0626
  722TIP3    H123657   0.093   5.745  13.110 -0.7533 -0.2078 -0.5335
  722TIP3    H223658   0.181   5.644  13.040  1.7248  0.7652  1.0411
  723TIP3   OH223659   2.587   1.538   0.806 -0.0997  0.2575 -0.1951
  723TIP3    H123660   2.608   1.457   0.854 -0.9533  1.2600  1.9909
  723TIP3    H223661   2.502   1.520   0.766  0.1286 -0.2236 -0.4843
  724TIP3   OH223662   3.340   5.225   4.227  0.9997 -0.1663 -0.7075
  724TIP3    H123663   3.296   5.153   4.273 -1.0188  1.5238  0.1741
  724TIP3    H223664   3.420   5.240   4.278 -0.5149  0.7558  1.5688
  725TIP3   OH223665   4.870   3.615  14.365  0.1891 -0.4345  0.7821
  725TIP3    H123666   4.904   3.589  14.451 -0.6309 -1.0568  0.9250
  725TIP3    H223667   4.785   3.654  14.383 -0.4231 -1.4596  0.1649
  726TIP3   OH223668   2.635   1.446   3.824  0.3175 -0.7820  0.4684
  726TIP3    H123669   2.560   1.404   3.784 -0.2606  0.3060  0.3593
  726TIP3    H223670   2.661   1.387   3.895 -2.1462 -0.0976  2.0790
  727TIP3   OH223671   3.417   1.797   3.003 -0.4372  0.3119  0.0578
  727TIP3    H123672   3.431   1.750   3.085 -0.9963  0.3794  0.1949
  727TIP3    H223673   3.364   1.737   2.950 -1.1221  0.7594  0.2199
  728TIP3   OH223674   5.960   3.153   4.923 -0.2909  0.3060 -0.6035
  728TIP3    H123675   5.943   3.068   4.963  1.9437  0.2844  0.4419
  728TIP3    H223676   6.049   3.145   4.887  0.2245  2.3674  0.0868
  729TIP3   OH223677   2.818   3.677   0.826  0.1019  0.3000  0.0679
  729TIP3    H123678   2.832   3.591   0.788  0.5218  0.3703  0.0579
  729TIP3    H223679   2.727   3.676   0.857  0.1054 -0.1393  0.0567
  730TIP3   OH223680   3.832   6.572   0.158  0.3222 -0.3912 -0.0438
  730TIP3    H123681   3.777   6.543   0.230  0.1879 -2.0484 -0.7805
  730TIP3    H223682   3.879   6.493   0.130  2.5514  0.7952  0.0906
  731TIP3   OH223683   1.735   4.873   2.738  0.0098  0.3898 -0.1375
  731TIP3    H123684   1.697   4.834   2.818 -2.7141  0.5581 -1.2207
  731TIP3    H223685   1.681   4.951   2.722 -1.0920 -0.8393 -3.3022
  732TIP3   OH223686   5.452   4.257   2.960 -0.1856  0.4592 -0.4703
  732TIP3    H123687   5.504   4.316   2.906  0.6400 -0.8499 -1.1486
  732TIP3    H223688   5.363   4.267   2.927  0.0191  0.9663 -0.8922
  733TIP3   OH223689   1.096   6.376   2.031 -0.2825  0.4016 -0.0389
  733TIP3    H123690   1.096   6.322   2.110 -0.5695  0.6213  0.1135
  733TIP3    H223691   1.077   6.315   1.960  0.6841  0.0767 -0.0317
  734TIP3   OH223692   6.686   2.470   3.110  0.2932 -0.1067  0.5032
  734TIP3    H123693   6.668   2.402   3.175 -0.9617 -0.2714  0.0116
  734TIP3    H223694   6.697   2.422   3.028  1.1791  0.1554  0.4624
  735TIP3   OH223695   0.206   1.694   2.942  0.5870 -0.1337 -0.1372
  735TIP3    H123696   0.167   1.671   2.858  1.4937 -1.2186 -0.2901
  735TIP3    H223697   0.281   1.750   2.919  0.3673  0.2231  0.0074
  736TIP3   OH223698   1.820   0.028  16.122  0.0139 -0.1358  0.2663
  736TIP3    H123699   1.889  -0.009  16.177  0.7048 -0.3959 -0.7453
  736TIP3    H223700   1.824  -0.023  16.041 -1.2867 -0.0654  0.1394
  737TIP3   OH223701   2.710   3.497   2.832 -0.5978  0.4361 -0.0795
  737TIP3    H123702   2.638   3.445   2.798 -0.5133 -0.6226  1.2863
  737TIP3    H223703   2.741   3.548   2.757 -2.4806  0.6098 -0.7810
  738TIP3   OH223704   0.691   3.662   3.067 -0.4989  0.5962  0.1507
  738TIP3    H123705   0.730   3.641   3.152 -0.4414  1.1740  0.2673
  738TIP3    H223706   0.597   3.669   3.085 -0.4863  0.7225  0.1643
  739TIP3   OH223707   2.898   1.117   2.069 -0.0859 -0.0480  0.0311
  739TIP3    H123708   2.875   1.030   2.100  3.3949 -0.4128  2.2107
  739TIP3    H223709   2.953   1.102   1.992  0.2125  0.2291  0.1868
  740TIP3   OH223710   6.399   5.536  15.872  0.3239 -0.3914  0.0486
  740TIP3    H123711   6.429   5.626  15.855 -0.0483 -0.4442 -0.9279
  740TIP3    H223712   6.306   5.537  15.850  0.1796 -0.8801  0.5970
  741TIP3   OH223713   3.747   0.756   2.569  0.0820  0.2169  0.1091
  741TIP3    H123714   3.744   0.703   2.489  2.6392 -2.4078  1.5507
  741TIP3    H223715   3.657   0.752   2.604 -0.5343 -0.5086 -1.4624
  742TIP3   OH223716   1.115   2.958   2.758  0.5674  0.0996 -0.0064
  742TIP3    H123717   1.083   2.885   2.810  1.4682 -1.1159 -1.0957
  742TIP3    H223718   1.052   3.029   2.775 -1.0359 -1.2852  0.1349
  743TIP3   OH223719   6.342   2.836  15.995 -0.6177  0.2649 -0.4463
  743TIP3    H123720   6.411   2.891  16.031 -1.7153  0.9511  0.7314
  743TIP3    H223721   6.377   2.802  15.914  1.1039  0.5590  0.1442
  744TIP3   OH223722   4.583   4.297  11.025 -0.3280 -0.4885 -0.0790
  744TIP3    H123723   4.572   4.379  11.072 -0.6353  0.4075 -1.6585
  744TIP3    H223724   4.613   4.235  11.092 -0.2154  0.8587  1.1652
  745TIP3   OH223725   3.580   2.745   0.095  0.6077 -1.1249  0.1103
  745TIP3    H123726   3.486   2.729   0.084 -0.3795  2.4172  1.9879
  745TIP3    H223727   3.603   2.804   0.023  0.8460 -0.2757  0.8639
  746TIP3   OH223728   2.995   4.229   3.360  0.6447  0.1563 -0.5442
  746TIP3    H123729   2.981   4.134   3.360 -0.2481  0.2813 -0.5075
  746TIP3    H223730   3.089   4.239   3.342  0.6653 -0.7195 -0.9812
  747TIP3   OH223731   6.620   6.796   1.869 -0.1501 -0.6791 -0.0434
  747TIP3    H123732   6.553   6.858   1.899  0.7928  0.5757 -0.4603
  747TIP3    H223733   6.570   6.728   1.824 -1.3716 -1.2271  1.9954
  748TIP3   OH223734   2.684   1.331   0.299  0.3147  0.3432 -0.7204
  748TIP3    H123735   2.628   1.254   0.283  0.7586 -0.1874  0.2231
  748TIP3    H223736   2.768   1.295   0.326  0.3587  1.1579  0.3130
  749TIP3   OH223737   5.153   1.265   1.739  0.0349 -0.0508 -0.4434
  749TIP3    H123738   5.093   1.191   1.741  1.7319 -1.5136  1.3035
  749TIP3    H223739   5.211   1.247   1.665 -1.8057  1.5410 -2.3448
  750TIP3   OH223740   1.365   2.155  13.747  0.2353 -0.0557 -0.1976
  750TIP3    H123741   1.413   2.216  13.690  1.2649  1.0923  1.8113
  750TIP3    H223742   1.430   2.089  13.771 -0.0926 -0.3267 -0.0498
  751TIP3   OH223743   4.467   6.159  15.641 -0.2997  0.3885 -0.5061
  751TIP3    H123744   4.525   6.169  15.717 -1.2559  1.9741  0.0542
  751TIP3    H223745   4.467   6.245  15.600 -0.8071 -0.1135 -1.5900
  752TIP3   OH223746   0.937   5.923  12.547  0.5219  0.4952  0.2208
  752TIP3    H123747   0.879   5.947  12.475  0.1224  0.2295  0.4509
  752TIP3    H223748   0.959   5.831  12.531  0.3153  0.3934  0.5169
  753TIP3   OH223749   6.004   4.662   3.465  0.1784 -0.1515  0.5299
  753TIP3    H123750   6.070   4.598   3.493  0.6780 -0.3968 -1.1341
  753TIP3    H223751   5.924   4.611   3.454  0.0446 -0.0994  1.2050
  754TIP3   OH223752   6.799   4.825   3.725  0.0390  0.3382 -0.0607
  754TIP3    H123753   6.725   4.792   3.674  0.7984  0.2291 -1.1294
  754TIP3    H223754   6.870   4.764   3.706  0.7562  1.1634 -0.0751
  755TIP3   OH223755   0.534   4.978   3.682 -0.2182  0.1495 -0.5190
  755TIP3    H123756   0.563   5.054   3.631  4.1562 -0.4873  0.6354
  755TIP3    H223757   0.473   4.932   3.624  0.1993  2.3662 -2.8804
  756TIP3   OH223758   2.917   1.711   1.490 -0.0292  0.4461 -0.9074
  756TIP3    H123759   2.903   1.668   1.574  1.3240  1.8260  0.0708
  756TIP3    H223760   2.947   1.641   1.432  1.0836 -0.1501  0.3427
  757TIP3   OH223761   0.250   0.216  13.590 -0.0526 -0.3446 -0.6200
  757TIP3    H123762   0.337   0.253  13.579  0.0045 -0.8141 -1.9000
  757TIP3    H223763   0.259   0.153  13.662  0.9384 -1.1604 -1.4236
  758TIP3   OH223764   0.745   2.965   1.645 -0.5420 -0.3742 -0.3050
  758TIP3    H123765   0.717   2.876   1.623  0.0866 -0.8133  0.6199
  758TIP3    H223766   0.664   3.015   1.653 -0.9044 -0.8816 -0.7377
  759TIP3   OH223767   0.747   0.614  10.967  0.5830  0.6644 -0.2981
  759TIP3    H123768   0.797   0.686  10.929 -0.4121  1.4985 -0.0805
  759TIP3    H223769   0.807   0.540  10.966  1.8044  1.6191 -0.0666
  760TIP3   OH223770   0.901   5.670  11.547  0.4761  0.0767 -0.0483
  760TIP3    H123771   0.996   5.676  11.545  0.4797  0.2913  0.4973
  760TIP3    H223772   0.871   5.740  11.488  0.6605 -0.4717 -0.8047
  761TIP3   OH223773   3.653   2.172   5.372  0.1149 -0.1273  0.0078
  761TIP3    H123774   3.744   2.195   5.355  0.9723 -1.1132  2.7105
  761TIP3    H223775   3.652   2.143   5.463 -2.6355 -1.6206 -0.3771
  762TIP3   OH223776   4.039   2.070   1.246  0.3469 -0.3458 -0.6099
  762TIP3    H123777   4.066   1.988   1.206 -0.7330 -0.1269 -1.8624
  762TIP3    H223778   4.092   2.137   1.201 -1.2710 -0.0424 -2.1747
  763TIP3   OH223779   2.971   3.475  16.008 -0.5204 -0.6570 -0.3439
  763TIP3    H123780   3.033   3.545  15.993 -0.0992 -0.8069  0.6153
  763TIP3    H223781   3.024   3.396  16.016 -0.7865 -0.7610  0.6735
  764TIP3   OH223782   4.877   3.683   6.373  0.0146 -0.2549  0.1247
  764TIP3    H123783   4.947   3.621   6.389  0.0382  0.2317  2.2943
  764TIP3    H223784   4.890   3.751   6.439 -2.1438  0.1543  0.2030
  765TIP3   OH223785   6.554   1.811   3.593  0.3634  0.0216  0.9118
  765TIP3    H123786   6.517   1.793   3.680 -1.8925  0.7518  0.1715
  765TIP3    H223787   6.528   1.901   3.573  0.2761 -0.3382 -0.7792
  766TIP3   OH223788   4.466   4.325   0.879  0.0798  0.0401 -0.1735
  766TIP3    H123789   4.381   4.319   0.924  0.5716 -0.9601  0.6522
  766TIP3    H223790   4.450   4.385   0.806 -0.5327  2.5177  1.8297
  767TIP3   OH223791   1.615   5.551   4.071 -0.0725  0.0118  0.2512
  767TIP3    H123792   1.694   5.592   4.105  1.0743 -2.1096  0.3371
  767TIP3    H223793   1.553   5.553   4.143  0.1892  0.9446  0.4608
  768TIP3   OH223794   1.010   1.567  14.072  0.8883 -0.4083 -0.5058
  768TIP3    H123795   0.937   1.544  14.130  1.0530 -0.2955 -0.2570
  768TIP3    H223796   1.057   1.636  14.117 -0.0380  0.9850 -1.5845
  769TIP3   OH223797   4.033   3.907  11.631 -0.2787  0.0651  0.1129
  769TIP3    H123798   4.025   3.928  11.538  0.8178 -0.5736 -0.1435
  769TIP3    H223799   3.960   3.847  11.648 -1.2324  1.1617 -0.0192
  770TIP3   OH223800   4.728   0.241   2.260  0.0619 -0.1531  0.3411
  770TIP3    H123801   4.800   0.188   2.296  1.6588 -0.3611 -2.7771
  770TIP3    H223802   4.733   0.324   2.308 -0.4592 -1.6109  3.1354
  771TIP3   OH223803   2.604   6.554  12.971 -0.0204 -0.0271 -0.3123
  771TIP3    H123804   2.630   6.593  13.054 -2.1553 -0.8714  0.8265
  771TIP3    H223805   2.629   6.619  12.905 -0.6024  1.8416  1.2182
  772TIP3   OH223806   4.345   1.093   2.425  0.1032  0.1703 -0.0709
  772TIP3    H123807   4.357   1.006   2.463 -0.0801  0.4540  0.6591
  772TIP3    H223808   4.309   1.146   2.496 -0.6077  0.6282 -0.7526
  773TIP3   OH223809   2.134   4.404  11.524 -0.1427  0.1267 -0.0545
  773TIP3    H123810   2.147   4.498  11.536 -0.3321 -0.0048  1.4751
  773TIP3    H223811   2.048   4.397  11.483 -0.0316  0.6282 -0.3820
  774TIP3   OH223812   2.328   1.464   1.696  0.5985  0.4531  0.3965
  774TIP3    H123813   2.254   1.502   1.743 -0.3927  1.4120 -1.7811
  774TIP3    H223814   2.295   1.380   1.663  1.0853  0.0637  0.8776
  775TIP3   OH223815   1.900   1.761  16.986 -0.0449 -0.0624  0.3645
  775TIP3    H123816   1.885   1.851  16.956  0.1349 -0.0208  0.3971
  775TIP3    H223817   1.904   1.709  16.906 -1.5180 -0.2615  0.3833
  776TIP3   OH223818   2.167   4.801   6.886  0.1284  1.0621  0.1100
  776TIP3    H123819   2.239   4.800   6.823 -1.9528  2.0756 -2.4384
  776TIP3    H223820   2.093   4.763   6.840 -2.1885  4.1529  0.9681
  777TIP3   OH223821   4.878   4.003   1.987  0.0330 -0.0350 -0.0240
  777TIP3    H123822   4.833   4.046   2.060  0.5784 -0.0714  0.3377
  777TIP3    H223823   4.864   3.910   2.001  1.1326 -0.0984  0.6918
  778TIP3   OH223824   1.518   6.607   3.499  0.6302  0.0015 -0.1858
  778TIP3    H123825   1.560   6.539   3.551  0.8238 -0.9802 -1.5727
  778TIP3    H223826   1.441   6.633   3.550  1.3144 -0.2541  1.0036
  779TIP3   OH223827   2.015   6.562   2.310  0.4204 -0.4241 -0.0853
  779TIP3    H123828   2.073   6.634   2.284 -0.7444  0.0182 -1.6094
  779TIP3    H223829   1.973   6.593   2.390 -0.8766  1.1194 -1.2915
  780TIP3   OH223830   5.790   4.992  11.330  0.4613  0.9670  0.1909
  780TIP3    H123831   5.853   4.970  11.261 -1.4506 -0.1518 -1.3168
  780TIP3    H223832   5.781   4.912  11.381 -2.1580 -0.0855 -1.7044
  781TIP3   OH223833   2.545   3.271  15.631 -0.7181  0.0916 -0.5034
  781TIP3    H123834   2.587   3.293  15.549 -0.2721  1.0429 -0.0297
  781TIP3    H223835   2.587   3.327  15.696 -0.3778 -1.3104  0.5517
  782TIP3   OH223836   2.025   5.229  16.461  0.7087  0.7160  0.1152
  782TIP3    H123837   1.947   5.218  16.408  0.4187  0.0777  0.6557
  782TIP3    H223838   2.033   5.323  16.474 -1.0928  0.7205  1.6725
  783TIP3   OH223839   0.760   1.970  12.688 -0.0096  0.4643  0.1611
  783TIP3    H123840   0.743   2.051  12.736  1.5846  1.5302 -0.9863
  783TIP3    H223841   0.833   1.929  12.736  1.3989  1.3937 -1.1193
  784TIP3   OH223842   6.608   5.834   6.340 -0.2742  0.4125  0.2945
  784TIP3    H123843   6.577   5.797   6.423 -0.3325  1.8622  0.9578
  784TIP3    H223844   6.699   5.859   6.357 -0.5763  1.6044  0.2520
  785TIP3   OH223845   1.774   3.045   1.425  0.4275 -0.2339 -0.1799
  785TIP3    H123846   1.755   3.114   1.361  1.3759 -0.6718 -0.9619
  785TIP3    H223847   1.853   3.003   1.392  0.4454 -1.0360  0.8349
  786TIP3   OH223848   2.376   2.643   1.944 -0.2442  0.2111 -0.5892
  786TIP3    H123849   2.337   2.607   2.023  0.1092  0.4072 -0.3225
  786TIP3    H223850   2.470   2.637   1.958 -0.1612  1.9963 -0.1680
  787TIP3   OH223851   3.797   2.413  16.349 -0.0966  0.1774  0.0460
  787TIP3    H123852   3.821   2.383  16.437 -0.2119 -0.1198 -0.0203
  787TIP3    H223853   3.705   2.388  16.340  0.6682 -2.5658 -1.2813
  788TIP3   OH223854   5.508   4.538   4.996  0.2863  0.4785 -0.3444
  788TIP3    H123855   5.511   4.588   5.078  3.6290  0.1599 -0.1671
  788TIP3    H223856   5.492   4.448   5.024 -2.3485  0.8138 -0.4376
  789TIP3   OH223857   2.746   0.220   0.696 -0.2873 -0.2376 -0.0453
  789TIP3    H123858   2.657   0.253   0.684 -0.3329 -0.8922 -1.8512
  789TIP3    H223859   2.748   0.139   0.646  0.5485 -1.7272  2.2688
  790TIP3   OH223860   4.055   4.167   2.892 -0.0827  0.0176  0.3805
  790TIP3    H123861   3.995   4.192   2.962 -0.6482  2.1317 -0.7885
  790TIP3    H223862   4.005   4.183   2.811  0.7634 -1.7572 -0.5534
  791TIP3   OH223863   1.427   4.515   0.916 -0.1138  0.1644 -0.2805
  791TIP3    H123864   1.493   4.569   0.873  1.5371 -0.7777  0.9430
  791TIP3    H223865   1.446   4.426   0.887 -1.8685  0.0308 -1.1334
  792TIP3   OH223866   1.854   5.409  14.017 -0.0376  0.3296  0.0563
  792TIP3    H123867   1.933   5.356  14.012 -0.2527  0.1348 -1.5738
  792TIP3    H223868   1.783   5.348  13.998 -0.6316  0.4552  1.7180
  793TIP3   OH223869   4.071   4.804  12.334  0.0252 -1.2487 -0.1911
  793TIP3    H123870   4.037   4.715  12.345  1.2107 -1.5501  1.4625
  793TIP3    H223871   4.009   4.859  12.381 -0.9540 -1.1096 -1.5923
  794TIP3   OH223872   5.128   5.592   0.267 -0.2124 -0.1762  0.3011
  794TIP3    H123873   5.147   5.676   0.307  1.0822 -0.0387 -0.5499
  794TIP3    H223874   5.094   5.613   0.181 -0.7410 -0.5162  0.4214
  795TIP3   OH223875   6.361   0.235   4.453  0.0211 -0.1731  0.7334
  795TIP3    H123876   6.433   0.284   4.493  3.5075 -1.3774 -3.1927
  795TIP3    H223877   6.305   0.302   4.413  1.2091  0.7976  0.6366
  796TIP3   OH223878   4.759   5.323   4.300 -0.0566 -0.0735  0.0843
  796TIP3    H123879   4.735   5.231   4.310 -0.8903  0.2227  1.0540
  796TIP3    H223880   4.738   5.363   4.385 -1.0689  1.2875 -0.7484
  797TIP3   OH223881   3.036   6.397   5.975 -0.6192 -0.3411 -0.0198
  797TIP3    H123882   3.116   6.449   5.965  1.6023 -3.0760  2.0605
  797TIP3    H223883   3.007   6.416   6.064 -2.1990  0.3918 -0.6578
  798TIP3   OH223884   6.669   6.452  14.589 -0.2988 -0.0909  0.4358
  798TIP3    H123885   6.690   6.397  14.514  2.3889  1.7078 -0.2669
  798TIP3    H223886   6.720   6.414  14.661  0.8306  0.8618  0.1697
  799TIP3   OH223887   3.576   6.669   5.393  0.1900  0.2929 -0.4665
  799TIP3    H123888   3.567   6.659   5.299  2.9676 -0.6453 -0.7434
  799TIP3    H223889   3.615   6.586   5.422  0.5576  1.0350  1.2886
  800TIP3   OH223890   3.748   2.746   1.202 -0.0686  0.7449  0.6655
  800TIP3    H123891   3.835   2.755   1.162 -0.8780  0.6421 -1.2323
  800TIP3    H223892   3.695   2.813   1.159 -1.0885  0.4199  1.3789
  801TIP3   OH223893   4.919   2.784   2.219 -0.0097 -0.2893  0.3222
  801TIP3    H123894   5.006   2.760   2.250  0.1886  0.0351  0.0266
  801TIP3    H223895   4.910   2.877   2.241 -0.7111 -0.5805  1.3311
  802TIP3   OH223896   1.689   3.105  16.121 -0.5499 -0.0637 -0.0210
  802TIP3    H123897   1.655   3.183  16.077 -1.6622 -2.8170 -4.8137
  802TIP3    H223898   1.617   3.075  16.176 -1.0421  0.9286 -0.1012
  803TIP3   OH223899   4.545   3.720  10.510 -1.0293  0.2165  0.1888
  803TIP3    H123900   4.486   3.697  10.438  0.8588 -0.4132 -1.2522
  803TIP3    H223901   4.600   3.642  10.522  0.7832  1.4042  0.1034
  804TIP3   OH223902   2.371   0.715   0.754  0.2605  0.2963 -0.2544
  804TIP3    H123903   2.397   0.804   0.776 -1.8849  1.0287 -0.3877
  804TIP3    H223904   2.289   0.702   0.802 -0.4777 -0.8774 -1.7226
  805TIP3   OH223905   5.008   5.899   3.040 -0.0468  0.2646  0.5954
  805TIP3    H123906   4.990   5.968   3.103 -3.4253  1.1345 -1.0687
  805TIP3    H223907   5.024   5.945   2.957  2.2263 -0.8993  0.3039
  806TIP3   OH223908   4.761   1.488  11.554 -0.5892  0.0550 -0.0277
  806TIP3    H123909   4.762   1.394  11.573 -4.2769 -0.1682 -0.2053
  806TIP3    H223910   4.738   1.529  11.637 -2.4337  0.4121 -0.6717
  807TIP3   OH223911   3.289   4.394  12.683 -0.0250 -0.6277 -0.0301
  807TIP3    H123912   3.264   4.351  12.765  1.4776 -1.2082  0.1598
  807TIP3    H223913   3.238   4.475  12.682 -0.7434 -1.0431  1.0369
  808TIP3   OH223914   4.029   2.231   4.654  0.2648  0.1751  0.3474
  808TIP3    H123915   4.004   2.317   4.688 -1.8807 -0.6960  1.1021
  808TIP3    H223916   4.098   2.251   4.590  1.3556  2.2513  1.9836
  809TIP3   OH223917   0.824   2.860   3.820  0.0937  0.2376 -0.3554
  809TIP3    H123918   0.846   2.789   3.760  3.3707  1.0271 -0.2541
  809TIP3    H223919   0.775   2.922   3.767 -2.1154 -1.5970 -0.6438
  810TIP3   OH223920   2.934   2.267  15.482 -0.6942 -0.5607  0.2824
  810TIP3    H123921   2.891   2.196  15.434 -0.5205 -0.2092 -0.4175
  810TIP3    H223922   2.875   2.287  15.554 -2.1418  0.4427 -1.0983
  811TIP3   OH223923   2.299   3.111   5.761 -0.5199  0.0834  0.4652
  811TIP3    H123924   2.304   3.022   5.727 -2.0670 -0.0866  0.6395
  811TIP3    H223925   2.375   3.119   5.819  0.1537 -0.7950 -0.2800
  812TIP3   OH223926   0.543   4.630  12.137  1.0107 -0.2773 -0.0456
  812TIP3    H123927   0.527   4.653  12.046 -0.4205 -2.4199 -0.4158
  812TIP3    H223928   0.635   4.651  12.151  1.0543  0.8436 -1.7248
  813TIP3   OH223929   1.125   1.353  11.113 -0.3910  0.1916 -0.1432
  813TIP3    H123930   1.104   1.446  11.117 -1.2603  0.0915 -1.4616
  813TIP3    H223931   1.201   1.342  11.170 -1.8101  1.2309  2.0853
  814TIP3   OH223932   4.199   2.608  15.497 -0.1577  0.3258  0.2208
  814TIP3    H123933   4.182   2.524  15.454 -1.3944 -0.1468  1.5250
  814TIP3    H223934   4.205   2.585  15.590 -1.5901  1.7930  0.7242
  815TIP3   OH223935   4.195   4.227  11.350  0.4314 -0.7142  0.0680
  815TIP3    H123936   4.274   4.262  11.390 -0.5780  1.2089  0.4830
  815TIP3    H223937   4.208   4.240  11.256  1.7399 -2.9692 -0.1378
  816TIP3   OH223938   0.330   5.242  11.110 -0.0713 -0.7375 -0.6996
  816TIP3    H123939   0.273   5.243  11.033  0.1062 -0.0362 -0.8281
  816TIP3    H223940   0.392   5.312  11.094 -1.3029  0.8368  1.0120
  817TIP3   OH223941   4.616   0.091   5.432  0.8151 -0.0446 -0.7635
  817TIP3    H123942   4.593   0.089   5.339 -1.1435 -0.2708 -0.3360
  817TIP3    H223943   4.615  -0.001   5.459  0.0218  0.0979 -0.2582
  818TIP3   OH223944   6.201   4.601  14.330  0.4600  0.5703  0.2653
  818TIP3    H123945   6.272   4.545  14.361 -0.0045  0.7965  1.8685
  818TIP3    H223946   6.165   4.640  14.410 -1.9258 -0.0811 -0.3984
  819TIP3   OH223947   2.672   4.606  17.089 -0.1592  0.3007 -0.0442
  819TIP3    H123948   2.759   4.643  17.081  0.1243 -0.3686 -0.1783
  819TIP3    H223949   2.685   4.512  17.073 -0.6770 -0.0259  1.3136
  820TIP3   OH223950   0.825   6.322   6.159 -0.3445 -0.0591 -0.1767
  820TIP3    H123951   0.918   6.326   6.139  0.2320 -0.4882  2.1990
  820TIP3    H223952   0.809   6.396   6.218 -1.9513  1.0890 -1.8776
  821TIP3   OH223953   0.397   3.006  14.024 -0.5995  0.6046 -0.2523
  821TIP3    H123954   0.440   2.982  13.942  0.2900  1.2679 -0.0033
  821TIP3    H223955   0.398   2.926  14.076  0.9230  0.7469 -0.0169
  822TIP3   OH223956   0.441   1.060   5.793 -0.3939 -0.0385  0.3790
  822TIP3    H123957   0.499   0.984   5.796 -1.7006 -1.1516 -1.1263
  822TIP3    H223958   0.473   1.112   5.719 -1.1447 -0.5558 -0.3312
  823TIP3   OH223959   0.341   2.627   2.042 -0.0605  0.0638  0.5113
  823TIP3    H123960   0.420   2.650   1.993  0.0023  1.4824  1.2221
  823TIP3    H223961   0.316   2.540   2.009 -0.4970  1.2450 -2.6329
  824TIP3   OH223962   5.017   0.352  16.168  0.3747 -0.0399 -0.3089
  824TIP3    H123963   5.081   0.300  16.120  0.7868  0.4482 -0.2918
  824TIP3    H223964   5.009   0.433  16.118  0.0017  0.0293 -0.1421
  825TIP3   OH223965   6.245   5.599   2.448  0.1823 -0.1305  0.5946
  825TIP3    H123966   6.221   5.658   2.377  0.7216 -2.9617 -2.1911
  825TIP3    H223967   6.186   5.524   2.438 -0.0116 -0.4790  3.4919
  826TIP3   OH223968   5.657   1.979   1.434 -0.1004  0.2528  0.2504
  826TIP3    H123969   5.745   1.994   1.400  0.4552 -0.7852  1.1623
  826TIP3    H223970   5.599   2.021   1.370  1.0372  0.7416 -0.4886
  827TIP3   OH223971   1.004   4.980   1.613 -0.0516  0.4127 -0.1634
  827TIP3    H123972   0.950   5.047   1.570  0.2612 -0.4842 -2.0829
  827TIP3    H223973   1.083   5.026   1.641 -0.8044  1.2723  0.6129
  828TIP3   OH223974   6.178   4.371   1.392 -0.3931 -0.7403 -0.4982
  828TIP3    H123975   6.246   4.434   1.366  0.1261 -0.9222  0.3977
  828TIP3    H223976   6.212   4.286   1.367 -0.1596 -0.8593  0.2113
  829TIP3   OH223977   5.365   4.220  11.515 -0.4542 -0.3238 -0.7233
  829TIP3    H123978   5.402   4.138  11.483 -0.1947 -0.7899  0.6841
  829TIP3    H223979   5.280   4.226  11.472 -1.1854 -2.1732  0.3264
  830TIP3   OH223980   5.685   3.168   2.596  0.5028  0.4353  0.2147
  830TIP3    H123981   5.599   3.206   2.576 -2.2199 -2.3210  4.9108
  830TIP3    H223982   5.725   3.230   2.656  0.3159  0.2787  0.5051
  831TIP3   OH223983   2.387   3.974   6.615  0.1737 -0.5381 -0.5649
  831TIP3    H123984   2.317   3.964   6.679  0.4472 -0.1434 -0.1963
  831TIP3    H223985   2.345   3.964   6.530 -0.7048  1.6326 -0.4507
  832TIP3   OH223986   2.498   1.704  15.913 -0.6584  0.1111  0.6500
  832TIP3    H123987   2.518   1.747  15.830  0.8707 -0.3958  0.7248
  832TIP3    H223988   2.503   1.611  15.894 -3.1114 -0.0847  0.6894
  833TIP3   OH223989   1.443   3.859  13.250  0.0452 -0.2485 -0.1878
  833TIP3    H123990   1.430   3.864  13.345 -0.4317 -0.6831 -0.2282
  833TIP3    H223991   1.402   3.777  13.224  0.9977 -0.6044 -0.6429
  834TIP3   OH223992   4.775   4.831   2.048  0.9418 -0.2469 -0.2296
  834TIP3    H123993   4.730   4.911   2.020  1.3508 -0.2338 -0.8534
  834TIP3    H223994   4.866   4.857   2.059  0.7548 -0.1589  1.5001
  835TIP3   OH223995   1.072   6.321   0.158  0.0738 -0.6336  0.3613
  835TIP3    H123996   1.134   6.369   0.213  0.0912 -0.6062  0.3182
  835TIP3    H223997   1.127   6.275   0.094  0.0384 -0.4526  0.1993
  836TIP3   OH223998   0.086   1.368   2.793  0.1513 -0.1062 -0.4794
  836TIP3    H123999   0.156   1.420   2.754 -0.4654  0.3543 -0.9875
  836TIP3    H224000   0.100   1.377   2.888  1.7470 -1.3687 -0.5648
  837TIP3   OH224001   6.016   5.768   3.886 -0.3794  0.1139  0.5208
  837TIP3    H124002   5.973   5.827   3.949  0.7578  1.0695  0.4449
  837TIP3    H224003   6.063   5.705   3.941  0.1462  0.6004  0.6428
  838TIP3   OH224004   3.295   2.718   3.273  0.0755  0.5108  0.7832
  838TIP3    H124005   3.331   2.725   3.361 -0.7421 -0.1342  1.1806
  838TIP3    H224006   3.200   2.720   3.285 -0.1319 -2.1431  0.1991
  839TIP3   OH224007   2.537   1.873   0.264 -0.6791 -0.5113 -0.0858
  839TIP3    H124008   2.450   1.837   0.280 -1.1407  1.4222  2.3660
  839TIP3    H224009   2.582   1.866   0.348  0.7619  0.4923 -0.7235
  840TIP3   OH224010   6.353   6.283   1.042  0.5769  0.0750  0.1339
  840TIP3    H124011   6.375   6.195   1.014  0.1765  0.0870 -0.2161
  840TIP3    H224012   6.393   6.340   0.976 -0.1149  0.1126 -0.2586
  841TIP3   OH224013   6.822   5.575  15.396  0.7254  0.4194 -0.2583
  841TIP3    H124014   6.893   5.560  15.459  1.5545  2.5319 -0.5929
  841TIP3    H224015   6.867   5.599  15.315 -0.3597 -0.8137 -1.2726
  842TIP3   OH224016   2.922   6.350  17.104  0.3654  0.0433  0.2267
  842TIP3    H124017   2.881   6.339  17.018 -1.0206 -1.5318  1.0161
  842TIP3    H224018   2.861   6.308  17.164  2.4429 -1.0149  1.6931
  843TIP3   OH224019   2.702   1.113   1.586 -0.6071  0.6125  0.3982
  843TIP3    H124020   2.776   1.162   1.622 -1.9314  2.5067  0.6817
  843TIP3    H224021   2.681   1.157   1.504 -0.1544 -1.2079 -0.7532
  844TIP3   OH224022   6.449   3.002   2.473  0.3919 -0.7348 -0.8592
  844TIP3    H124023   6.462   3.097   2.466 -0.3392 -0.6489 -1.1676
  844TIP3    H224024   6.361   2.993   2.510  0.3332 -1.2921 -1.1283
  845TIP3   OH224025   2.816   1.469  11.581 -0.0449  0.2013  0.1719
  845TIP3    H124026   2.903   1.495  11.552 -0.5413  0.8178 -0.7963
  845TIP3    H224027   2.789   1.402  11.518 -0.1086 -0.2922  0.7149
  846TIP3   OH224028   5.968   5.964  16.695 -0.2541 -0.4598  0.1506
  846TIP3    H124029   5.968   6.060  16.689 -0.7256 -0.3040  1.9555
  846TIP3    H224030   5.875   5.940  16.687 -0.1561 -0.7427 -0.1150
  847TIP3   OH224031   2.651   6.750  15.699  0.0749  0.5161 -0.0189
  847TIP3    H124032   2.689   6.837  15.709 -0.6229  1.2188 -2.6649
  847TIP3    H224033   2.590   6.759  15.625 -0.0785 -2.1857 -0.3218
  848TIP3   OH224034   0.243   4.439  11.454 -0.0430  0.3209  0.7777
  848TIP3    H124035   0.150   4.458  11.440 -0.0230 -0.1780 -0.0885
  848TIP3    H224036   0.252   4.434  11.549 -0.8279  0.7290  0.8871
  849TIP3   OH224037   5.576   0.004   2.630 -0.2399 -0.5523 -0.1704
  849TIP3    H124038   5.543   0.087   2.665  0.0143 -0.8174  0.7116
  849TIP3    H224039   5.618   0.028   2.547 -1.0343  0.0485 -0.4072
  850TIP3   OH224040   0.494   5.427  13.827 -0.8813 -0.2409  0.0350
  850TIP3    H124041   0.416   5.377  13.804 -1.3450  0.3184  0.3838
  850TIP3    H224042   0.531   5.453  13.742 -1.6811  0.4208 -0.1213
  851TIP3   OH224043   1.961   4.501  14.305  0.3824  0.4185  0.1847
  851TIP3    H124044   1.964   4.451  14.224 -0.1625 -0.2486  0.5722
  851TIP3    H224045   1.979   4.591  14.278  3.0424 -0.1788 -0.3314
  852TIP3   OH224046   2.842   0.797   4.762 -0.1943 -0.0325  0.4385
  852TIP3    H124047   2.852   0.854   4.685 -0.0497  0.1552  0.5958
  852TIP3    H224048   2.782   0.845   4.819  0.0353  0.0251  0.6322
  853TIP3   OH224049   1.619   6.504  15.152 -0.7953 -0.0562  0.0361
  853TIP3    H124050   1.586   6.416  15.168  1.4356 -0.7949  0.9348
  853TIP3    H224051   1.621   6.512  15.057  1.0590 -1.9096 -0.1648
  854TIP3   OH224052   6.783   2.617   5.552 -0.0015 -0.4489  0.1035
  854TIP3    H124053   6.816   2.642   5.638 -0.3531 -0.4053  0.2256
  854TIP3    H224054   6.838   2.543   5.526  0.6018  0.0154  0.0322
  855TIP3   OH224055   6.786   4.559   2.408 -0.2151 -0.3917 -0.1441
  855TIP3    H124056   6.821   4.522   2.327  0.5116 -0.2648  0.1037
  855TIP3    H224057   6.859   4.554   2.470 -0.4171  0.5485  0.1803
  856TIP3   OH224058   0.499   2.436   6.716 -0.7369  0.9445  0.5478
  856TIP3    H124059   0.558   2.361   6.727 -2.1784 -0.2658  0.2864
  856TIP3    H224060   0.558   2.511   6.706  0.7526  0.1484  2.5447
  857TIP3   OH224061   5.965   4.244   6.018  0.7944 -0.0126  0.3824
  857TIP3    H124062   5.963   4.288   5.933  0.1730  2.3565  1.5379
  857TIP3    H224063   6.028   4.173   6.007  0.9024  0.3670 -1.9760
  858TIP3   OH224064   5.734   1.688  12.575  0.2853 -0.3383  0.0782
  858TIP3    H124065   5.716   1.756  12.639 -0.2599 -0.3066 -0.1043
  858TIP3    H224066   5.829   1.689  12.566  0.2948  0.3322  0.1519
  859TIP3   OH224067   3.265   0.646  15.932  0.2137 -0.5418  0.0045
  859TIP3    H124068   3.347   0.643  15.982 -0.2081 -1.1805  0.6758
  859TIP3    H224069   3.253   0.739  15.911  0.2440 -0.2097  1.3640
  860TIP3   OH224070   2.045   6.099  12.791  0.2894  0.1734  0.3603
  860TIP3    H124071   2.006   6.174  12.747 -1.1125  0.1393  1.4727
  860TIP3    H224072   1.998   6.093  12.874  1.0055 -1.3755  0.6843
  861TIP3   OH224073   6.081   2.738   3.000 -0.4841  0.0816 -0.2610
  861TIP3    H124074   6.038   2.779   3.075  1.7029 -0.0277  1.1354
  861TIP3    H224075   6.174   2.741   3.021  0.1796 -0.3273 -2.8189
  862TIP3   OH224076   5.961   4.299   2.426  0.1868  0.8104 -0.1954
  862TIP3    H124077   5.914   4.381   2.444 -1.9324 -0.5709  1.0147
  862TIP3    H224078   5.914   4.260   2.353  2.8448  1.8037 -2.6411
  863TIP3   OH224079   5.540   2.992   4.414 -0.6226 -0.3138 -0.3859
  863TIP3    H124080   5.571   3.079   4.440  1.0190 -1.1865  0.8092
  863TIP3    H224081   5.461   2.978   4.467 -0.0107 -0.1520  0.5993
  864TIP3   OH224082   4.858   2.192  12.513  0.0072 -0.5555  0.1398
  864TIP3    H124083   4.819   2.159  12.594 -0.7850  0.0102  0.0003
  864TIP3    H224084   4.828   2.130  12.446  0.1105 -0.6413  0.1718
  865TIP3   OH224085   4.534   5.710  11.699 -0.4551 -0.6610 -0.0352
  865TIP3    H124086   4.504   5.788  11.745 -0.3343 -1.3656  1.2969
  865TIP3    H224087   4.564   5.742  11.614 -3.0654  0.3595 -0.6819
  866TIP3   OH224088   2.768   5.643  16.990 -0.3296 -0.2597  0.0539
  866TIP3    H124089   2.693   5.587  17.006 -1.3547  1.1406  0.2945
  866TIP3    H224090   2.736   5.712  16.931  1.0676 -0.2913 -0.8117
  867TIP3   OH224091   5.380   1.900  16.371 -0.1258  0.2696 -0.5742
  867TIP3    H124092   5.286   1.911  16.384 -0.0730  1.6021 -1.1364
  867TIP3    H224093   5.388   1.847  16.291 -0.3836 -1.9677  0.8110
  868TIP3   OH224094   0.017   3.680   0.002 -0.0876 -0.3485 -0.0465
  868TIP3    H124095   0.067   3.762   0.010  0.2918 -0.6067  0.2086
  868TIP3    H224096  -0.061   3.706  -0.048 -0.2387  0.2858  0.5035
  869TIP3   OH224097   4.590   6.817  13.716  0.6373 -0.1328 -0.9772
  869TIP3    H124098   4.672   6.769  13.702  0.0727 -1.1398 -0.9613
  869TIP3    H224099   4.617   6.904  13.745  1.6890 -0.6300 -0.4184
  870TIP3   OH224100   3.998   1.870  12.658 -0.0379  0.0776  0.0032
  870TIP3    H124101   4.011   1.923  12.580 -1.4068  0.3912 -0.0331
  870TIP3    H224102   3.920   1.907  12.699  1.3410  0.7632  2.2185
  871TIP3   OH224103   5.406   5.670   2.781  0.5199 -0.2284  0.7316
  871TIP3    H124104   5.371   5.722   2.854 -1.0544  0.4725 -0.4594
  871TIP3    H224105   5.486   5.717   2.755 -0.8721  1.7409 -0.3255
  872TIP3   OH224106   0.605   0.034  16.485 -0.0680 -0.1497  0.0786
  872TIP3    H124107   0.563   0.113  16.452 -0.1728 -0.4462 -0.5151
  872TIP3    H224108   0.637   0.058  16.572  0.8958  0.8753 -0.5389
  873TIP3   OH224109   6.305   0.852  16.497  0.4046 -0.6277 -0.1544
  873TIP3    H124110   6.272   0.883  16.413 -1.1486 -1.1473  0.2372
  873TIP3    H224111   6.383   0.801  16.475  0.8453  0.4292 -1.1291
  874TIP3   OH224112   4.730   6.257  11.801 -0.0407 -0.1651  0.3968
  874TIP3    H124113   4.712   6.168  11.831 -0.0619 -0.4187 -0.3401
  874TIP3    H224114   4.651   6.284  11.755  0.2107 -0.0194  0.0412
  875TIP3   OH224115   1.212   2.374   5.652 -0.1365  0.1287  0.3391
  875TIP3    H124116   1.250   2.312   5.714 -1.1786 -2.3714 -1.3498
  875TIP3    H224117   1.129   2.335   5.627 -1.0435  2.4499 -0.5557
  876TIP3   OH224118   5.939   5.564  13.255 -0.4976  0.7130 -0.4767
  876TIP3    H124119   5.879   5.489  13.250  0.2916  0.0740 -0.7974
  876TIP3    H224120   5.952   5.590  13.164  1.2629 -0.4703 -0.6205
  877TIP3   OH224121   6.186   1.117   1.451  0.1918  0.8623 -0.0984
  877TIP3    H124122   6.202   1.184   1.385  0.8996  2.3970  1.5413
  877TIP3    H224123   6.091   1.115   1.460  0.1388  1.3332 -0.4823
  878TIP3   OH224124   3.937   2.696   4.913  0.3896 -0.8399  0.4621
  878TIP3    H124125   3.950   2.748   4.834 -1.5929 -0.3883  0.3892
  878TIP3    H224126   3.956   2.756   4.985  1.4668 -1.0344  0.3476
  879TIP3   OH224127   5.079   0.624   3.722 -0.0388  0.0150 -0.5433
  879TIP3    H124128   5.001   0.583   3.759  0.1268 -0.1371 -0.3576
  879TIP3    H224129   5.046   0.679   3.651 -0.2561 -0.5924 -0.9292
  880TIP3   OH224130   5.651   2.477   2.525 -0.0959  0.0189  0.4677
  880TIP3    H124131   5.670   2.474   2.619  0.0464  0.2308  0.4453
  880TIP3    H224132   5.695   2.400   2.489  1.2065  0.7969  0.3325
  881TIP3   OH224133   0.638   5.833   0.026 -0.2603  0.1437 -0.4563
  881TIP3    H124134   0.627   5.927   0.039  1.2935  0.0116  2.7647
  881TIP3    H224135   0.549   5.799   0.018 -0.8199  1.9503 -3.1498
  882TIP3   OH224136   5.537   6.039   0.213  0.0561  0.3080  0.1997
  882TIP3    H124137   5.465   5.979   0.190 -0.4598  1.6096 -1.7976
  882TIP3    H224138   5.544   6.032   0.308 -1.9617 -0.7021  0.3293
  883TIP3   OH224139   1.908   0.604   0.564  0.2231 -0.2548 -0.5156
  883TIP3    H124140   1.899   0.604   0.659 -1.6684 -1.4982 -0.6441
  883TIP3    H224141   1.980   0.542   0.547  0.5455 -0.0584  0.0859
  884TIP3   OH224142   5.208   4.827  11.573  0.3144  0.9469 -0.3073
  884TIP3    H124143   5.271   4.755  11.566 -1.6412 -1.3929  2.9796
  884TIP3    H224144   5.242   4.882  11.643 -0.5016  0.4952  0.4640
  885TIP3   OH224145   1.404   2.268  10.464 -0.3847 -0.1421 -0.2329
  885TIP3    H124146   1.314   2.245  10.486 -0.6562  0.0965 -1.0648
  885TIP3    H224147   1.419   2.228  10.379 -0.3927  1.4785 -1.0467
  886TIP3   OH224148   3.811   2.235   2.724 -0.2553  0.0947 -0.5635
  886TIP3    H124149   3.898   2.268   2.703 -0.5637  1.5014  0.2750
  886TIP3    H224150   3.757   2.313   2.734 -1.0291 -0.6422  1.4308
  887TIP3   OH224151   5.166   0.992  14.435  0.2009 -0.1792  0.2075
  887TIP3    H124152   5.203   1.080  14.431  1.6500 -0.8041 -1.8175
  887TIP3    H224153   5.116   0.984  14.353  0.0804 -1.2319  0.3721
  888TIP3   OH224154   1.429   3.281   0.108  0.1468 -0.1374  0.2976
  888TIP3    H124155   1.380   3.318   0.035 -0.3752  0.5852  1.0069
  888TIP3    H224156   1.363   3.236   0.161  0.5713 -0.9384  0.1754
  889TIP3   OH224157   0.979   0.454   3.163  0.1433 -0.0272 -0.0485
  889TIP3    H124158   1.048   0.443   3.228 -0.0423 -0.3252  0.1002
  889TIP3    H224159   0.916   0.384   3.182  0.7765 -1.0313 -1.4207
  890TIP3   OH224160   1.617   6.567  14.585  0.1882 -0.1772 -0.5921
  890TIP3    H124161   1.537   6.614  14.559  1.4970  1.1380 -2.5659
  890TIP3    H224162   1.606   6.479  14.549 -0.0022  0.2714 -1.6754
  891TIP3   OH224163   3.309   5.214  15.864  0.1872 -0.2618  0.1408
  891TIP3    H124164   3.393   5.201  15.818  1.2720  1.5204  1.4841
  891TIP3    H224165   3.304   5.140  15.925  1.9171  0.7293  1.5787
  892TIP3   OH224166   4.927   2.906  16.915  0.2382  0.0683 -0.4329
  892TIP3    H124167   4.836   2.929  16.899  0.5735  1.3643 -0.5674
  892TIP3    H224168   4.976   2.985  16.893  1.3294 -0.3695  0.3442
  893TIP3   OH224169   6.036   1.562  12.175 -0.2459  0.6567  0.0179
  893TIP3    H124170   6.080   1.612  12.244  0.2254 -0.1799  0.3383
  893TIP3    H224171   5.982   1.499  12.222  1.1854 -0.8918 -0.3405
  894TIP3   OH224172   0.302   4.222   1.057  0.1989 -0.3145 -0.4303
  894TIP3    H124173   0.347   4.290   1.007  0.9249 -0.0445  0.5582
  894TIP3    H224174   0.317   4.142   1.007  2.0391 -0.2819  0.0032
  895TIP3   OH224175   3.867   3.399   0.313 -0.7174 -0.3512 -0.0875
  895TIP3    H124176   3.778   3.379   0.284 -0.3434 -0.6028 -1.1187
  895TIP3    H224177   3.921   3.332   0.271  0.1531  0.8292 -0.9168
  896TIP3   OH224178   0.951   1.982   4.888 -0.5414  0.2620  0.3515
  896TIP3    H124179   0.898   1.976   4.809  0.3284  0.4555 -0.2639
  896TIP3    H224180   0.991   2.069   4.883  0.3895 -0.1502  0.4346
  897TIP3   OH224181   2.725   3.042  12.674 -0.2584 -0.6056  0.5728
  897TIP3    H124182   2.775   2.970  12.633  1.3976 -0.0957  1.5763
  897TIP3    H224183   2.775   3.121  12.651 -1.5428  0.1392  0.2717
  898TIP3   OH224184   6.269   1.484   5.426 -0.1382 -0.4367  0.2980
  898TIP3    H124185   6.328   1.453   5.358 -2.0337 -1.9065 -0.7660
  898TIP3    H224186   6.274   1.417   5.495 -1.3825 -1.1974 -0.3173
  899TIP3   OH224187   0.110   3.942  17.288  0.6538  0.0208  0.4228
  899TIP3    H124188   0.190   3.963  17.336  0.8650  1.2233 -0.4123
  899TIP3    H224189   0.133   3.957  17.196 -0.5933  0.5845  0.1940
  900TIP3   OH224190   1.706   6.683   0.554 -0.4443  0.0380  0.4117
  900TIP3    H124191   1.626   6.724   0.588 -0.4251  0.0404  0.4526
  900TIP3    H224192   1.766   6.756   0.539 -0.5379  0.0640  0.1441
  901TIP3   OH224193   6.730   0.831  11.208  0.0771 -0.2092  0.1205
  901TIP3    H124194   6.730   0.911  11.261 -2.0382 -0.5073  0.6506
  901TIP3    H224195   6.772   0.765  11.264 -3.3555 -0.8816  2.1855
  902TIP3   OH224196   3.249   5.850   2.350 -0.0103 -0.5870 -0.4656
  902TIP3    H124197   3.199   5.932   2.361 -1.0565 -1.1629 -0.7929
  902TIP3    H224198   3.220   5.816   2.265  2.2447 -0.0895 -1.5064
  903TIP3   OH224199   5.693   0.742   0.909 -0.0031 -0.3387 -0.4699
  903TIP3    H124200   5.727   0.823   0.946  1.4967 -0.6299 -1.1475
  903TIP3    H224201   5.759   0.676   0.930 -0.1097 -0.9259 -1.8578
  904TIP3   OH224202   0.190   5.437   1.163  0.3929 -0.0550 -0.0701
  904TIP3    H124203   0.251   5.367   1.140  1.9390  1.0665  0.5244
  904TIP3    H224204   0.242   5.501   1.210 -1.0745  1.3294 -0.2323
  905TIP3   OH224205   3.383   6.824   2.087  0.2778  0.5034 -0.2164
  905TIP3    H124206   3.427   6.742   2.106 -0.1190  0.6672  1.6256
  905TIP3    H224207   3.438   6.891   2.127 -0.8922  0.8253  0.9502
  906TIP3   OH224208   4.857   1.586  13.468  0.6553  0.0064  0.0166
  906TIP3    H124209   4.777   1.556  13.512 -0.9454  2.1786 -1.1960
  906TIP3    H224210   4.895   1.651  13.526  0.8477 -0.1251  0.0385
  907TIP3   OH224211   2.296   3.521  14.623  0.6870  0.3218  0.3015
  907TIP3    H124212   2.205   3.548  14.633 -0.0554 -1.2035 -1.6163
  907TIP3    H224213   2.339   3.595  14.580 -0.2025  0.2556 -0.7547
  908TIP3   OH224214   5.282   6.781   2.482  0.3398  0.4426 -0.1218
  908TIP3    H124215   5.308   6.696   2.516 -0.2239  0.8314  1.3286
  908TIP3    H224216   5.239   6.761   2.399  0.2688 -0.6713  0.1671
  909TIP3   OH224217   0.842   3.425   3.779 -0.1140 -0.3041 -0.5905
  909TIP3    H124218   0.834   3.358   3.847 -0.0541 -1.6974 -1.8941
  909TIP3    H224219   0.784   3.394   3.709  1.5072 -0.1199 -2.0804
  910TIP3   OH224220   0.418   3.130   3.942  0.6375  0.1059  0.4572
  910TIP3    H124221   0.361   3.133   3.866  1.2484  0.7782  0.0133
  910TIP3    H224222   0.430   3.037   3.960 -1.2331 -0.0593  1.0578
  911TIP3   OH224223   0.230   3.279  16.569 -0.0763  0.1970 -0.0959
  911TIP3    H124224   0.217   3.223  16.494  0.0240  0.7826 -0.5579
  911TIP3    H224225   0.147   3.276  16.616 -0.8227  1.3514 -1.2797
  912TIP3   OH224226   1.769   4.715  13.287  0.3505 -0.0491 -0.0196
  912TIP3    H124227   1.843   4.690  13.233 -0.7783 -1.6817 -0.8988
  912TIP3    H224228   1.794   4.688  13.376 -0.0462 -2.8410 -0.6405
  913TIP3   OH224229   5.046   4.542  10.953 -0.0671  0.1996  0.1794
  913TIP3    H124230   5.104   4.488  10.899 -0.5370  0.9989 -1.1818
  913TIP3    H224231   4.958   4.513  10.930 -0.3695  2.1211 -1.2858
  914TIP3   OH224232   6.745   1.617   5.816 -0.1394 -0.2013  0.4880
  914TIP3    H124233   6.810   1.678   5.849  2.2261 -1.9258 -0.7043
  914TIP3    H224234   6.748   1.543   5.878 -1.5398 -0.0213  0.8162
  915TIP3   OH224235   6.803   4.220  14.868 -0.1923  0.8273  0.0555
  915TIP3    H124236   6.834   4.188  14.953 -0.1039  0.2788 -0.1771
  915TIP3    H224237   6.878   4.209  14.810  0.0243  1.9957  0.0925
  916TIP3   OH224238   3.013   4.103   1.048 -0.1537 -0.0352  0.4697
  916TIP3    H124239   3.090   4.060   1.086  1.0065  1.2641 -0.3202
  916TIP3    H224240   3.006   4.067   0.960 -0.6394 -0.3563  0.6341
  917TIP3   OH224241   6.331   1.297  15.310 -0.4679 -0.2208  0.0511
  917TIP3    H124242   6.283   1.292  15.392 -0.3414 -0.9921  0.0880
  917TIP3    H224243   6.281   1.358  15.256 -0.1883  0.8180  0.9343
  918TIP3   OH224244   1.848   6.791  11.846 -0.1687  0.4725 -0.6630
  918TIP3    H124245   1.784   6.791  11.774 -1.5863 -2.0074  0.4542
  918TIP3    H224246   1.913   6.726  11.820  0.1831  0.7178 -0.4038
  919TIP3   OH224247   1.573   1.716  13.849 -0.3058 -0.2574 -0.2882
  919TIP3    H124248   1.637   1.667  13.797 -0.0358 -0.2915  0.0702
  919TIP3    H224249   1.573   1.672  13.934  1.6103  1.6610  0.8307
  920TIP3   OH224250   4.520   6.654   5.278  0.1097  0.2634  0.2287
  920TIP3    H124251   4.433   6.665   5.316 -0.2139  0.0221 -0.4371
  920TIP3    H224252   4.508   6.594   5.205  0.5100  1.6545 -1.0155
  921TIP3   OH224253   0.222   2.368   2.253  0.6920 -0.2086 -0.4183
  921TIP3    H124254   0.144   2.323   2.221 -0.0386  0.2020  0.7011
  921TIP3    H224255   0.291   2.302   2.252  0.0806 -0.8543 -0.4606
  922TIP3   OH224256   2.917   2.910  13.101  0.0589 -0.2197 -0.4662
  922TIP3    H124257   2.882   2.955  13.178  0.2557  2.1757 -1.6846
  922TIP3    H224258   2.890   2.819  13.112 -0.2490  0.1251  2.2103
  923TIP3   OH224259   4.837   4.256   0.663 -0.2067  0.4054 -0.5068
  923TIP3    H124260   4.743   4.247   0.647 -0.2059  0.7953 -0.7491
  923TIP3    H224261   4.877   4.181   0.619 -0.4066  0.2196 -0.3729
  924TIP3   OH224262   0.833   1.121  10.534  0.7799  0.0950  0.7222
  924TIP3    H124263   0.767   1.169  10.584 -0.2734 -1.4707  0.8887
  924TIP3    H224264   0.816   1.145  10.443 -0.1769 -0.4531  0.7442
  925TIP3   OH224265   2.530   6.372  16.340  0.2654  0.1124 -0.9010
  925TIP3    H124266   2.599   6.345  16.279  0.0985 -0.4927 -0.8277
  925TIP3    H224267   2.551   6.327  16.422 -0.5442 -0.5499 -1.0461
  926TIP3   OH224268   6.629   1.570  11.851  0.0874  0.5638 -0.5876
  926TIP3    H124269   6.540   1.605  11.844 -0.5115 -0.5168  1.0608
  926TIP3    H224270   6.619   1.476  11.833  0.5115  0.0568  1.5124
  927TIP3   OH224271   5.867   2.089   3.182  0.0332  0.4045 -0.4254
  927TIP3    H124272   5.900   2.004   3.212 -4.0046 -0.8810  0.9307
  927TIP3    H224273   5.869   2.144   3.260  2.0307  1.4664 -1.1545
  928TIP3   OH224274   1.548   5.933   5.557  0.2950 -0.2874 -0.5007
  928TIP3    H124275   1.601   5.945   5.478  0.3130  1.7305 -0.2264
  928TIP3    H224276   1.491   5.859   5.536  0.4859  0.0304 -2.3088
  929TIP3   OH224277   4.278   5.077  15.741 -0.6882  0.5742  0.4070
  929TIP3    H124278   4.269   5.172  15.733  1.1877  0.9818  2.3008
  929TIP3    H224279   4.206   5.051  15.798 -1.1585  0.8509 -0.0471
  930TIP3   OH224280   4.745   0.696  15.611  0.3016  1.1424 -0.6535
  930TIP3    H124281   4.731   0.631  15.680  2.5019  0.2155 -0.9961
  930TIP3    H224282   4.691   0.770  15.637 -0.3759  0.1154  1.0637
  931TIP3   OH224283   0.571   2.834  14.407  0.1610  0.2899  0.6694
  931TIP3    H124284   0.539   2.770  14.471 -1.1533 -0.5807 -0.8077
  931TIP3    H224285   0.550   2.796  14.322  1.9271  1.3928 -0.3189
  932TIP3   OH224286   5.857   0.276   1.107  0.1462 -0.0215 -0.6203
  932TIP3    H124287   5.921   0.237   1.047  1.2649  3.3791 -1.8655
  932TIP3    H224288   5.802   0.331   1.052 -2.2197 -0.7950  0.8315
  933TIP3   OH224289   5.454   6.251  13.693 -0.6540  0.3356 -0.0954
  933TIP3    H124290   5.475   6.337  13.728 -0.7231  0.1188  0.5031
  933TIP3    H224291   5.521   6.193  13.731 -0.5306  0.1478 -0.5923
  934TIP3   OH224292   2.256   2.573   3.537  0.0877  0.1237  0.1677
  934TIP3    H124293   2.191   2.505   3.556 -0.5799  1.0595  1.3900
  934TIP3    H224294   2.250   2.633   3.612  1.5684  0.8372 -0.2557
  935TIP3   OH224295   5.399   5.166   1.215 -0.0298 -0.2684 -0.2049
  935TIP3    H124296   5.411   5.231   1.284 -0.5573 -1.3137  0.9121
  935TIP3    H224297   5.325   5.113   1.244  0.6191 -1.6058 -0.8902
  936TIP3   OH224298   3.137   1.114  14.803 -0.3228  0.2592  0.3569
  936TIP3    H124299   3.216   1.144  14.849  0.1250  0.5332 -0.5665
  936TIP3    H224300   3.092   1.059  14.867 -0.4285  1.7315  1.6164
  937TIP3   OH224301   3.951   3.754  13.506 -0.4185  0.5280 -0.9284
  937TIP3    H124302   3.957   3.768  13.601 -1.8069  2.3843 -1.0601
  937TIP3    H224303   4.011   3.819  13.469  0.7897 -0.7774 -1.3415
  938TIP3   OH224304   3.493   0.146   0.179  0.0887 -0.7823 -0.1568
  938TIP3    H124305   3.456   0.114   0.261  1.0717  0.7423  0.9407
  938TIP3    H224306   3.427   0.127   0.113 -0.9365 -1.6057  1.0688
  939TIP3   OH224307   6.537   0.049   5.313 -0.6176  0.2997  0.2873
  939TIP3    H124308   6.633   0.043   5.313 -0.4280  2.1016  2.5986
  939TIP3    H224309   6.508  -0.038   5.286  1.6366 -0.0177 -1.4247
  940TIP3   OH224310   6.033   1.126  13.048  0.4661  0.0622  0.1965
  940TIP3    H124311   6.108   1.111  12.991  1.4845  0.2568  1.4380
  940TIP3    H224312   5.961   1.143  12.988  0.8385 -2.4732 -1.1245
  941TIP3   OH224313   5.270   6.616  14.294 -0.0517 -0.3096  0.2756
  941TIP3    H124314   5.217   6.546  14.332  0.5468 -1.2156 -0.5139
  941TIP3    H224315   5.321   6.573  14.225 -0.9923  1.2410 -1.4743
  942TIP3   OH224316   3.850   3.858   3.364  0.0217 -0.1471  0.6142
  942TIP3    H124317   3.805   3.880   3.283  0.9825 -0.8063 -0.1228
  942TIP3    H224318   3.872   3.943   3.403 -1.1703  0.1774  0.6181
  943TIP3   OH224319   6.461   3.791  16.063 -0.6300 -0.1360  0.3257
  943TIP3    H124320   6.544   3.781  16.016  0.0933  0.3016  1.4602
  943TIP3    H224321   6.415   3.708  16.050  0.3937 -0.7327  0.4445
  944TIP3   OH224322   2.749   1.809   3.469  0.3773  0.7452  0.5016
  944TIP3    H124323   2.841   1.831   3.488  1.2313 -0.8290 -1.4104
  944TIP3    H224324   2.744   1.715   3.487  0.2181 -0.0038 -2.9035
  945TIP3   OH224325   1.547   5.576   3.661  0.6861  0.4662  0.2960
  945TIP3    H124326   1.586   5.602   3.745  1.2970 -2.8233  1.1794
  945TIP3    H224327   1.481   5.510   3.685 -0.7969  1.1308 -1.6962
  946TIP3   OH224328   6.688   1.751   2.032 -0.1954 -0.2595 -0.5125
  946TIP3    H124329   6.727   1.677   2.080  1.1250  0.1772 -0.8754
  946TIP3    H224330   6.626   1.789   2.094  1.1349  0.0075  0.7093
  947TIP3   OH224331   4.428   3.181   2.843 -0.0344  0.6890  0.0756
  947TIP3    H124332   4.523   3.170   2.855 -0.3668  0.0826  2.6336
  947TIP3    H224333   4.389   3.140   2.920 -2.4391  0.4204 -1.1981
  948TIP3   OH224334   5.861   6.639   1.841  0.1862 -0.6042  0.0828
  948TIP3    H124335   5.770   6.614   1.821  0.0304 -1.1141  1.3105
  948TIP3    H224336   5.853   6.715   1.898  0.6012  0.5598 -1.3646
  949TIP3   OH224337   6.586   3.074  14.203  0.2893 -0.0246  0.4071
  949TIP3    H124338   6.642   3.047  14.131  0.3489  0.2209  0.3596
  949TIP3    H224339   6.556   2.992  14.242  0.1104 -0.1601 -0.0075
  950TIP3   OH224340   5.755   2.124   2.803  0.2652 -0.1758  0.6050
  950TIP3    H124341   5.681   2.066   2.785  0.2240  1.0294 -5.3823
  950TIP3    H224342   5.832   2.067   2.799 -0.0497 -0.5868  0.3861
  951TIP3   OH224343   5.716   0.941  11.607  0.2718 -0.0137 -0.0237
  951TIP3    H124344   5.797   0.890  11.606  0.6573  0.5742  0.2676
  951TIP3    H224345   5.684   0.937  11.517  0.4927 -0.4587 -0.0845
  952TIP3   OH224346   6.476   1.894  16.106 -0.2860 -0.4041  0.2511
  952TIP3    H124347   6.433   1.817  16.143  0.0956 -0.2172  1.1077
  952TIP3    H224348   6.540   1.921  16.173  0.6942 -0.2805 -0.7033
  953TIP3   OH224349   3.971   5.484  16.345  0.3723 -0.3414  0.3136
  953TIP3    H124350   3.930   5.565  16.315  1.2177  0.0177  0.0784
  953TIP3    H224351   3.904   5.441  16.398 -0.9680 -0.7272 -1.6248
  954TIP3   OH224352   1.613   0.902  13.027 -0.9295 -0.2271  0.2185
  954TIP3    H124353   1.586   0.994  13.029  3.1531  1.2328 -1.2619
  954TIP3    H224354   1.660   0.889  13.110  0.5183 -0.1542 -0.5504
  955TIP3   OH224355   3.048   2.341  14.533  0.5038  0.0847 -0.0356
  955TIP3    H124356   2.955   2.323  14.525  0.4003  0.5267  0.1906
  955TIP3    H224357   3.054   2.430  14.568  1.0040 -0.0572  0.2686
  956TIP3   OH224358   4.277   4.742  10.919  0.0183  0.1176 -0.1746
  956TIP3    H124359   4.189   4.761  10.886  0.3473  1.5913 -0.2670
  956TIP3    H224360   4.315   4.684  10.853 -1.0885 -1.0525  0.1873
  957TIP3   OH224361   0.744   1.618   4.743 -0.4492 -0.4134  0.1311
  957TIP3    H124362   0.737   1.693   4.801  0.6988 -0.2408  0.0780
  957TIP3    H224363   0.698   1.548   4.789  0.5023 -0.3023  1.3118
  958TIP3   OH224364   6.282   2.890   2.679 -0.0293  0.0601 -0.3678
  958TIP3    H124365   6.189   2.876   2.660 -0.1774  1.0168 -0.4234
  958TIP3    H224366   6.327   2.822   2.630 -0.5939  0.6282 -1.7303
  959TIP3   OH224367   4.116   2.607   4.590 -0.1403  0.0085 -0.0253
  959TIP3    H124368   4.190   2.607   4.650  0.6374  1.8862 -0.8994
  959TIP3    H224369   4.066   2.686   4.613 -1.9148 -1.2347  0.5626
  960TIP3   OH224370   1.811   0.046   4.888  0.1261 -0.1104 -0.5345
  960TIP3    H124371   1.780  -0.031   4.841 -0.0442 -0.5845  0.3317
  960TIP3    H224372   1.851   0.011   4.968  0.1327  0.6915 -0.1747
  961TIP3   OH224373   6.336   6.256   1.413 -0.1636 -0.2534  0.0677
  961TIP3    H124374   6.292   6.171   1.414 -1.4533  0.3601 -0.9162
  961TIP3    H224375   6.307   6.299   1.493 -0.6808 -0.1916 -0.1479
  962TIP3   OH224376   2.606   2.778  11.922  0.0153  0.0904 -0.3533
  962TIP3    H124377   2.576   2.707  11.865  0.3980  0.4633 -1.0243
  962TIP3    H224378   2.535   2.842  11.920  0.2118  0.2965 -0.7519
  963TIP3   OH224379   6.433   6.704  13.835 -1.0116 -0.1446 -0.3873
  963TIP3    H124380   6.384   6.786  13.825 -0.0761  0.4779  0.0088
  963TIP3    H224381   6.417   6.678  13.926  0.9118  1.0855  0.3413
  964TIP3   OH224382   6.414   1.760  14.495  0.1009  0.6672  0.4568
  964TIP3    H124383   6.421   1.821  14.569  0.0437  1.3607 -0.0953
  964TIP3    H224384   6.357   1.690  14.527 -0.9711  1.6009  0.6564
  965TIP3   OH224385   1.118   4.484  15.395 -0.7148 -0.0324 -0.1175
  965TIP3    H124386   1.142   4.567  15.354 -0.9584  0.5896  0.9357
  965TIP3    H224387   1.123   4.502  15.489 -0.8071 -1.2071  0.1300
  966TIP3   OH224388   4.558   4.710   6.113 -0.0523  0.0579 -0.1174
  966TIP3    H124389   4.611   4.715   6.033  1.6793  0.0790  0.9872
  966TIP3    H224390   4.608   4.653   6.172 -1.7439 -0.7028  0.6487
  967TIP3   OH224391   3.921   5.912  14.532 -0.2883  0.0568 -0.4625
  967TIP3    H124392   4.014   5.933  14.524 -0.0687 -0.6759  0.1309
  967TIP3    H224393   3.888   5.919  14.442  0.2965  0.4737 -0.6568
  968TIP3   OH224394   3.539   2.904   3.786  0.1867  0.3623  0.3443
  968TIP3    H124395   3.467   2.902   3.722  0.1008  0.7464  0.4264
  968TIP3    H224396   3.618   2.893   3.734  0.0758  0.0121  0.2448
  969TIP3   OH224397   4.431   0.190  16.285 -0.1234 -0.1916  0.3447
  969TIP3    H124398   4.423   0.120  16.220 -1.4802 -1.0537  1.3814
  969TIP3    H224399   4.362   0.252  16.262  2.2621  1.9090 -1.7375
  970TIP3   OH224400   4.531   6.571  11.896 -0.1395 -0.3493  0.3481
  970TIP3    H124401   4.499   6.497  11.845  0.9288 -1.3382  1.0750
  970TIP3    H224402   4.544   6.536  11.984 -0.4305  0.9214  0.9174
  971TIP3   OH224403   5.500   3.728   0.373  0.2937  0.2616  0.6250
  971TIP3    H124404   5.447   3.701   0.298  2.4919 -1.3735 -0.4664
  971TIP3    H224405   5.471   3.670   0.444 -0.3846  0.3948  0.4615
  972TIP3   OH224406   6.378   4.026  14.547  0.5933 -0.0500 -0.5179
  972TIP3    H124407   6.308   4.051  14.607  1.2113 -3.6269  1.9505
  972TIP3    H224408   6.456   4.069  14.582  0.8292 -1.6121  0.9977
  973TIP3   OH224409   6.805   2.969  16.443 -0.1852 -0.6716 -0.3586
  973TIP3    H124410   6.709   2.966  16.443 -0.2212  0.0473  0.5603
  973TIP3    H224411   6.829   2.951  16.534  0.5462 -0.7070 -0.5577
  974TIP3   OH224412   2.022   3.761   1.528 -0.1612 -0.3526 -0.1264
  974TIP3    H124413   2.097   3.762   1.468  0.1004  2.8853  0.0623
  974TIP3    H224414   2.061   3.763   1.616 -0.5587 -3.2019  0.2262
  975TIP3   OH224415   1.696   5.600   1.140  0.1854  0.8756 -0.5003
  975TIP3    H124416   1.732   5.626   1.225 -1.5549 -1.4338  1.0933
  975TIP3    H224417   1.602   5.589   1.157 -0.2529  0.6159 -2.8210
  976TIP3   OH224418   1.532   1.002   0.687 -0.7259 -0.1883 -0.3730
  976TIP3    H124419   1.591   0.928   0.699 -2.4587 -1.7329 -0.9261
  976TIP3    H224420   1.524   1.040   0.774  0.4874 -0.3859 -0.1515
  977TIP3   OH224421   0.079   1.574  15.636  0.3970  0.1553  0.7197
  977TIP3    H124422   0.085   1.614  15.549 -0.7125 -0.0052  0.5542
  977TIP3    H224423   0.051   1.646  15.693  0.4840  0.1078  0.8224
  978TIP3   OH224424   0.290   5.741   1.237  0.0045 -0.3484  0.8096
  978TIP3    H124425   0.240   5.774   1.312 -0.9336 -0.7995  0.4043
  978TIP3    H224426   0.365   5.801   1.230  0.4258 -0.6388  2.4349
  979TIP3   OH224427   3.215   0.410   2.097 -0.1298  1.0380 -0.2811
  979TIP3    H124428   3.162   0.488   2.077  0.9210  1.9143  0.2728
  979TIP3    H224429   3.299   0.427   2.056 -0.4760 -0.6888 -1.7963
  980TIP3   OH224430   0.087   0.142  12.071 -0.5595  0.1583 -0.2896
  980TIP3    H124431   0.029   0.178  12.004 -0.6655 -0.5000 -0.5654
  980TIP3    H224432   0.175   0.152  12.034 -0.6994 -1.4629 -1.1908
  981TIP3   OH224433   4.525   0.555   6.507 -0.2858 -0.4480  0.6471
  981TIP3    H124434   4.472   0.478   6.486  0.2086 -0.4519 -0.7006
  981TIP3    H224435   4.467   0.611   6.558 -1.7790 -0.2526 -1.1661
  982TIP3   OH224436   6.694   0.737   6.499  0.3149  0.8775 -0.5798
  982TIP3    H124437   6.696   0.662   6.440  0.9915 -1.2127  1.9271
  982TIP3    H224438   6.777   0.782   6.484  1.8459 -1.3330  0.7417
  983TIP3   OH224439   3.297   5.888  15.479  0.1093  0.4601  0.3948
  983TIP3    H124440   3.354   5.933  15.416 -0.7415 -1.0223 -1.5803
  983TIP3    H224441   3.356   5.862  15.550  1.7268 -0.0280 -1.0328
  984TIP3   OH224442   6.148   3.465   4.993  0.0433 -0.2644 -0.0754
  984TIP3    H124443   6.068   3.507   5.023  0.6016  0.5534  0.3152
  984TIP3    H224444   6.181   3.419   5.071 -0.0459 -0.5919 -0.2322
  985TIP3   OH224445   6.758   3.275  14.798  0.2429 -0.2850  0.1725
  985TIP3    H124446   6.728   3.213  14.732  0.0088 -0.9369  0.8774
  985TIP3    H224447   6.809   3.222  14.860  0.6488  0.3496  0.3971
  986TIP3   OH224448   3.213   6.255  15.361  0.1692  0.2123 -0.2647
  986TIP3    H124449   3.260   6.203  15.426  1.0835  0.5215 -0.6506
  986TIP3    H224450   3.129   6.276  15.402  1.3427  1.7833  1.5163
  987TIP3   OH224451   1.466   2.048   0.137  0.4040 -0.2610  0.3888
  987TIP3    H124452   1.461   2.130   0.185 -0.6244 -0.5416  0.7937
  987TIP3    H224453   1.544   2.005   0.170  0.7207  0.3725  0.4670
  988TIP3   OH224454   5.456   4.693   6.691  0.0824 -0.0816 -0.3272
  988TIP3    H124455   5.550   4.701   6.674  0.1112  1.2646  0.3199
  988TIP3    H224456   5.427   4.621   6.635  1.4142 -0.2027 -0.8866
  989TIP3   OH224457   2.262   3.272   2.968 -0.8951 -0.6641 -0.1679
  989TIP3    H124458   2.324   3.288   3.038 -0.4276 -1.3702 -0.4035
  989TIP3    H224459   2.230   3.183   2.985 -2.2277 -0.1282  0.2376
  990TIP3   OH224460   4.226   1.567   1.334  0.1665 -0.2189  0.3865
  990TIP3    H124461   4.134   1.570   1.361  0.2813  1.6302  0.7615
  990TIP3    H224462   4.274   1.579   1.416  0.6170  2.0344 -0.1459
  991TIP3   OH224463   4.378   2.159   3.296 -0.0565 -0.0030 -0.3930
  991TIP3    H124464   4.284   2.172   3.291 -0.0373  0.1692 -0.3291
  991TIP3    H224465   4.392   2.111   3.378 -0.0898 -0.0360 -0.4070
  992TIP3   OH224466   1.362   4.570  14.666 -0.3981  0.0841 -0.5778
  992TIP3    H124467   1.327   4.500  14.723  0.2357  2.0629  2.5043
  992TIP3    H224468   1.452   4.542  14.648 -0.7223 -0.7622 -0.9383
  993TIP3   OH224469   2.003   4.772  14.319  0.1673  0.2194 -0.0902
  993TIP3    H124470   2.075   4.790  14.379 -0.0840 -0.5453  0.4550
  993TIP3    H224471   1.928   4.816  14.358  0.3568  1.1683 -0.7509
  994TIP3   OH224472   1.287   5.896  12.520 -0.4294 -0.4341 -0.1477
  994TIP3    H124473   1.244   5.832  12.577 -0.6909 -1.5869 -1.5800
  994TIP3    H224474   1.228   5.904  12.444  1.1948 -1.0494 -1.5470
  995TIP3   OH224475   1.471   1.644  16.444  0.1668  0.4488 -0.1585
  995TIP3    H124476   1.529   1.667  16.371 -0.1869  0.2719 -0.4972
  995TIP3    H224477   1.489   1.551  16.459 -1.0183  0.0221 -1.1832
  996TIP3   OH224478   2.740   3.020   1.422  0.3879  0.2002 -0.1678
  996TIP3    H124479   2.806   2.960   1.457  0.3830  0.4567  0.2994
  996TIP3    H224480   2.791   3.090   1.381  0.4546  0.8954  1.0218
  997TIP3   OH224481   2.080   6.484   0.178 -0.2690 -0.1300 -0.4861
  997TIP3    H124482   1.999   6.445   0.212  1.0553 -2.2454  0.4376
  997TIP3    H224483   2.124   6.412   0.133  0.1543  1.5128 -2.8931
  998TIP3   OH224484   6.267   1.577   2.720  0.2346  0.1448 -0.1376
  998TIP3    H124485   6.341   1.517   2.724 -0.4859 -0.6715  1.9782
  998TIP3    H224486   6.250   1.602   2.811 -1.9288  0.5040 -0.5711
  999TIP3   OH224487   2.856   0.320   5.439 -0.8441 -0.0975  0.3502
  999TIP3    H124488   2.922   0.295   5.504 -1.4538 -1.7160  0.3977
  999TIP3    H224489   2.887   0.403   5.403 -0.8224  1.2400  3.1936
 1000TIP3   OH224490   3.167   6.718   3.288 -0.1696 -0.2969 -0.3418
 1000TIP3    H124491   3.159   6.630   3.251 -0.4838  0.3667 -1.9259
 1000TIP3    H224492   3.078   6.753   3.285  0.1808  0.5646 -1.0061
 1001TIP3   OH224493   4.817   3.982   3.715  0.3620  0.2131 -0.3110
 1001TIP3    H124494   4.883   3.946   3.774  0.2021 -1.2637 -1.0068
 1001TIP3    H224495   4.734   3.959   3.755  0.2561 -0.2204 -0.7777
 1002TIP3   OH224496   5.964   3.254   1.984  0.0941  0.3390  0.5309
 1002TIP3    H124497   5.918   3.178   1.947  0.5504  0.7821 -1.0043
 1002TIP3    H224498   5.910   3.329   1.960  1.7611  0.9216 -1.7215
 1003TIP3   OH224499   5.422   6.550   3.849  0.2104 -0.1826 -0.4084
 1003TIP3    H124500   5.425   6.623   3.787 -1.5830  1.5056  1.3391
 1003TIP3    H224501   5.332   6.519   3.846 -0.2655  0.7181  2.0868
 1004TIP3   OH224502   4.560   3.085  11.587  0.2377 -0.0097  0.6410
 1004TIP3    H124503   4.572   3.140  11.664  1.7846  0.7986 -0.1267
 1004TIP3    H224504   4.472   3.049  11.597  0.5259 -0.2392  2.9585
 1005TIP3   OH224505   4.817   1.671   4.865 -0.2509 -0.7117 -0.2774
 1005TIP3    H124506   4.794   1.579   4.878  0.7291 -1.2402 -1.9870
 1005TIP3    H224507   4.839   1.677   4.772 -0.5970  1.3297 -0.2619
 1006TIP3   OH224508   0.447   4.312   4.672  0.3007 -0.1988  0.0181
 1006TIP3    H124509   0.481   4.391   4.630 -0.4926  0.2111  0.1234
 1006TIP3    H224510   0.415   4.257   4.600  2.3448 -1.1875 -0.1983
 1007TIP3   OH224511   0.081   0.897   0.053  0.4362  0.6201  0.8297
 1007TIP3    H124512   0.078   0.991   0.033  0.3151  0.7072  1.2499
 1007TIP3    H224513   0.160   0.886   0.106  1.5471  0.1581 -0.8336
 1008TIP3   OH224514   2.325   5.207   1.056  0.2597  0.1696  0.7257
 1008TIP3    H124515   2.356   5.297   1.045  0.2824  0.5808  3.5144
 1008TIP3    H224516   2.236   5.208   1.020 -0.5417  1.9299  2.5135
 1009TIP3   OH224517   6.203   4.404   0.559  0.4148 -0.0104 -0.1152
 1009TIP3    H124518   6.122   4.365   0.593  0.2442  0.0497 -0.4538
 1009TIP3    H224519   6.241   4.335   0.505  0.8829 -0.2439  0.4996
 1010TIP3   OH224520   1.780   2.727  14.116  0.1365  0.5057  0.0704
 1010TIP3    H124521   1.696   2.740  14.161 -0.7629  1.9352 -1.8295
 1010TIP3    H224522   1.840   2.787  14.160  0.1030 -0.3150  1.2651
 1011TIP3   OH224523   5.316   5.584   1.942  0.7122  0.0272 -0.2042
 1011TIP3    H124524   5.391   5.525   1.933 -0.1588 -1.6426  2.1886
 1011TIP3    H224525   5.318   5.610   2.034 -1.4675  0.1430 -0.1393
 1012TIP3   OH224526   1.168   3.423   4.147  0.2060 -0.6474  0.5026
 1012TIP3    H124527   1.127   3.507   4.170  0.5477 -1.0486  2.7162
 1012TIP3    H224528   1.232   3.446   4.079 -1.7911  0.3817 -1.1348
 1013TIP3   OH224529   1.629   1.253  12.217 -0.0246 -0.3176 -1.0076
 1013TIP3    H124530   1.591   1.331  12.257  0.6795  0.7549 -2.3757
 1013TIP3    H224531   1.679   1.212  12.289 -0.7996  0.1943 -0.1534
 1014TIP3   OH224532   5.458   4.299   5.412 -0.5074  0.2435  0.7648
 1014TIP3    H124533   5.477   4.386   5.374 -0.2278 -0.0399  0.2379
 1014TIP3    H224534   5.537   4.277   5.462  0.1234 -0.4294 -0.4785
 1015TIP3   OH224535   6.574   1.226   2.514 -0.3360 -0.0361 -0.0414
 1015TIP3    H124536   6.643   1.181   2.562 -0.1099 -0.3823 -0.6762
 1015TIP3    H224537   6.571   1.181   2.429  0.6858  1.8641 -1.1419
 1016TIP3   OH224538   5.007   5.532   1.630 -0.3342 -0.2014 -0.3703
 1016TIP3    H124539   5.094   5.522   1.668 -0.3438  0.1222 -0.2599
 1016TIP3    H224540   4.949   5.481   1.687 -0.4099  0.5919  0.2794
 1017TIP3   OH224541   6.289   1.056  12.243 -0.0691  0.1076 -0.8742
 1017TIP3    H124542   6.270   1.086  12.332  0.7942  1.2794 -1.0602
 1017TIP3    H224543   6.214   1.083  12.191 -0.5813 -0.5888 -0.5221
 1018TIP3   OH224544   4.025   0.412  15.105  0.1485 -0.4417 -0.2593
 1018TIP3    H124545   4.087   0.399  15.176  0.8750 -1.5829 -1.0760
 1018TIP3    H224546   4.079   0.431  15.029 -0.6492  1.7750 -0.3662
 1019TIP3   OH224547   6.365   0.224  12.776  0.3071  0.0337 -0.4352
 1019TIP3    H124548   6.293   0.282  12.800 -0.6345 -1.1669 -0.2178
 1019TIP3    H224549   6.390   0.183  12.859  1.4576  0.6633 -0.4613
 1020TIP3   OH224550   6.337   2.288   5.099  0.0538 -0.4283  0.4351
 1020TIP3    H124551   6.392   2.217   5.134 -0.0031 -0.0824  1.2422
 1020TIP3    H224552   6.257   2.284   5.152  0.6803  1.2460  1.5709
 1021TIP3   OH224553   6.788   5.589  11.863  0.4043 -0.1544 -0.1782
 1021TIP3    H124554   6.782   5.495  11.880  1.9071 -0.7154 -2.2969
 1021TIP3    H224555   6.878   5.612  11.887  0.9223  0.1062 -2.2039
 1022TIP3   OH224556   4.586   3.018  11.085  0.6440  0.0409 -0.2506
 1022TIP3    H124557   4.580   3.111  11.106  0.3925  0.1823 -0.9453
 1022TIP3    H224558   4.498   2.983  11.102  0.4234  0.1663 -1.0836
 1023TIP3   OH224559   4.288   6.638   5.436 -0.3054 -0.0118 -0.6323
 1023TIP3    H124560   4.216   6.577   5.419 -0.6389  0.2518 -0.2025
 1023TIP3    H224561   4.296   6.640   5.532  0.0855  0.1773 -0.6641
 1024TIP3   OH224562   3.881   0.361   3.431 -0.5371 -0.0922 -0.3258
 1024TIP3    H124563   3.789   0.383   3.438 -0.8351 -0.9118 -1.4698
 1024TIP3    H224564   3.883   0.266   3.419  0.4626 -0.1093 -0.1579
 1025TIP3   OH224565   3.246   4.035  11.399 -0.4575 -0.2989 -0.3055
 1025TIP3    H124566   3.335   4.056  11.371 -0.7263 -0.3600 -1.2377
 1025TIP3    H224567   3.240   4.071  11.488  0.1552  0.6594 -0.6369
 1026TIP3   OH224568   2.225   4.088   5.253  0.1085 -0.2657  0.1351
 1026TIP3    H124569   2.295   4.023   5.239  2.4171  1.9552  0.5126
 1026TIP3    H224570   2.193   4.069   5.341 -0.7145 -2.1029 -0.5034
 1027TIP3   OH224571   1.237   1.945   6.484 -0.6070  0.6749  0.2946
 1027TIP3    H124572   1.194   1.863   6.509  0.7872 -0.6067 -1.3144
 1027TIP3    H224573   1.167   1.998   6.446 -1.2210 -0.4226 -0.1530
 1028TIP3   OH224574   4.173   5.670  13.452  0.3943  0.0006  0.6140
 1028TIP3    H124575   4.166   5.644  13.544  1.3288  0.4461  0.8210
 1028TIP3    H224576   4.251   5.625  13.420  1.2257  1.3871  0.5976
 1029TIP3   OH224577   6.577   3.470  16.369 -0.4075  0.1061 -0.2325
 1029TIP3    H124578   6.546   3.380  16.362 -1.8010  0.5108  0.3789
 1029TIP3    H224579   6.535   3.504  16.448  2.0233  0.5679  0.9597
 1030TIP3   OH224580   2.358   5.241   1.906 -0.4055 -0.2313  0.6598
 1030TIP3    H124581   2.369   5.231   1.812 -0.1871  1.5892  0.4491
 1030TIP3    H224582   2.437   5.286   1.936 -0.5063 -0.7050  1.7127
 1031TIP3   OH224583   2.801   1.712  12.680  0.0482 -0.4426  0.6591
 1031TIP3    H124584   2.744   1.736  12.753 -0.2912  0.4214  0.1292
 1031TIP3    H224585   2.747   1.657  12.624 -0.3358  0.5186  0.0696
 1032TIP3   OH224586   4.349   2.115  13.059 -0.1574  0.5961 -0.2567
 1032TIP3    H124587   4.374   2.070  12.979  2.7446  0.2681  0.7085
 1032TIP3    H224588   4.286   2.057  13.102  0.1914 -0.4198 -1.0929
 1033TIP3   OH224589   2.792   5.939   5.504 -0.1389 -0.4012  0.6313
 1033TIP3    H124590   2.785   6.010   5.440  0.0866 -0.9809 -0.0587
 1033TIP3    H224591   2.702   5.923   5.532 -0.3904 -0.8911 -0.3995
 1034TIP3   OH224592   5.632   5.529  14.086  0.1179  0.3464 -0.4575
 1034TIP3    H124593   5.726   5.516  14.095  0.2735  1.9499  0.5972
 1034TIP3    H224594   5.620   5.547  13.992  0.5376 -1.8052 -0.9904
 1035TIP3   OH224595   4.469   0.039   0.601  0.1251  0.0593  0.1423
 1035TIP3    H124596   4.415   0.079   0.533  0.5951 -0.8709 -0.7979
 1035TIP3    H224597   4.545   0.004   0.555  0.2675 -0.9344  1.0814
 1036TIP3   OH224598   3.135   3.644   3.920 -1.0025 -0.1466  0.0249
 1036TIP3    H124599   3.130   3.576   3.987 -0.5781 -0.9645 -0.7643
 1036TIP3    H224600   3.229   3.658   3.907 -1.0765 -0.2569 -0.6579
 1037TIP3   OH224601   6.560   6.166   4.964 -0.0589  0.1789  0.1636
 1037TIP3    H124602   6.643   6.137   5.000 -0.0732 -0.4303 -0.2771
 1037TIP3    H224603   6.576   6.256   4.935  0.3286  0.1989  0.4393
 1038TIP3   OH224604   3.614   5.818   5.267 -0.6997 -0.9349 -0.0072
 1038TIP3    H124605   3.605   5.764   5.346 -0.3354  0.5196  1.0696
 1038TIP3    H224606   3.705   5.808   5.242 -0.5025 -0.4421  0.4920
 1039TIP3   OH224607   3.022   5.575   0.014 -0.2123 -0.6845  0.4962
 1039TIP3    H124608   2.990   5.641  -0.047  1.3410 -1.0346 -0.7546
 1039TIP3    H224609   3.106   5.609   0.044 -0.5992 -0.8862  1.8832
 1040TIP3   OH224610   3.450   5.511  11.685 -0.0711  0.4773  0.3030
 1040TIP3    H124611   3.418   5.498  11.774  0.0004  0.3805  0.3150
 1040TIP3    H224612   3.405   5.589  11.655  0.5046  0.9843  0.7146
 1041TIP3   OH224613   1.544   5.644  13.770 -0.4828  0.4816 -0.2305
 1041TIP3    H124614   1.453   5.634  13.742 -0.9110 -1.2585  1.5276
 1041TIP3    H224615   1.543   5.621  13.863  1.7880  0.1534 -0.2293
 1042TIP3   OH224616   4.337   2.483   0.036 -0.2699 -0.2076  0.0264
 1042TIP3    H124617   4.323   2.389   0.049  0.6904 -0.5381 -1.1329
 1042TIP3    H224618   4.391   2.510   0.110 -1.5475 -0.2889  1.0240
 1043TIP3   OH224619   2.460   2.195   6.073 -0.5791 -0.1800  0.4082
 1043TIP3    H124620   2.528   2.254   6.107 -0.5282  1.7070 -2.5825
 1043TIP3    H224621   2.378   2.243   6.084 -1.2714 -1.6205  2.1746
 1044TIP3   OH224622   4.768   3.686  13.500  0.5014  0.3191  0.4714
 1044TIP3    H124623   4.843   3.700  13.442 -0.1939 -0.3908 -0.6551
 1044TIP3    H224624   4.701   3.748  13.469 -0.3148 -0.9084 -0.3673
 1045TIP3   OH224625   0.722   4.132   3.836 -0.2492 -0.3622  0.2909
 1045TIP3    H124626   0.782   4.142   3.762  0.2454 -0.9694  0.5966
 1045TIP3    H224627   0.635   4.139   3.798 -0.0957 -3.0728 -0.7952
 1046TIP3   OH224628   6.718   3.620   4.049  0.1265  0.4643  0.1526
 1046TIP3    H124629   6.769   3.646   3.973 -1.0208  0.9473 -0.4757
 1046TIP3    H224630   6.634   3.591   4.013 -1.2753  2.7752  1.3253
 1047TIP3   OH224631   0.713   1.368  12.327  0.0657 -0.3840 -0.0667
 1047TIP3    H124632   0.619   1.376  12.312 -0.0313 -1.9677 -0.5337
 1047TIP3    H224633   0.731   1.274  12.318  1.1795 -0.5965  3.0992
 1048TIP3   OH224634   1.053   0.152   1.292 -0.9386  0.2458 -0.5359
 1048TIP3    H124635   1.008   0.107   1.220 -0.9481 -1.0420  0.2444
 1048TIP3    H224636   1.146   0.143   1.272 -0.9184  2.7568 -2.0573
 1049TIP3   OH224637   0.878   5.622  12.798 -0.1878  0.1369 -0.3454
 1049TIP3    H124638   0.792   5.661  12.782  0.0688  1.0948  0.5360
 1049TIP3    H224639   0.929   5.643  12.720  0.3126  2.6463  0.5822
 1050TIP3   OH224640   0.061   5.985  12.378  0.1335  0.2235  0.3647
 1050TIP3    H124641   0.023   6.048  12.440  1.3430  0.1567  1.2095
 1050TIP3    H224642   0.011   5.997  12.298  0.1836  2.1148  0.5780
 1051TIP3   OH224643   5.057   2.021   1.406 -0.1674  0.7169  0.3944
 1051TIP3    H124644   5.087   2.108   1.380  1.1046  0.1335 -0.1779
 1051TIP3    H224645   4.962   2.026   1.401 -0.2084  2.5653  2.0001
 1052TIP3   OH224646   1.879   0.933   0.457  0.5881  0.4296  0.4106
 1052TIP3    H124647   1.875   1.022   0.421 -0.9888 -0.9941 -3.5744
 1052TIP3    H224648   1.793   0.895   0.435  1.7412 -2.5214  0.5425
 1053TIP3   OH224649   6.743   6.306  11.222 -0.5138  0.4657 -0.2496
 1053TIP3    H124650   6.679   6.293  11.292 -0.4360  0.4512 -0.1809
 1053TIP3    H224651   6.721   6.240  11.157 -0.8269  0.7285 -0.4123
 1054TIP3   OH224652   1.672   4.144  15.204  0.2035 -0.0032 -0.0869
 1054TIP3    H124653   1.667   4.073  15.268 -0.0471  1.3367  1.4450
 1054TIP3    H224654   1.756   4.187  15.223 -0.1703  0.8056 -0.2198
 1055TIP3   OH224655   2.219   6.533  11.210 -0.0727 -0.2720 -0.5386
 1055TIP3    H124656   2.150   6.546  11.274  0.8490 -0.9082  0.6186
 1055TIP3    H224657   2.179   6.481  11.141 -1.2327  0.8875 -0.7823
 1056TIP3   OH224658   0.514   3.022  12.154  0.1018  0.2142 -0.2944
 1056TIP3    H124659   0.602   3.050  12.129  1.3259 -2.9609 -0.0125
 1056TIP3    H224660   0.459   3.048  12.081  1.4105  1.5916 -0.8403
 1057TIP3   OH224661   1.046   0.467  15.877 -0.0211  0.0143  0.2499
 1057TIP3    H124662   1.136   0.501  15.870  0.2660 -0.8831 -0.6504
 1057TIP3    H224663   1.051   0.378  15.842 -1.4323  0.2371 -0.6071
 1058TIP3   OH224664   0.533   5.219  12.267 -0.2824 -0.0532  0.1706
 1058TIP3    H124665   0.534   5.172  12.350  0.1692  0.3234  0.3782
 1058TIP3    H224666   0.599   5.287  12.276 -0.5821  0.3106 -0.3129
 1059TIP3   OH224667   3.532   5.733  13.945 -0.4887 -0.6072  0.0710
 1059TIP3    H124668   3.583   5.732  13.864 -0.9984 -1.5600 -0.2537
 1059TIP3    H224669   3.579   5.673  14.004 -0.3698 -0.2683  0.3221
 1060TIP3   OH224670   3.230   4.247  14.224  0.4465  0.0679  0.0693
 1060TIP3    H124671   3.174   4.169  14.226 -0.7705  0.8796 -0.9089
 1060TIP3    H224672   3.169   4.320  14.234  1.6617  0.8934  1.9609
 1061TIP3   OH224673   3.672   6.048   2.705 -0.2070 -0.0184 -0.2704
 1061TIP3    H124674   3.611   6.000   2.649  0.4684 -0.2588 -0.8244
 1061TIP3    H224675   3.645   6.140   2.696 -0.5613 -0.1331 -0.4090
 1062TIP3   OH224676   2.437   6.567  14.768  0.0941  0.0488 -0.3893
 1062TIP3    H124677   2.469   6.640  14.715 -0.1536  1.0330  0.7715
 1062TIP3    H224678   2.343   6.564  14.750  0.1083 -0.0048 -0.4555
 1063TIP3   OH224679   3.480   2.315  16.049 -0.2295  0.3180  0.3833
 1063TIP3    H124680   3.551   2.250  16.056  0.6290  1.2630  0.8311
 1063TIP3    H224681   3.422   2.294  16.122  0.1522  0.1659  0.6519
 1064TIP3   OH224682   2.632   1.917   4.877 -0.1009  0.4487 -0.2090
 1064TIP3    H124683   2.720   1.940   4.908 -0.1249 -0.0689  0.2661
 1064TIP3    H224684   2.644   1.834   4.831 -0.4325  0.0572  0.3929
 1065TIP3   OH224685   1.593   3.500  12.075  0.0123  0.5503 -0.5326
 1065TIP3    H124686   1.548   3.464  11.999  0.9754 -0.8747 -0.4826
 1065TIP3    H224687   1.574   3.439  12.146 -0.9335  1.9011  0.4217
 1066TIP3   OH224688   1.805   3.130   0.529  0.1463 -0.2939  0.0989
 1066TIP3    H124689   1.754   3.057   0.566  0.7518 -1.5563 -1.4062
 1066TIP3    H224690   1.838   3.095   0.446  0.0058  1.9064 -0.9534
 1067TIP3   OH224691   1.366   1.601  11.091  0.4364 -0.0550  0.1111
 1067TIP3    H124692   1.378   1.563  11.003  0.2801 -2.4372  1.0424
 1067TIP3    H224693   1.277   1.636  11.090  0.0427 -1.0110 -0.3982
 1068TIP3   OH224694   0.729   4.117  15.009  0.1226  0.5152 -0.0883
 1068TIP3    H124695   0.771   4.086  15.089 -0.8797  3.1817  1.6411
 1068TIP3    H224696   0.656   4.057  14.995  1.3135 -0.9830 -0.0190
 1069TIP3   OH224697   4.540   2.149   6.323  0.3378 -0.3750  0.1847
 1069TIP3    H124698   4.496   2.064   6.326  0.2279 -0.3015  0.8918
 1069TIP3    H224699   4.470   2.212   6.303 -0.0395 -0.1763  1.9571
 1070TIP3   OH224700   2.517   6.820   4.825 -0.4066  0.1912 -0.5650
 1070TIP3    H124701   2.441   6.793   4.876 -0.5602  1.3640 -0.1452
 1070TIP3    H224702   2.497   6.789   4.736 -0.5201 -1.1116 -0.1122
 1071TIP3   OH224703   3.774   4.543  17.128  0.0050 -0.0438 -0.4729
 1071TIP3    H124704   3.704   4.569  17.068  1.8677 -1.2011 -3.3452
 1071TIP3    H224705   3.808   4.626  17.161 -1.4768  0.6046 -0.4761
 1072TIP3   OH224706   0.267   0.445  11.776 -0.2318  0.3331  0.0265
 1072TIP3    H124707   0.314   0.463  11.694  0.5852  1.1915  0.6688
 1072TIP3    H224708   0.226   0.528  11.799  0.5043  0.4208  1.0902
 1073TIP3   OH224709   2.484   4.957   0.753 -0.1281 -0.2329 -0.1139
 1073TIP3    H124710   2.427   5.017   0.705  0.7849  1.3655  0.7130
 1073TIP3    H224711   2.463   4.870   0.718 -2.4548  0.3887 -0.4247
 1074TIP3   OH224712   5.421   1.923   4.800  0.0822  0.4161 -0.3046
 1074TIP3    H124713   5.329   1.895   4.807 -0.1812  1.1622 -0.6990
 1074TIP3    H224714   5.424   1.971   4.717  0.7495  0.7230 -0.0994
 1075TIP3   OH224715   0.270   0.314   4.356 -0.8357 -0.4944  0.0147
 1075TIP3    H124716   0.240   0.376   4.290 -0.5805  1.1414  1.3685
 1075TIP3    H224717   0.302   0.239   4.306 -0.9448  0.5498 -1.6908
 1076TIP3   OH224718   4.909   5.203   5.054  0.2819  0.9583  0.4610
 1076TIP3    H124719   4.832   5.168   5.009  0.6026 -2.0574  2.0313
 1076TIP3    H224720   4.977   5.138   5.039  0.7780  0.4802  4.0171
 1077TIP3   OH224721   0.384   2.702   0.720 -0.4078 -0.0028 -0.7912
 1077TIP3    H124722   0.398   2.743   0.805  1.4528  0.9004 -1.4774
 1077TIP3    H224723   0.358   2.774   0.662 -0.8028 -0.4560 -1.1896
 1078TIP3   OH224724   2.529   0.975  15.704  0.2488  0.0449  0.1953
 1078TIP3    H124725   2.510   0.926  15.624 -2.3209  1.7881 -0.4076
 1078TIP3    H224726   2.470   0.938  15.770  1.2183 -0.3420  0.8539
 1079TIP3   OH224727   6.200   4.144   3.279  0.4349 -0.5320  0.8996
 1079TIP3    H124728   6.190   4.050   3.291  2.0368 -0.6870  1.3365
 1079TIP3    H224729   6.188   4.181   3.367  0.2431 -0.3809  0.8089
 1080TIP3   OH224730   6.550   3.130   1.603  0.0808  0.4366 -0.0703
 1080TIP3    H124731   6.589   3.157   1.520 -2.1667 -1.0543 -1.7303
 1080TIP3    H224732   6.623   3.097   1.655  2.1431  4.6164  0.0978
 1081TIP3   OH224733   2.018   3.568  12.615 -0.3019 -0.1298  0.1858
 1081TIP3    H124734   2.071   3.570  12.535 -0.0980  1.7046  0.3083
 1081TIP3    H224735   2.082   3.561  12.686 -0.5274 -2.8487  0.2273
 1082TIP3   OH224736   2.799   4.737  13.599 -0.4219  0.6887  0.1790
 1082TIP3    H124737   2.872   4.698  13.552 -0.3653 -1.2493  1.7340
 1082TIP3    H224738   2.757   4.794  13.535  0.0888 -1.2007 -1.9923
 1083TIP3   OH224739   3.632   0.808  16.827 -0.9499 -0.0002  0.2953
 1083TIP3    H124740   3.723   0.780  16.831 -0.7324  0.5639 -0.3976
 1083TIP3    H224741   3.637   0.899  16.798 -1.6972  0.2982  1.0631
 1084TIP3   OH224742   4.173   1.836  16.069  0.0981  0.5295  0.2158
 1084TIP3    H124743   4.185   1.824  15.975  0.7835 -0.4586  0.4163
 1084TIP3    H224744   4.108   1.771  16.095 -0.0848  0.7929  0.4279
 1085TIP3   OH224745   1.039   3.434   5.687 -0.2959 -0.2413 -0.4064
 1085TIP3    H124746   1.131   3.442   5.713  0.5122 -0.8955 -2.7545
 1085TIP3    H224747   1.011   3.349   5.721  0.2082 -0.3621 -0.2851
 1086TIP3   OH224748   0.017   3.147   0.021  0.1064 -0.5257  0.1058
 1086TIP3    H124749  -0.015   3.102  -0.058  0.5874  0.5999 -0.7507
 1086TIP3    H224750   0.094   3.195  -0.008 -0.0112  0.3237  1.1533
 1087TIP3   OH224751   4.211   1.469   4.393  0.0216  0.8260 -0.2618
 1087TIP3    H124752   4.238   1.407   4.460  1.4344  1.4757 -0.1914
 1087TIP3    H224753   4.188   1.415   4.318  0.4955  0.1893  0.0438
 1088TIP3   OH224754   3.023   4.076   6.448 -0.9150 -0.1802  0.3446
 1088TIP3    H124755   3.084   4.082   6.374 -2.3650 -0.8295 -0.9693
 1088TIP3    H224756   2.950   4.024   6.414 -0.2554 -3.3044  3.2294
 1089TIP3   OH224757   2.842   2.402   0.712 -0.0277  0.0787 -0.1512
 1089TIP3    H124758   2.869   2.391   0.621  0.7701  0.1252  0.0655
 1089TIP3    H224759   2.892   2.335   0.760  2.5121  2.4313  0.7577
 1090TIP3   OH224760   0.035   2.023  10.920 -0.2971  0.7875 -0.0551
 1090TIP3    H124761   0.000   1.950  10.869 -1.2696 -0.1087  1.7812
 1090TIP3    H224762  -0.043   2.072  10.948  0.3513  3.2637 -2.1216
 1091TIP3   OH224763   1.619   6.075  12.676  0.8836 -0.0562  0.2684
 1091TIP3    H124764   1.710   6.058  12.652  0.5070  0.5143 -1.7955
 1091TIP3    H224765   1.591   6.143  12.614 -1.2595 -1.0270  0.0887
 1092TIP3   OH224766   0.363   2.192  13.445  0.1563  0.1706  0.0890
 1092TIP3    H124767   0.401   2.247  13.376 -0.2616 -1.3069 -1.4097
 1092TIP3    H224768   0.427   2.193  13.516  1.5995  0.1165 -1.1618
 1093TIP3   OH224769   3.633   5.059   1.320  0.0035 -0.2243 -0.0277
 1093TIP3    H124770   3.560   5.000   1.338  0.4907 -1.1584 -1.0643
 1093TIP3    H224771   3.627   5.077   1.227  1.3184 -0.6106 -0.1927
 1094TIP3   OH224772   6.012   1.593   1.956 -0.1818 -0.2518  0.1430
 1094TIP3    H124773   6.107   1.597   1.956 -0.1910  0.1674 -1.1778
 1094TIP3    H224774   5.989   1.575   2.048  1.1162  0.4979  0.6317
 1095TIP3   OH224775   6.308   5.737  12.683 -0.0852 -0.6294 -0.1226
 1095TIP3    H124776   6.345   5.744  12.595 -1.1497  0.3610 -0.5221
 1095TIP3    H224777   6.362   5.796  12.736 -1.0087  0.7983 -0.6979
 1096TIP3   OH224778   1.057   2.365  15.313 -0.3227  0.1271 -0.0864
 1096TIP3    H124779   1.088   2.436  15.370  1.1546 -0.5212 -0.0460
 1096TIP3    H224780   1.093   2.285  15.352  0.9537 -0.3057 -2.0290
 1097TIP3   OH224781   6.607   6.010  11.594  0.2521 -0.1204  0.1827
 1097TIP3    H124782   6.550   5.967  11.531 -0.7670  0.1874  0.8535
 1097TIP3    H224783   6.608   5.952  11.670  1.5375 -0.5323 -0.1363
 1098TIP3   OH224784   4.663   1.738  15.648  0.2427  0.1549  0.6049
 1098TIP3    H124785   4.609   1.817  15.643 -0.3557 -0.2294  0.8481
 1098TIP3    H224786   4.609   1.675  15.695  0.5821 -0.5049  0.1343
 1099TIP3   OH224787   1.595   5.111   2.802 -0.2671 -0.0783 -0.1155
 1099TIP3    H124788   1.503   5.115   2.830 -0.4219 -0.7210 -0.5149
 1099TIP3    H224789   1.642   5.161   2.868 -1.1344  1.8795 -0.9116
 1100TIP3   OH224790   0.897   4.013  11.994  0.5401 -0.6721  0.1271
 1100TIP3    H124791   0.810   3.976  12.002 -0.6356  1.8886  0.2794
 1100TIP3    H224792   0.927   4.025  12.084  0.5460 -0.5193  0.1067
 1101TIP3   OH224793   5.853   4.711  15.735  0.1741 -0.3157 -0.4743
 1101TIP3    H124794   5.799   4.790  15.730 -0.5587 -0.7719  0.2170
 1101TIP3    H224795   5.865   4.696  15.829  3.4129  1.0597 -0.5235
 1102TIP3   OH224796   0.322   4.507   4.502 -0.1655  0.0201  0.0742
 1102TIP3    H124797   0.348   4.599   4.505 -1.8649  0.5267  0.3328
 1102TIP3    H224798   0.257   4.502   4.433  0.6396 -1.2248 -0.6402
 1103TIP3   OH224799   3.652   1.615   4.756  0.4984 -0.0978  0.6001
 1103TIP3    H124800   3.652   1.568   4.839 -0.1889 -0.9392  0.1458
 1103TIP3    H224801   3.597   1.692   4.772  0.0053 -0.4849  0.8155
 1104TIP3   OH224802   3.355   1.528  11.228 -0.4045  0.2167  0.5710
 1104TIP3    H124803   3.367   1.438  11.257 -0.2295 -1.2908 -3.5372
 1104TIP3    H224804   3.261   1.534  11.208 -0.2824  0.6792  0.1153
 1105TIP3   OH224805   4.818   1.183  11.905 -0.3753 -0.3780  0.1275
 1105TIP3    H124806   4.766   1.166  11.826 -1.4153  1.6269  0.3336
 1105TIP3    H224807   4.755   1.182  11.976  0.6116 -2.5991  1.0738
 1106TIP3   OH224808   0.491   4.520  15.478  0.6353  0.1819 -0.4647
 1106TIP3    H124809   0.435   4.598  15.477  1.7359  1.0204 -2.1945
 1106TIP3    H224810   0.433   4.448  15.450  0.2521  0.9356 -1.7136
 1107TIP3   OH224811   2.825   3.660   4.619 -0.0452  0.1956 -0.0940
 1107TIP3    H124812   2.797   3.574   4.648 -1.0825  0.6482  0.3170
 1107TIP3    H224813   2.747   3.698   4.577 -0.2656  1.7211  1.5796
 1108TIP3   OH224814   5.589   2.179   4.753  0.3099  0.1366 -0.2644
 1108TIP3    H124815   5.568   2.163   4.844  1.0012  1.2726  0.1118
 1108TIP3    H224816   5.635   2.099   4.725 -1.4745 -0.9884 -0.1840
 1109TIP3   OH224817   0.851   2.382  17.090  0.1400 -0.3321  0.2862
 1109TIP3    H124818   0.831   2.422  17.005  2.3140 -1.2194 -0.7445
 1109TIP3    H224819   0.940   2.412  17.109 -0.3996  0.0555  2.4218
 1110TIP3   OH224820   6.584   0.695  12.772  0.0298  0.6504  0.1103
 1110TIP3    H124821   6.609   0.757  12.841  2.3299  1.5995 -1.4605
 1110TIP3    H224822   6.660   0.691  12.714 -1.2668 -1.2260 -1.6089
 1111TIP3   OH224823   0.299   5.614   5.699  0.1521  0.3171 -0.6270
 1111TIP3    H124824   0.222   5.632   5.644  1.8751  1.0192 -2.9886
 1111TIP3    H224825   0.320   5.522   5.680 -1.4829 -0.7050  1.9885
 1112TIP3   OH224826   6.256   3.148  16.146  0.2656  0.0104 -0.3768
 1112TIP3    H124827   6.265   3.143  16.051  0.4845 -0.2401 -0.3449
 1112TIP3    H224828   6.347   3.147  16.178  0.1781 -0.7521 -0.1279
 1113TIP3   OH224829   1.138   1.469   3.026 -0.9580 -0.0983 -0.0595
 1113TIP3    H124830   1.080   1.393   3.038 -1.0493 -0.1013 -0.4931
 1113TIP3    H224831   1.122   1.497   2.936 -1.3353  0.7860  0.2715
 1114TIP3   OH224832   0.706   5.192   4.725  0.5295 -0.0192 -0.0304
 1114TIP3    H124833   0.654   5.111   4.732 -1.6657  1.3484  0.5960
 1114TIP3    H224834   0.719   5.219   4.816 -0.0499  1.0904 -0.2701
 1115TIP3   OH224835   3.682   4.001   2.141 -0.2034 -0.0976  0.5117
 1115TIP3    H124836   3.736   4.075   2.111 -1.3291  0.4839 -0.1276
 1115TIP3    H224837   3.690   3.936   2.071  0.6240 -0.5188  0.9807
 1116TIP3   OH224838   3.000   4.254  11.101 -0.0441  0.2867 -0.0337
 1116TIP3    H124839   3.004   4.339  11.145  2.4712  0.0855  0.2361
 1116TIP3    H224840   2.962   4.195  11.167 -0.6522  0.9393  0.2076
 1117TIP3   OH224841   5.835   3.743  16.624  0.3854 -0.0466  0.5219
 1117TIP3    H124842   5.811   3.665  16.673  3.8563 -0.5981  1.5985
 1117TIP3    H224843   5.890   3.794  16.684  1.1230  1.4837 -1.3338
 1118TIP3   OH224844   1.122   0.519   1.939  0.3263 -1.1530 -0.5569
 1118TIP3    H124845   1.148   0.428   1.951  0.5010 -0.9453  0.7055
 1118TIP3    H224846   1.052   0.514   1.874  0.0680 -2.2351 -0.2267
 1119TIP3   OH224847   5.143   0.072  11.306  0.3975  0.0519  0.2227
 1119TIP3    H124848   5.202   0.004  11.272 -0.9177 -0.3460 -1.4470
 1119TIP3    H224849   5.124   0.127  11.230 -1.5064  0.0306  0.6281
 1120TIP3   OH224850   4.758   1.942   1.460  0.2990 -0.0126  0.3967
 1120TIP3    H124851   4.737   2.016   1.404 -1.9851  0.9965  2.3679
 1120TIP3    H224852   4.776   1.869   1.400 -0.0674  1.4632 -1.5785
 1121TIP3   OH224853   6.318   1.828  15.866 -0.0468  0.3788  0.5864
 1121TIP3    H124854   6.290   1.917  15.846 -1.0885 -0.2639 -1.0597
 1121TIP3    H224855   6.392   1.839  15.926 -0.5125  2.3127  0.8755
 1122TIP3   OH224856   2.491   0.048  14.867 -0.1684 -0.9631  0.3506
 1122TIP3    H124857   2.431   0.081  14.800 -0.6200 -0.8683  0.8002
 1122TIP3    H224858   2.456   0.082  14.949  1.4660  0.5880  0.4821
 1123TIP3   OH224859   5.974   2.187  15.694  0.4076 -0.0338  0.1902
 1123TIP3    H124860   6.018   2.218  15.774 -0.5026  0.6063  0.4526
 1123TIP3    H224861   5.900   2.135  15.726  0.9560 -1.1359 -0.2514
 1124TIP3   OH224862   6.217   0.951   2.914  0.0799  0.1688  0.4130
 1124TIP3    H124863   6.287   0.982   2.856  0.1648 -0.8082 -0.0230
 1124TIP3    H224864   6.262   0.923   2.993  0.2317 -0.6860  0.0409
 1125TIP3   OH224865   0.317   3.069  12.356  0.2268 -0.0743 -0.5029
 1125TIP3    H124866   0.397   3.055  12.305  0.9435 -0.5062  0.6777
 1125TIP3    H224867   0.283   2.981  12.371 -0.1766  0.0722 -0.5580
 1126TIP3   OH224868   0.022   3.893  12.181  0.4186 -0.1121 -0.4817
 1126TIP3    H124869   0.051   3.961  12.243  0.2304  0.0503 -0.5694
 1126TIP3    H224870   0.085   3.822  12.192  0.0731 -0.3175  0.3003
 1127TIP3   OH224871   0.697   0.789  12.253  0.4972  0.3314 -0.5772
 1127TIP3    H124872   0.664   0.798  12.164 -2.2675 -0.8850  0.2077
 1127TIP3    H224873   0.789   0.763  12.242  0.3474  0.6021 -3.0336
 1128TIP3   OH224874   4.505   2.453   0.520  0.1469 -0.8114 -0.1148
 1128TIP3    H124875   4.554   2.514   0.465  2.3804 -3.0468 -0.7920
 1128TIP3    H224876   4.432   2.424   0.464  0.6122 -0.7449 -0.7604
 1129TIP3   OH224877   6.639   5.430   5.582 -0.1224  0.1879 -0.1787
 1129TIP3    H124878   6.620   5.462   5.494 -3.3824  1.6941  0.8737
 1129TIP3    H224879   6.611   5.339   5.582  0.9755 -0.1571 -0.9737
 1130TIP3   OH224880   3.233   4.102  11.689  0.1529 -0.0908  0.0936
 1130TIP3    H124881   3.145   4.121  11.721  0.0887  0.5395 -0.4377
 1130TIP3    H224882   3.246   4.009  11.708 -0.9648 -0.4117 -0.6209
 1131TIP3   OH224883   0.227   3.894   3.458 -0.3804 -0.0577 -0.0126
 1131TIP3    H124884   0.291   3.961   3.478 -1.3892  2.3551 -3.8515
 1131TIP3    H224885   0.277   3.812   3.461  2.2489  1.4130 -0.3242
 1132TIP3   OH224886   2.104   1.637   1.326  0.7658 -0.0980 -0.4781
 1132TIP3    H124887   2.123   1.628   1.419 -0.5099 -0.9169 -0.2656
 1132TIP3    H224888   2.071   1.551   1.299  0.7455  0.2327 -1.5945
 1133TIP3   OH224889   6.724   3.895   4.430 -0.1025 -0.1403 -0.0064
 1133TIP3    H124890   6.640   3.887   4.476 -0.1779  0.1575 -0.0886
 1133TIP3    H224891   6.785   3.846   4.484  0.1838  1.6345  1.3837
 1134TIP3   OH224892   5.873   5.295   0.535  0.3722  0.0435 -0.4395
 1134TIP3    H124893   5.920   5.212   0.535  2.2553  1.0268  0.3439
 1134TIP3    H224894   5.919   5.348   0.470 -1.9764 -0.0776 -2.3154
 1135TIP3   OH224895   2.473   2.004  16.463  0.1029  0.2845 -0.6219
 1135TIP3    H124896   2.539   2.050  16.411 -0.5511 -0.4710 -2.1984
 1135TIP3    H224897   2.486   2.036  16.552  2.2153  0.5805 -0.9729
 1136TIP3   OH224898   3.759   1.215  14.921 -0.2875  0.3163  0.4134
 1136TIP3    H124899   3.760   1.249  14.832  0.7993  0.0087  0.2982
 1136TIP3    H224900   3.851   1.206  14.945 -0.5653  0.2798  1.5258
 1137TIP3   OH224901   1.689   2.065   2.693 -0.5370  0.1275  0.3413
 1137TIP3    H124902   1.775   2.077   2.654 -1.0462  0.9776 -0.5660
 1137TIP3    H224903   1.689   2.123   2.769 -0.1520 -0.2278  0.6165
 1138TIP3   OH224904   5.074   4.716  17.008 -0.0619  0.0249  0.4893
 1138TIP3    H124905   4.987   4.734  16.972 -0.2442 -1.0948  0.3210
 1138TIP3    H224906   5.095   4.629  16.975  1.2400  0.3891  0.3351
 1139TIP3   OH224907   3.133   6.703  16.234  0.0197 -0.5678 -0.0392
 1139TIP3    H124908   3.216   6.722  16.191 -1.0196  0.9397 -1.4932
 1139TIP3    H224909   3.109   6.616  16.202  1.6279 -1.6138  1.4430
 1140TIP3   OH224910   4.004   0.123   3.830 -0.2744 -0.0430 -0.2596
 1140TIP3    H124911   3.932   0.186   3.830 -0.5315 -0.3315 -0.1101
 1140TIP3    H224912   3.960   0.037   3.832 -0.1108 -0.4273 -4.1804
 1141TIP3   OH224913   6.217   5.974  10.982 -0.2098  0.5161  0.0945
 1141TIP3    H124914   6.302   5.976  10.938 -0.0090  2.2165  0.4974
 1141TIP3    H224915   6.237   5.942  11.070  0.1293  1.5699  0.4051
 1142TIP3   OH224916   0.332   4.206  14.034 -0.1888  0.1346  0.6340
 1142TIP3    H124917   0.417   4.186  13.994 -0.1603  2.4487 -0.6432
 1142TIP3    H224918   0.340   4.296  14.063 -2.1089  0.2817  0.8079
 1143TIP3   OH224919   4.462   6.795  15.378 -0.3296 -0.3362  0.0422
 1143TIP3    H124920   4.532   6.759  15.433  0.1053  0.4823  0.0387
 1143TIP3    H224921   4.452   6.885  15.407 -1.0734 -0.3093 -0.2745
 1144TIP3   OH224922   1.185   2.429  13.497 -0.0013 -0.0301 -0.6940
 1144TIP3    H124923   1.193   2.511  13.545  1.0528 -0.3631 -0.2536
 1144TIP3    H224924   1.261   2.377  13.526 -0.9060 -1.3474 -0.5867
 1145TIP3   OH224925   2.410   0.343  11.814  0.4746  0.7900  0.4458
 1145TIP3    H124926   2.428   0.280  11.744 -0.7619  0.4774  0.3695
 1145TIP3    H224927   2.487   0.340  11.870  1.3284  0.7726 -0.6959
 1146TIP3   OH224928   2.580   6.358   5.998  0.0878 -0.1729  0.0898
 1146TIP3    H124929   2.592   6.408   6.079 -1.4073 -1.2725  1.0458
 1146TIP3    H224930   2.597   6.267   6.024 -0.7745 -0.5829 -0.7425
 1147TIP3   OH224931   3.672   1.525   6.434 -0.0321  0.3107  0.5074
 1147TIP3    H124932   3.678   1.524   6.530  3.5377 -1.9851  0.4568
 1147TIP3    H224933   3.584   1.558   6.416 -0.9276  0.6888  4.5446
 1148TIP3   OH224934   5.737   2.970   3.800 -0.2140  0.1042  0.3791
 1148TIP3    H124935   5.767   2.977   3.891 -1.7259 -0.8612  0.9894
 1148TIP3    H224936   5.817   2.965   3.749  0.6696  0.6586  1.6558
 1149TIP3   OH224937   0.174   4.082   1.394 -0.3049 -0.0853  0.4331
 1149TIP3    H124938   0.134   4.152   1.446  0.6436 -1.2695  2.9076
 1149TIP3    H224939   0.105   4.056   1.333 -1.2564  1.8247  0.6056
 1150TIP3   OH224940   2.130   1.521   0.586 -0.2002 -0.3696  0.0588
 1150TIP3    H124941   2.121   1.608   0.547  1.2942  0.0849  0.6748
 1150TIP3    H224942   2.058   1.516   0.649  0.7505  1.1893  1.3595
 1151TIP3   OH224943   3.390   2.076   0.619 -0.0279 -0.1312  0.5169
 1151TIP3    H124944   3.350   2.030   0.694 -0.4294 -1.2633 -0.3582
 1151TIP3    H224945   3.325   2.141   0.593 -0.2842 -0.3622  0.5763
 1152TIP3   OH224946   1.114   0.613   5.457 -0.1621 -0.4975 -0.3854
 1152TIP3    H124947   1.120   0.568   5.541 -1.3533 -1.4403 -0.7699
 1152TIP3    H224948   1.129   0.705   5.478  0.8256 -0.8748  0.6531
 1153TIP3   OH224949   3.332   1.203   0.891 -0.4553 -0.2233 -0.1591
 1153TIP3    H124950   3.240   1.178   0.878 -0.1634 -0.9306 -1.0207
 1153TIP3    H224951   3.357   1.243   0.808  0.4358 -1.4257 -0.4894
 1154TIP3   OH224952   5.855   2.395  11.093 -0.2664  0.0164  0.4088
 1154TIP3    H124953   5.834   2.485  11.120 -0.5364  0.0375  0.1259
 1154TIP3    H224954   5.847   2.344  11.173 -0.9285  0.1033  0.4050
 1155TIP3   OH224955   3.962   4.705  13.755 -0.1580  0.0311 -0.1031
 1155TIP3    H124956   3.894   4.640  13.777 -0.2477  0.6474  1.6047
 1155TIP3    H224957   4.044   4.660  13.774 -0.0466 -0.6216 -1.9168
 1156TIP3   OH224958   4.098   1.272   1.561 -0.0766 -0.4226 -0.5108
 1156TIP3    H124959   4.138   1.353   1.592 -1.1861  0.4586 -1.3156
 1156TIP3    H224960   4.162   1.204   1.584  0.1771  0.4382  1.6339
 1157TIP3   OH224961   4.316   0.900  11.491  0.0065 -0.3171  0.5407
 1157TIP3    H124962   4.357   0.873  11.409  0.3515  1.8727 -0.0786
 1157TIP3    H224963   4.222   0.894  11.474 -0.0437 -3.5206  1.3327
 1158TIP3   OH224964   4.748   4.316   2.229  0.3822 -0.4920 -0.1224
 1158TIP3    H124965   4.788   4.397   2.261  0.2152 -0.0776 -0.9479
 1158TIP3    H224966   4.822   4.257   2.215  0.6717  0.0997 -1.1574
 1159TIP3   OH224967   2.381   1.772   3.963 -0.2393 -0.4582 -0.2271
 1159TIP3    H124968   2.343   1.845   3.914  0.8644 -0.5613 -1.3126
 1159TIP3    H224969   2.359   1.694   3.911  0.0825 -0.6842 -0.0321
 1160TIP3   OH224970   6.414   2.872  11.598  0.2688 -0.5611 -0.3079
 1160TIP3    H124971   6.355   2.918  11.658 -0.0779 -0.5548 -0.6484
 1160TIP3    H224972   6.501   2.889  11.633  0.1234  0.0892 -0.2471
 1161TIP3   OH224973   5.577   4.909  14.727 -0.2094 -0.3954  0.3950
 1161TIP3    H124974   5.603   4.999  14.705  0.7588 -0.6478  0.4648
 1161TIP3    H224975   5.481   4.912  14.730 -0.2893  0.2336 -1.3548
 1162TIP3   OH224976   3.410   5.310   3.320  0.3546  0.3755 -0.0804
 1162TIP3    H124977   3.382   5.273   3.404 -2.3384 -0.1888 -1.1120
 1162TIP3    H224978   3.380   5.401   3.323  0.1764  0.3301 -0.4554
 1163TIP3   OH224979   3.524   3.805  14.628  0.0827 -0.1621  0.5647
 1163TIP3    H124980   3.455   3.755  14.584 -2.4522  1.0640  2.8787
 1163TIP3    H224981   3.528   3.887  14.579 -0.2215 -0.1740  0.5180
 1164TIP3   OH224982   1.190   0.658  14.617 -0.2508 -0.0549  0.3352
 1164TIP3    H124983   1.129   0.596  14.577 -1.1405  1.5195 -0.8416
 1164TIP3    H224984   1.194   0.631  14.709 -1.8413 -0.8890  0.1936
 1165TIP3   OH224985   2.771   0.391   5.087 -0.1321 -0.3647 -0.1394
 1165TIP3    H124986   2.837   0.368   5.021  0.9831 -1.0241  1.1535
 1165TIP3    H224987   2.749   0.308   5.129 -0.5076  0.1021  0.6030
 1166TIP3   OH224988   2.475   2.769   0.980  0.2000  0.1635 -0.1519
 1166TIP3    H124989   2.513   2.715   1.050  2.8457  0.8052 -0.9627
 1166TIP3    H224990   2.468   2.710   0.905  1.5738  0.4907 -0.5713
 1167TIP3   OH224991   1.566   5.378   4.734  0.4096 -0.2326 -0.4603
 1167TIP3    H124992   1.651   5.372   4.775 -1.2520 -0.0611  3.3964
 1167TIP3    H224993   1.540   5.287   4.718 -0.2998 -0.5798  2.2647
 1168TIP3   OH224994   2.523   4.964   4.261  0.0926 -0.4500  0.7521
 1168TIP3    H124995   2.448   4.971   4.201 -0.5244  0.0415  1.5505
 1168TIP3    H224996   2.539   5.054   4.289  1.6327 -0.4163 -0.1532
 1169TIP3   OH224997   3.256   0.625   3.775 -0.5343  0.0269  0.2622
 1169TIP3    H124998   3.218   0.624   3.688 -0.2103  1.0265  0.1012
 1169TIP3    H224999   3.288   0.714   3.787  1.6216 -0.7012  0.4400
 1170TIP3   OH225000   5.710   0.797  16.947  0.1552 -0.1722  0.0457
 1170TIP3    H125001   5.794   0.838  16.927  1.1225 -1.2725  1.6413
 1170TIP3    H225002   5.705   0.721  16.889 -0.0944  0.3104 -0.5704
 1171TIP3   OH225003   3.518   2.474   6.008  0.5798 -0.3929  0.5078
 1171TIP3    H125004   3.583   2.488   5.940 -0.3211  1.3018 -0.0596
 1171TIP3    H225005   3.546   2.530   6.080  0.8591 -1.2486  1.0846
 1172TIP3   OH225006   4.384   3.111  14.158 -0.2999  0.0340  0.4474
 1172TIP3    H125007   4.445   3.180  14.131 -1.5380  0.3594 -1.7227
 1172TIP3    H225008   4.400   3.039  14.097 -0.9785 -0.5009  0.8916
 1173TIP3   OH225009   6.314   1.982   1.795  0.2845  0.2618  0.5699
 1173TIP3    H125010   6.399   1.938   1.794  0.0171 -0.3247 -1.5722
 1173TIP3    H225011   6.253   1.917   1.760 -0.8245  1.0952  0.9053
 1174TIP3   OH225012   0.171   2.147  14.310  0.2952  0.3863  0.4825
 1174TIP3    H125013   0.250   2.184  14.271  1.1574 -3.9842 -2.8144
 1174TIP3    H225014   0.107   2.147  14.238 -1.4683  0.4636  1.9695
 1175TIP3   OH225015   0.747   0.901  14.169 -0.3118  0.1411  0.2796
 1175TIP3    H125016   0.707   0.987  14.181  0.4586  0.6043 -0.4679
 1175TIP3    H225017   0.798   0.887  14.249 -1.5156 -0.2286  1.0107
 1176TIP3   OH225018   2.236   2.158  16.340  0.5202  0.3715  0.0280
 1176TIP3    H125019   2.294   2.088  16.372  0.7435  0.3807 -0.3441
 1176TIP3    H225020   2.278   2.187  16.259  0.7463  1.3446  0.4844
 1177TIP3   OH225021   4.069   4.828   4.566 -0.1396  0.2324 -0.4625
 1177TIP3    H125022   4.084   4.761   4.633 -0.8927 -0.8187 -1.2971
 1177TIP3    H225023   3.977   4.852   4.577  0.5343  2.4456  0.9393
 1178TIP3   OH225024   6.094   4.725  12.377 -0.7060  0.2320 -0.4417
 1178TIP3    H125025   6.157   4.672  12.328 -1.0410 -0.6046  0.0158
 1178TIP3    H225026   6.147   4.781  12.433 -0.3484 -1.3332  0.8558
 1179TIP3   OH225027   6.805   0.155  15.267 -0.3429  0.4833  0.5412
 1179TIP3    H125028   6.897   0.175  15.283 -0.3011  0.3241  0.4952
 1179TIP3    H225029   6.757   0.217  15.322 -0.2207  1.0811 -0.0170
 1180TIP3   OH225030   6.269   3.073   1.981  0.0606 -0.2167  0.5164
 1180TIP3    H125031   6.220   3.071   2.063 -1.3232  0.8542 -0.2403
 1180TIP3    H225032   6.210   3.117   1.919  1.5538  0.1108 -0.7295
 1181TIP3   OH225033   4.683   6.395  13.602 -0.2264 -0.3752  0.0826
 1181TIP3    H125034   4.619   6.407  13.532 -0.6672 -1.4234  0.2852
 1181TIP3    H225035   4.640   6.431  13.680 -0.5264 -0.9513  0.1905
 1182TIP3   OH225036   2.189   4.004   5.514  0.3186  0.2430  0.5514
 1182TIP3    H125037   2.243   4.080   5.536  0.3481  0.3822  0.0083
 1182TIP3    H225038   2.249   3.930   5.521  0.9654  0.5242 -1.3440
 1183TIP3   OH225039   3.622   5.501   2.701 -0.2595  0.2277  0.0930
 1183TIP3    H125040   3.717   5.513   2.705 -0.2542 -0.1820  1.7168
 1183TIP3    H225041   3.602   5.502   2.607  1.1302  1.9246 -0.2360
 1184TIP3   OH225042   4.703   0.219   3.632  0.5667  0.3224 -0.5331
 1184TIP3    H125043   4.679   0.311   3.646  3.7458  1.1989 -0.1864
 1184TIP3    H225044   4.637   0.170   3.681 -2.5074  2.2039 -2.3978
 1185TIP3   OH225045   2.213   0.471  15.464  0.2338 -0.4076 -0.3272
 1185TIP3    H125046   2.294   0.497  15.508  0.2272  0.1209 -0.6215
 1185TIP3    H225047   2.224   0.377  15.448  0.6262 -0.4156 -0.0286
 1186TIP3   OH225048   4.637   4.777  16.270  0.4196  0.4542 -0.2938
 1186TIP3    H125049   4.614   4.696  16.315 -0.6310  0.8597 -0.0699
 1186TIP3    H225050   4.732   4.778  16.269  0.4549 -1.1616 -0.9819
 1187TIP3   OH225051   4.050   3.801  16.603  0.0797  0.0168  0.4991
 1187TIP3    H125052   4.135   3.841  16.589 -0.4135  0.2666 -2.4511
 1187TIP3    H225053   3.987   3.866  16.571 -1.0464 -1.1036  0.3191
 1188TIP3   OH225054   1.855   2.944  10.757  0.3059  0.0304 -0.0662
 1188TIP3    H125055   1.829   2.904  10.674  0.7969 -0.8735  0.2012
 1188TIP3    H225056   1.945   2.974  10.742  0.3677 -0.0658  0.1197
 1189TIP3   OH225057   4.783   2.241   1.802 -0.3264  0.2499  0.3225
 1189TIP3    H125058   4.839   2.168   1.828 -2.4924 -1.7272 -0.2181
 1189TIP3    H225059   4.720   2.250   1.874 -0.4129  1.2451  0.1373
 1190TIP3   OH225060   2.276   6.791   1.000 -0.2418  0.0817  0.0591
 1190TIP3    H125061   2.204   6.731   0.979 -1.5321  1.3926  0.5828
 1190TIP3    H225062   2.334   6.739   1.056 -1.6233 -0.5446  0.9786
 1191TIP3   OH225063   5.601   5.150   5.769 -0.0295  0.3949 -0.4267
 1191TIP3    H125064   5.576   5.217   5.833 -0.0986 -1.6702  1.8441
 1191TIP3    H225065   5.532   5.084   5.775 -0.0270  0.0946 -2.6765
 1192TIP3   OH225066   2.611   1.282  13.077  0.0634  0.0957  0.6276
 1192TIP3    H125067   2.700   1.293  13.044  0.3792  2.3045  2.0204
 1192TIP3    H225068   2.556   1.288  12.999  0.9707  1.8087  0.0587
 1193TIP3   OH225069   6.304   5.827  17.255  0.2476 -0.0480  0.1989
 1193TIP3    H125070   6.390   5.829  17.213  0.4998  0.8850  0.7300
 1193TIP3    H225071   6.263   5.747  17.222  1.2850 -0.4640 -0.1123
 1194TIP3   OH225072   4.541   2.454  16.429 -0.3675 -0.6931 -0.2185
 1194TIP3    H125073   4.460   2.404  16.439  0.0799 -1.1750  1.0623
 1194TIP3    H225074   4.595   2.402  16.369  0.3500 -2.1256  1.5763
 1195TIP3   OH225075   0.923   5.892   0.105 -0.0105 -0.1278  0.4618
 1195TIP3    H125076   0.830   5.871   0.096  0.4271 -2.5160  0.9230
 1195TIP3    H225077   0.947   5.930   0.020 -1.1258 -0.6395 -0.1014
 1196TIP3   OH225078   4.518   4.076  13.752  0.3291  0.1619 -0.1823
 1196TIP3    H125079   4.504   4.147  13.815  0.4943 -0.0807  0.1334
 1196TIP3    H225080   4.433   4.064  13.710  0.4189  0.8568 -0.5671
 1197TIP3   OH225081   1.306   6.487   2.372 -0.0210 -0.6278 -0.3748
 1197TIP3    H125082   1.375   6.526   2.426  1.9531 -4.8816  0.5942
 1197TIP3    H225083   1.304   6.541   2.293  1.0365  2.3945  1.4930
 1198TIP3   OH225084   0.005   4.528  15.072 -0.1094  0.3365  0.2353
 1198TIP3    H125085   0.085   4.529  15.020  0.9214 -0.2486  1.7388
 1198TIP3    H225086  -0.001   4.616  15.108 -1.1394  0.9195 -1.2750
 1199TIP3   OH225087   3.102   6.412  13.680 -0.3956  0.0759  0.8977
 1199TIP3    H125088   3.051   6.478  13.632 -1.8534 -0.8990  1.0316
 1199TIP3    H225089   3.168   6.462  13.727  1.0844  1.1236 -2.0190
 1200TIP3   OH225090   4.987   2.261   3.646 -0.4997  0.2774  0.3334
 1200TIP3    H125091   5.063   2.270   3.587  0.1982  0.1373  1.1948
 1200TIP3    H225092   4.943   2.182   3.615 -0.3487  0.4061 -0.2311
 1201TIP3   OH225093   3.816   2.853  15.802  0.1323 -0.3381 -0.3648
 1201TIP3    H125094   3.855   2.881  15.885 -0.8605 -0.2159  0.0770
 1201TIP3    H225095   3.890   2.817  15.752  0.6669 -0.9141  0.7772
 1202TIP3   OH225096   1.712   5.098   5.311  0.1747  0.3901  0.1415
 1202TIP3    H125097   1.768   5.131   5.240  0.4480 -0.1204  0.1227
 1202TIP3    H225098   1.751   5.134   5.391  0.9413 -0.5183  0.1930
 1203TIP3   OH225099   3.915   5.538  14.954  0.0126  0.0019  0.4111
 1203TIP3    H125100   3.884   5.499  15.035  1.9429 -0.5410  0.9319
 1203TIP3    H225101   3.916   5.632  14.972 -2.8082  0.2636 -0.2089
 1204TIP3   OH225102   4.177   5.066  12.074 -0.5728  0.1572  0.0975
 1204TIP3    H125103   4.271   5.058  12.056 -0.5781  0.9048 -0.3384
 1204TIP3    H225104   4.138   5.082  11.987 -0.8731  1.6701  0.4732
 1205TIP3   OH225105   2.972   0.739  11.410 -0.2841  0.2839 -0.0988
 1205TIP3    H125106   3.012   0.669  11.461 -2.0584 -1.6793 -1.2550
 1205TIP3    H225107   2.899   0.769  11.464 -0.0323  0.6705  0.0306
 1206TIP3   OH225108   2.941   5.511  16.201  0.4831 -0.6673  0.5721
 1206TIP3    H125109   2.980   5.596  16.181  0.2946 -0.7888 -0.3861
 1206TIP3    H225110   3.003   5.447  16.167  1.2619 -0.9785  2.4535
 1207TIP3   OH225111   4.548   3.917   4.963  0.1460  0.7108 -0.7368
 1207TIP3    H125112   4.638   3.950   4.960  0.3568  0.1014 -1.5637
 1207TIP3    H225113   4.530   3.888   4.873 -0.4269 -0.3434 -0.3050
 1208TIP3   OH225114   1.996   4.662   6.540  0.5518  0.0145 -0.8662
 1208TIP3    H125115   2.055   4.729   6.506  0.1414  1.0208  0.3095
 1208TIP3    H225116   1.997   4.676   6.635 -0.5886 -0.7691 -0.7185
 1209TIP3   OH225117   1.086   2.790   2.977 -0.6836  0.6196  0.3052
 1209TIP3    H125118   1.011   2.779   3.036  0.2646 -0.5085  1.3353
 1209TIP3    H225119   1.159   2.811   3.035  0.3670 -0.9335 -0.4093
 1210TIP3   OH225120   3.670   0.979  14.775 -0.3940  0.2603 -0.0679
 1210TIP3    H125121   3.588   0.937  14.799 -1.8803  2.7048 -0.5410
 1210TIP3    H225122   3.689   1.040  14.846  1.7676 -1.1386  0.6660
 1211TIP3   OH225123   5.894   3.174  15.639  0.9640  0.3971  0.5706
 1211TIP3    H125124   5.982   3.202  15.612  1.5343 -1.5826  0.1693
 1211TIP3    H225125   5.906   3.141  15.728  1.1936 -2.0763 -0.3118
 1212TIP3   OH225126   1.118   6.125   3.349  0.2544  0.2348  0.2371
 1212TIP3    H125127   1.169   6.190   3.397  0.9724 -1.2227  1.5831
 1212TIP3    H225128   1.159   6.041   3.372 -1.7780 -0.8679  0.1339
 1213TIP3   OH225129   4.354   4.822  12.682 -0.6082  0.1212  0.1246
 1213TIP3    H125130   4.297   4.805  12.757 -0.9399  1.0081  0.0850
 1213TIP3    H225131   4.352   4.917  12.672 -1.0989 -0.0335 -1.4234
 1214TIP3   OH225132   2.591   4.456   2.601  0.2045  0.0967  0.5045
 1214TIP3    H125133   2.618   4.446   2.693  2.4896  0.7672 -0.0168
 1214TIP3    H225134   2.625   4.542   2.576 -2.8190  1.1984 -0.2542
 1215TIP3   OH225135   5.647   4.805   5.153 -0.0440  0.4480 -0.6190
 1215TIP3    H125136   5.685   4.890   5.174 -1.7130  0.9714  0.4411
 1215TIP3    H225137   5.715   4.760   5.102  1.9002  1.3829  1.0360
 1216TIP3   OH225138   5.504   5.406   2.778  0.3784  0.4514 -0.1914
 1216TIP3    H125139   5.471   5.494   2.793  0.8712  0.5832  0.1479
 1216TIP3    H225140   5.484   5.358   2.859  1.5533  0.7060  0.2766
 1217TIP3   OH225141   4.835   4.470  16.609  0.0595 -0.0058  0.1152
 1217TIP3    H125142   4.863   4.388  16.650  0.1888 -0.0136  0.0096
 1217TIP3    H225143   4.858   4.460  16.517  0.7836  0.4632  0.2415
 1218TIP3   OH225144   4.879   4.844   0.598 -0.0806  0.2110 -0.5103
 1218TIP3    H125145   4.890   4.768   0.541 -1.4682 -0.1397 -0.3469
 1218TIP3    H225146   4.961   4.892   0.590  1.0065 -1.5215 -0.2665
 1219TIP3   OH225147   5.412   4.885   2.161 -0.6786  0.1405  0.1879
 1219TIP3    H125148   5.397   4.898   2.068 -0.2637  1.7265  0.3139
 1219TIP3    H225149   5.480   4.818   2.166  1.3956  2.0840 -0.7690
 1220TIP3   OH225150   3.313   2.717   0.327 -0.2235 -0.3120  0.0526
 1220TIP3    H125151   3.230   2.764   0.333 -1.4849 -2.4311  0.4561
 1220TIP3    H225152   3.322   2.696   0.234 -1.3244 -1.9326  0.2585
 1221TIP3   OH225153   6.084   6.669  10.896  0.3738 -0.8652 -0.2467
 1221TIP3    H125154   6.035   6.587  10.903 -0.8535 -0.1010  0.4785
 1221TIP3    H225155   6.018   6.736  10.881  1.3797 -0.0213 -1.0835
 1222TIP3   OH225156   1.923   3.797  14.963  0.0495 -0.0309  0.1333
 1222TIP3    H125157   1.965   3.726  15.011  0.8866 -0.7204 -1.5316
 1222TIP3    H225158   1.995   3.848  14.926 -0.5122 -0.5028 -1.7306
 1223TIP3   OH225159   5.215   0.847  13.554 -0.3221 -0.0220 -0.0160
 1223TIP3    H125160   5.293   0.792  13.564 -1.6645 -2.2709 -1.0846
 1223TIP3    H225161   5.249   0.932  13.526  1.8469 -0.3265  1.4739
 1224TIP3   OH225162   2.914   2.946   0.997  0.3369  0.2723 -0.4974
 1224TIP3    H125163   2.984   2.913   0.941  0.0621 -1.6268  0.2099
 1224TIP3    H225164   2.926   3.041   0.997  1.7639  0.1296 -1.8700
 1225TIP3   OH225165   1.822   2.348   2.410  0.5229 -0.0493  0.1333
 1225TIP3    H125166   1.817   2.302   2.327  1.0074 -1.0968  0.6732
 1225TIP3    H225167   1.731   2.360   2.437  0.3265  1.0272 -0.9182
 1226TIP3   OH225168   2.756   0.916  16.027 -0.0263  0.2280  0.2246
 1226TIP3    H125169   2.819   0.871  16.084 -0.4757 -0.4214  0.2215
 1226TIP3    H225170   2.761   1.008  16.054 -1.0218 -0.2083  2.1140
 1227TIP3   OH225171   2.543   5.508  16.143 -0.0758  0.2158  0.6583
 1227TIP3    H125172   2.486   5.477  16.072  0.2987 -0.9046  0.8211
 1227TIP3    H225173   2.592   5.430  16.169 -0.0956  0.6517  2.0437
 1228TIP3   OH225174   1.648   2.965  16.883 -0.0359 -0.0417  0.0292
 1228TIP3    H125175   1.597   3.038  16.848 -1.2084 -1.4112 -1.2415
 1228TIP3    H225176   1.710   3.006  16.944 -1.2462  1.8928  0.0328
 1229TIP3   OH225177   1.141   2.539  13.240  0.0359 -0.1065 -0.5691
 1229TIP3    H125178   1.155   2.471  13.175 -2.0003 -2.1461  0.9764
 1229TIP3    H225179   1.153   2.495  13.324 -0.6258  1.6019  0.4756
 1230TIP3   OH225180   2.542   4.637  13.779 -0.1897  0.0859  0.6707
 1230TIP3    H125181   2.552   4.548  13.746  1.0000  0.4190  0.0748
 1230TIP3    H225182   2.629   4.677  13.767 -0.6651  1.2767  1.0577
 1231TIP3   OH225183   0.434   1.165  15.888 -0.4621 -0.4249  0.1522
 1231TIP3    H125184   0.423   1.247  15.840 -0.9848 -1.3821 -1.4433
 1231TIP3    H225185   0.513   1.126  15.852 -0.4347 -0.8208  0.6237
 1232TIP3   OH225186   3.807   2.797   4.365  0.1805 -0.6101 -0.0545
 1232TIP3    H125187   3.821   2.833   4.278  0.9125 -1.2716 -0.2213
 1232TIP3    H225188   3.760   2.866   4.413 -0.5614 -0.3879 -1.0723
 1233TIP3   OH225189   3.042   3.893  15.391  0.0574 -0.6434 -0.0218
 1233TIP3    H125190   3.053   3.910  15.297  0.1767 -0.6476 -0.0086
 1233TIP3    H225191   2.958   3.848  15.398  0.2960 -1.1204 -0.1867
 1234TIP3   OH225192   0.748   0.363  14.461  0.2640  0.3419  0.4049
 1234TIP3    H125193   0.758   0.313  14.380  1.4253 -0.4173  0.9913
 1234TIP3    H225194   0.782   0.305  14.529 -1.6465  0.5578  1.6072
 1235TIP3   OH225195   0.879   3.605  17.158  0.6926  0.4078  0.6650
 1235TIP3    H125196   0.856   3.527  17.208  0.5664  0.2576  0.3745
 1235TIP3    H225197   0.807   3.666  17.175  1.0372  0.6415  1.2824
 1236TIP3   OH225198   4.709   4.999   3.610 -0.1190  0.0146  0.2198
 1236TIP3    H125199   4.697   4.904   3.610  1.2841 -0.1816 -0.0355
 1236TIP3    H225200   4.629   5.033   3.569 -0.4228 -1.0833 -0.1440
 1237TIP3   OH225201   0.687   3.507  15.886 -0.0880  0.5314 -0.3760
 1237TIP3    H125202   0.603   3.467  15.863  0.4516 -1.3351  0.6939
 1237TIP3    H225203   0.747   3.477  15.817  0.1363  0.1898 -0.0334
 1238TIP3   OH225204   2.475   0.886   1.390 -0.4336  0.2459 -0.2708
 1238TIP3    H125205   2.380   0.895   1.381 -0.2290  1.1195 -1.8794
 1238TIP3    H225206   2.486   0.815   1.453 -2.1660 -1.6469 -1.9371
 1239TIP3   OH225207   4.578   6.059   1.535 -0.0572 -0.4364 -0.2742
 1239TIP3    H125208   4.608   6.063   1.626  0.3503  0.6701 -0.4402
 1239TIP3    H225209   4.634   5.994   1.493 -0.5496 -1.2864  0.3683
 1240TIP3   OH225210   1.970   0.163   5.534 -0.5024  0.5141  0.0086
 1240TIP3    H125211   2.021   0.216   5.473  0.8925 -1.2245 -0.4303
 1240TIP3    H225212   1.885   0.153   5.492  0.0022  0.4666 -1.0403
 1241TIP3   OH225213   2.249   3.555   5.209  0.2108 -0.4506 -0.3712
 1241TIP3    H125214   2.244   3.528   5.117  1.2424 -0.0197 -0.5648
 1241TIP3    H225215   2.242   3.473   5.258  0.8819 -0.8201 -0.8777
 1242TIP3   OH225216   4.494   3.065  12.894  0.2411 -0.2411 -0.1738
 1242TIP3    H125217   4.528   3.152  12.912  1.5428 -1.0770  1.7391
 1242TIP3    H225218   4.571   3.012  12.873 -0.1489 -1.5028  1.3283
 1243TIP3   OH225219   4.545   5.410   4.547  0.3137  0.3576  0.2225
 1243TIP3    H125220   4.464   5.459   4.563 -0.7774 -1.7143  1.3729
 1243TIP3    H225221   4.521   5.343   4.484  1.3678  0.2392 -0.0780
 1244TIP3   OH225222   3.367   1.163  12.114 -0.0763  0.0367  0.0774
 1244TIP3    H125223   3.391   1.207  12.196  2.1103 -1.3190  0.2513
 1244TIP3    H225224   3.384   1.228  12.046 -0.1933  0.5842  0.5600
 1245TIP3   OH225225   5.678   1.643   0.459 -0.1043 -0.4834  0.3610
 1245TIP3    H125226   5.689   1.730   0.498  2.2322 -1.0192  1.0613
 1245TIP3    H225227   5.624   1.596   0.522  0.1810 -0.0913  0.9123
 1246TIP3   OH225228   6.511   1.335   3.102 -0.2536  0.4694  0.2405
 1246TIP3    H125229   6.496   1.427   3.122 -0.7848  0.3717  0.3083
 1246TIP3    H225230   6.424   1.296   3.101 -0.1177  0.1631 -0.7558
 1247TIP3   OH225231   2.309   3.995   2.801  0.4729  0.1462 -0.4065
 1247TIP3    H125232   2.266   4.069   2.845  0.4647  1.4431 -2.4588
 1247TIP3    H225233   2.402   4.009   2.817  0.4401  0.2985 -0.3422
 1248TIP3   OH225234   2.553   5.480  12.545  0.1418 -0.2975 -0.3642
 1248TIP3    H125235   2.484   5.511  12.605  0.4404 -0.7460  0.2143
 1248TIP3    H225236   2.507   5.465  12.462 -0.3639 -0.1028 -0.1226
 1249TIP3   OH225237   5.629   2.539   0.672 -0.1494  0.8620 -0.2037
 1249TIP3    H125238   5.587   2.536   0.759 -1.0347  0.0434 -0.6416
 1249TIP3    H225239   5.702   2.478   0.678 -1.9245 -1.4649 -0.8608
 1250TIP3   OH225240   6.603   2.114  11.034  0.4723 -0.0655 -0.4702
 1250TIP3    H125241   6.577   2.157  11.116 -0.2026 -1.4173  0.0477
 1250TIP3    H225242   6.560   2.166  10.965 -0.6546 -0.1278  0.1602
 1251TIP3   OH225243   1.536   4.974   5.507 -0.0619 -0.5583  0.1007
 1251TIP3    H125244   1.528   5.069   5.515 -1.4863 -0.3494 -2.8209
 1251TIP3    H225245   1.615   4.961   5.454 -0.4141 -0.9384 -0.3401
 1252TIP3   OH225246   1.843   3.591   5.618  0.3498 -0.2981  0.0772
 1252TIP3    H125247   1.781   3.650   5.575 -0.9778 -0.4997  1.6382
 1252TIP3    H225248   1.806   3.575   5.704  3.9241  1.7521  2.2241
 1253TIP3   OH225249   1.243   5.902   4.551  0.3759 -0.4323 -0.1836
 1253TIP3    H125250   1.326   5.909   4.598  0.2023  1.1720 -0.0807
 1253TIP3    H225251   1.187   5.850   4.609  0.1107  1.6551  1.5373
 1254TIP3   OH225252   2.911   1.653   5.132  0.2910  0.2481 -0.3669
 1254TIP3    H125253   2.871   1.731   5.093  1.1193  0.0409 -1.7170
 1254TIP3    H225254   2.996   1.646   5.088  1.4803  0.1952  1.7696
 1255TIP3   OH225255   3.839   6.742   3.923  0.2179  0.0194 -0.1743
 1255TIP3    H125256   3.845   6.649   3.902 -1.0801 -0.4963  1.5136
 1255TIP3    H225257   3.753   6.768   3.890  0.6815  0.7128 -0.8759
 1256TIP3   OH225258   5.066   6.210  14.041  0.1082 -0.5089  0.3797
 1256TIP3    H125259   5.124   6.272  13.998  1.1563 -1.4280  0.4095
 1256TIP3    H225260   5.035   6.256  14.119 -0.4130  0.5291 -0.4124
 1257TIP3   OH225261   2.818   6.704   4.624 -0.1380  0.1015  0.2377
 1257TIP3    H125262   2.817   6.621   4.672  1.7045 -0.3080 -0.3454
 1257TIP3    H225263   2.802   6.679   4.532  1.3640  0.2509 -0.0820
 1258TIP3   OH225264   2.341   4.372   5.683 -0.0621 -0.1870  0.1520
 1258TIP3    H125265   2.343   4.322   5.602  0.1964  0.0659  0.0025
 1258TIP3    H225266   2.389   4.318   5.746  1.2719  0.4140 -0.3186
 1259TIP3   OH225267   6.455   0.027  14.751  0.2896 -0.3740  0.1624
 1259TIP3    H125268   6.395  -0.017  14.810  0.9769 -2.2132 -0.4200
 1259TIP3    H225269   6.402   0.093  14.706 -1.0406 -1.2911  0.3517
 1260TIP3   OH225270   6.570   0.632   3.403 -0.9732 -0.0823  0.3420
 1260TIP3    H125271   6.586   0.565   3.469  0.3294  0.2834  0.4370
 1260TIP3    H225272   6.654   0.677   3.394 -0.6341 -1.1008 -2.6847
 1261TIP3   OH225273   2.389   6.464   1.833 -0.0162  0.6983 -0.1416
 1261TIP3    H125274   2.441   6.517   1.773  0.3846 -0.0582 -0.4659
 1261TIP3    H225275   2.429   6.378   1.831 -1.2328  0.1165 -0.3375
 1262TIP3   OH225276   4.599   5.802   6.273  0.5915  0.0409  0.1413
 1262TIP3    H125277   4.528   5.861   6.246 -0.2986 -1.8562 -2.0055
 1262TIP3    H225278   4.561   5.752   6.345  0.4018  0.2843  0.2145
 1263TIP3   OH225279   2.571   1.797  15.147  0.0371 -0.4151  0.2009
 1263TIP3    H125280   2.504   1.851  15.188 -1.4047 -2.6475  0.9232
 1263TIP3    H225281   2.525   1.746  15.081  1.5892  0.0672 -1.3480
 1264TIP3   OH225282   3.663   6.650   3.094  0.2524 -0.1032  0.0419
 1264TIP3    H125283   3.750   6.680   3.067  0.0019  0.1506 -0.5064
 1264TIP3    H225284   3.602   6.709   3.049 -0.2466 -1.3149 -0.9405
 1265TIP3   OH225285   3.152   0.848   0.874  0.6472  0.4313  0.4075
 1265TIP3    H125286   3.118   0.853   0.964  1.3518 -1.1873  0.8019
 1265TIP3    H225287   3.082   0.806   0.824  0.7998  0.0586  0.5066
 1266TIP3   OH225288   0.890   5.092   4.219 -0.0047 -0.6700 -0.0196
 1266TIP3    H125289   0.840   5.140   4.285  0.4904 -1.0477  0.6429
 1266TIP3    H225290   0.825   5.034   4.178 -1.1234  1.9517 -2.3140
 1267TIP3   OH225291   6.191   1.266  15.564 -0.3905  0.5811  0.2684
 1267TIP3    H125292   6.187   1.350  15.610  1.0472 -0.1511  1.8549
 1267TIP3    H225293   6.141   1.205  15.619 -0.5104  0.1448 -0.3022
 1268TIP3   OH225294   6.436   6.133  13.309 -0.4676 -0.1292  0.3797
 1268TIP3    H125295   6.370   6.083  13.358 -0.9380  0.2071  0.0888
 1268TIP3    H225296   6.427   6.223  13.340  2.2255 -0.5702  2.9859
 1269TIP3   OH225297   4.401   0.557  15.577 -0.1365 -0.2088  0.4669
 1269TIP3    H125298   4.379   0.523  15.491  0.6912  1.2395 -0.3542
 1269TIP3    H225299   4.491   0.590  15.568 -0.3718  0.8315  1.5982
 1270TIP3   OH225300   6.652   6.620   3.168  0.1060  0.1893 -0.3086
 1270TIP3    H125301   6.600   6.687   3.124  0.2161  1.1285  0.9131
 1270TIP3    H225302   6.657   6.548   3.106 -2.3127  0.2254 -0.6468
 1271TIP3   OH225303   0.801   1.463   2.288  0.4118 -0.1768 -0.3964
 1271TIP3    H125304   0.748   1.527   2.337  2.5175  0.9005  0.5946
 1271TIP3    H225305   0.841   1.514   2.218  2.3575 -0.2622  0.5852
 1272TIP3   OH225306   0.021   5.057  12.870 -0.2729  0.6085 -0.3860
 1272TIP3    H125307   0.019   4.965  12.844 -0.3563  0.7521 -0.9180
 1272TIP3    H225308   0.102   5.091  12.832  0.1200  0.5866  0.4202
 1273TIP3   OH225309   4.539   6.649  16.254  0.4475 -0.1650 -0.6539
 1273TIP3    H125310   4.626   6.687  16.268 -0.3365  2.1937 -1.6382
 1273TIP3    H225311   4.508   6.625  16.341  1.0250  1.5441  0.0632
 1274TIP3   OH225312   5.437   5.338  10.781 -0.0883 -0.3396  0.2089
 1274TIP3    H125313   5.355   5.362  10.738 -0.1576 -1.6154 -0.4138
 1274TIP3    H225314   5.440   5.243  10.776  0.5538 -0.4402  1.8706
 1275TIP3   OH225315   0.273   1.885   1.248 -0.0287 -0.3836 -0.4458
 1275TIP3    H125316   0.222   1.804   1.239 -0.3660 -0.4927  1.9528
 1275TIP3    H225317   0.239   1.942   1.179  0.3038 -2.2684 -2.2810
 1276TIP3   OH225318   1.185   1.890  13.928  0.1590  0.2159  0.0065
 1276TIP3    H125319   1.132   1.877  13.849  0.4418 -0.1126 -0.1313
 1276TIP3    H225320   1.126   1.935  13.989 -0.0802  0.4158 -0.3692
 1277TIP3   OH225321   0.182   2.372  10.514 -0.3267  0.4056 -0.6144
 1277TIP3    H125322   0.254   2.393  10.454 -1.6669  1.1299 -2.0342
 1277TIP3    H225323   0.114   2.334  10.458 -0.3820 -2.0572  0.9763
 1278TIP3   OH225324   6.508   1.657   1.221 -0.4272 -0.0343 -0.3048
 1278TIP3    H125325   6.436   1.655   1.158 -1.5256 -0.7041  0.9352
 1278TIP3    H225326   6.508   1.747   1.254 -2.7072 -0.7117  1.8552
 1279TIP3   OH225327   5.474   5.349  11.448 -0.5520 -0.1901  0.7251
 1279TIP3    H125328   5.558   5.305  11.433 -1.2206 -1.1388 -0.3947
 1279TIP3    H225329   5.448   5.321  11.536  0.6784  0.7818  1.4253
 1280TIP3   OH225330   2.376   6.642   1.324  0.7226  0.4165 -0.3697
 1280TIP3    H125331   2.420   6.633   1.239 -0.6663 -0.2119 -1.0557
 1280TIP3    H225332   2.354   6.552   1.349 -1.9893  0.7873 -1.0830
 1281TIP3   OH225333   6.824   0.675  15.706  0.1187  0.0625 -0.2126
 1281TIP3    H125334   6.775   0.757  15.704  2.0981  1.3875  1.6487
 1281TIP3    H225335   6.847   0.659  15.614 -2.4312  0.1510 -0.9580
 1282TIP3   OH225336   0.633   4.703   3.521 -0.4466 -0.1412  0.5774
 1282TIP3    H125337   0.589   4.674   3.601  0.2358 -0.6858  0.7646
 1282TIP3    H225338   0.700   4.763   3.551  0.5699 -1.2199  0.5457
 1283TIP3   OH225339   2.917   3.933   0.827  0.4869  0.2913 -0.1520
 1283TIP3    H125340   2.839   3.982   0.803  1.4110  1.1114 -1.5750
 1283TIP3    H225341   2.890   3.841   0.819 -0.0757  0.5568 -1.5507
 1284TIP3   OH225342   6.789   3.541  12.117 -0.3099  0.1251 -0.2536
 1284TIP3    H125343   6.699   3.568  12.135 -0.2634 -0.4824  1.0183
 1284TIP3    H225344   6.806   3.571  12.027 -1.8938 -0.0848 -0.6470
 1285TIP3   OH225345   1.846   4.281   3.928 -0.7509 -0.4514  0.1207
 1285TIP3    H125346   1.854   4.204   3.871 -1.3649  0.2868 -0.9965
 1285TIP3    H225347   1.752   4.297   3.934 -0.6630 -0.2282  0.9544
 1286TIP3   OH225348   5.237   2.402  14.344 -0.3001 -0.2598  0.3189
 1286TIP3    H125349   5.221   2.496  14.341 -0.0186 -0.1099  2.0845
 1286TIP3    H225350   5.153   2.362  14.325 -0.6258  0.3574  0.4372
 1287TIP3   OH225351   4.693   4.145   4.624  0.6688  0.5906 -0.0892
 1287TIP3    H125352   4.775   4.096   4.614  0.1222  0.0045 -2.5882
 1287TIP3    H225353   4.694   4.208   4.552 -1.7528 -0.5622 -1.2839
 1288TIP3   OH225354   2.245   3.823  12.577  0.5027 -0.4918  0.3386
 1288TIP3    H125355   2.305   3.759  12.541 -0.1703 -0.2885 -1.2190
 1288TIP3    H225356   2.218   3.876  12.502  1.7591  2.2638  1.6770
 1289TIP3   OH225357   0.324   3.596  12.686  0.6119  0.2695 -0.6104
 1289TIP3    H125358   0.302   3.652  12.760  1.8619 -1.2276  0.9688
 1289TIP3    H225359   0.242   3.587  12.637 -0.2672  1.2230  0.6281
 1290TIP3   OH225360   6.096   2.373  12.400 -1.0923 -0.6228  0.0675
 1290TIP3    H125361   6.074   2.455  12.445 -0.8224 -0.3744 -0.2371
 1290TIP3    H225362   6.186   2.355  12.426 -0.3959  0.3398 -1.5275
 1291TIP3   OH225363   2.870   4.907   4.664 -0.2786 -0.1529  0.1340
 1291TIP3    H125364   2.894   4.819   4.635  1.6364  0.4881 -0.3388
 1291TIP3    H225365   2.800   4.933   4.604  0.8944 -0.3863 -1.3921
 1292TIP3   OH225366   0.524   1.785   0.059  0.7368 -0.0875  0.1332
 1292TIP3    H125367   0.452   1.730   0.029  2.2401 -1.5775 -0.8515
 1292TIP3    H225368   0.583   1.725   0.104  1.4647  1.0858  0.7986
 1293TIP3   OH225369   6.089   1.199  14.598 -0.8412 -0.1190 -0.1490
 1293TIP3    H125370   6.174   1.156  14.609  0.3325  2.0623 -0.1455
 1293TIP3    H225371   6.041   1.142  14.538  2.0208  0.3219 -3.1764
 1294TIP3   OH225372   3.618   0.418  15.602 -0.4285 -0.1624  0.2496
 1294TIP3    H125373   3.547   0.365  15.638 -0.0470  0.2373  1.6287
 1294TIP3    H225374   3.696   0.364  15.614  0.1648  1.1477  2.8234
 1295TIP3   OH225375   4.315   2.451  12.839  0.0259  0.2032  0.0089
 1295TIP3    H125376   4.272   2.526  12.798  0.7530 -0.1734 -1.4707
 1295TIP3    H225377   4.244   2.388  12.852 -0.3190  0.5588 -0.1216
 1296TIP3   OH225378   2.881   5.504   6.295  0.3464  0.0924  0.3119
 1296TIP3    H125379   2.927   5.519   6.378  0.3165  0.3214  0.2874
 1296TIP3    H225380   2.951   5.488   6.231  0.3773  0.0867  0.3471
 1297TIP3   OH225381   4.047   1.810  10.951 -0.3920 -0.3913 -0.3712
 1297TIP3    H125382   3.971   1.755  10.969 -0.3842 -0.6954 -1.2299
 1297TIP3    H225383   4.029   1.849  10.865  0.5461 -0.6781 -0.7086
 1298TIP3   OH225384   2.713   1.266   4.021  0.0142 -0.2323  0.3113
 1298TIP3    H125385   2.744   1.194   3.967 -1.9008 -0.5138 -0.4905
 1298TIP3    H225386   2.740   1.242   4.110 -1.4621 -2.5436  0.2445
 1299TIP3   OH225387   2.724   2.876   0.792  0.0467 -0.5495 -0.6809
 1299TIP3    H125388   2.792   2.879   0.860  0.1662 -0.2213 -0.8117
 1299TIP3    H225389   2.688   2.788   0.798 -0.1197 -0.4431 -0.0194
 1300TIP3   OH225390   0.741   5.333  13.945 -0.1555  0.5146 -0.1687
 1300TIP3    H125391   0.809   5.377  13.894 -1.3995  2.0477 -0.5444
 1300TIP3    H225392   0.659   5.366  13.910 -1.0899  1.6712  2.8078
 1301TIP3   OH225393   3.106   0.231  16.621  0.3036  0.2755  0.9735
 1301TIP3    H125394   3.174   0.166  16.635 -0.4431 -0.9344 -0.6899
 1301TIP3    H225395   3.024   0.181  16.620 -0.2831  1.1791 -0.4498
 1302TIP3   OH225396   1.926   4.239  14.411 -0.7872  0.2511 -0.4176
 1302TIP3    H125397   1.889   4.324  14.388  0.4926  1.2275  0.8927
 1302TIP3    H225398   1.939   4.195  14.328 -1.2718  1.4449 -1.1520
 1303TIP3   OH225399   5.740   6.213   1.858  0.4525 -0.2259 -0.1031
 1303TIP3    H125400   5.664   6.159   1.839 -0.1363  0.1384  1.0746
 1303TIP3    H225401   5.781   6.171   1.934 -0.0622  0.9858  0.8812
 1304TIP3   OH225402   2.200   3.316   3.297 -0.0322 -0.2229 -0.0565
 1304TIP3    H125403   2.187   3.340   3.389 -1.2550  0.8633 -0.4683
 1304TIP3    H225404   2.206   3.221   3.298 -0.5875 -0.2724  1.0928
 1305TIP3   OH225405   3.275   4.527  13.278 -0.0153 -0.5267 -0.0576
 1305TIP3    H125406   3.296   4.440  13.312 -1.0244 -0.1870  1.5609
 1305TIP3    H225407   3.347   4.582  13.307  1.5070 -1.0663 -2.5261
 1306TIP3   OH225408   0.739   0.128  16.158 -0.3743  0.6368  0.5978
 1306TIP3    H125409   0.808   0.184  16.194  0.0636 -1.2659  2.9667
 1306TIP3    H225410   0.785   0.048  16.131 -1.4428 -0.0490  0.7477
 1307TIP3   OH225411   5.380   6.505  15.726 -0.5113 -0.1019  0.7598
 1307TIP3    H125412   5.293   6.475  15.752 -0.0741 -1.6932  0.4981
 1307TIP3    H225413   5.436   6.485  15.801 -0.3649  0.9295  0.9345
 1308TIP3   OH225414   4.683   0.441  14.011  0.6418  0.2449  0.1578
 1308TIP3    H125415   4.691   0.524  14.057  0.5224  1.3993 -1.7855
 1308TIP3    H225416   4.749   0.446  13.941  1.1405 -1.6204  0.4368
 1309TIP3   OH225417   0.697   3.071   3.669  0.6749  0.1501  0.1141
 1309TIP3    H125418   0.674   3.057   3.577 -0.3773  0.3994  0.3241
 1309TIP3    H225419   0.617   3.109   3.708  0.9790 -0.3080  1.2131
 1310TIP3   OH225420   4.097   2.830   4.282 -0.4221 -0.6416 -0.2883
 1310TIP3    H125421   4.023   2.790   4.326 -1.0601  0.8916  0.1235
 1310TIP3    H225422   4.061   2.909   4.241  1.0849  0.5650  0.5750
 1311TIP3   OH225423   1.197   2.358  14.689  0.4062 -0.0437 -0.0257
 1311TIP3    H125424   1.150   2.335  14.769  0.5622  0.2070  0.1396
 1311TIP3    H225425   1.197   2.278  14.637 -0.0786 -0.0855  0.0360
 1312TIP3   OH225426   1.300   2.230  14.036  0.6588  0.0724  0.2285
 1312TIP3    H125427   1.206   2.230  14.048  0.9149 -1.2855  2.9475
 1312TIP3    H225428   1.315   2.171  13.963 -0.6217  1.4060 -1.1769
 1313TIP3   OH225429   3.757   4.738  12.393  0.0517  0.2229 -0.3725
 1313TIP3    H125430   3.728   4.754  12.303  3.3009 -0.8327 -1.7573
 1313TIP3    H225431   3.808   4.657  12.388  2.0905  1.2278  1.9410
 1314TIP3   OH225432   5.484   1.694   1.461  0.1087  0.2110 -0.5324
 1314TIP3    H125433   5.501   1.778   1.418  0.5417  1.0573  1.2041
 1314TIP3    H225434   5.390   1.680   1.450  0.5536 -1.1109 -4.2593
 1315TIP3   OH225435   3.583   3.182  12.471  0.5363 -0.4052 -0.2762
 1315TIP3    H125436   3.627   3.108  12.513 -1.5768 -1.2740  0.4973
 1315TIP3    H225437   3.576   3.156  12.379  0.1321 -1.0121 -0.0786
 1316TIP3   OH225438   0.861   4.671  12.912 -0.3334  0.1948  0.1299
 1316TIP3    H125439   0.925   4.741  12.931  0.7444 -0.1577 -1.8928
 1316TIP3    H225440   0.912   4.590  12.916 -0.9109 -0.2008 -0.3205
 1317TIP3   OH225441   2.719   6.227   6.531  0.3631 -0.4526 -0.7371
 1317TIP3    H125442   2.721   6.133   6.547  0.0648 -0.5591 -1.3186
 1317TIP3    H225443   2.811   6.252   6.521  0.7014 -0.2159  1.9879
 1318TIP3   OH225444   5.683   4.981   2.863 -0.1694  0.9621  0.2932
 1318TIP3    H125445   5.588   4.987   2.863 -0.2848 -0.3436 -0.2243
 1318TIP3    H225446   5.705   4.945   2.949 -0.2943 -0.2390 -0.1587
 1319TIP3   OH225447   3.929   6.020   0.898  0.0478  0.0655 -0.8224
 1319TIP3    H125448   3.863   6.066   0.846  0.0930  1.7265  0.5082
 1319TIP3    H225449   3.934   6.070   0.979  0.9643 -1.6547  0.2232
 1320TIP3   OH225450   6.538   6.395  11.529 -0.8336 -0.0556  0.0013
 1320TIP3    H125451   6.482   6.365  11.457 -0.2075 -2.2256  0.3449
 1320TIP3    H225452   6.507   6.345  11.605 -0.6151  1.2266  0.9710
 1321TIP3   OH225453   2.260   5.245  16.788 -0.1364  0.0009  0.5389
 1321TIP3    H125454   2.207   5.190  16.845 -2.2104  1.6028  0.2884
 1321TIP3    H225455   2.346   5.203  16.786 -1.3825 -2.7331  0.9580
 1322TIP3   OH225456   3.229   6.520   0.118 -0.5064 -0.0749 -0.3811
 1322TIP3    H125457   3.241   6.461   0.192 -0.2882 -0.6774 -0.8837
 1322TIP3    H225458   3.316   6.524   0.077  0.3306  3.0255  1.3819
 1323TIP3   OH225459   3.860   4.322   2.149 -0.0979  0.2319  0.2037
 1323TIP3    H125460   3.844   4.416   2.151  1.6519  0.5909 -0.3821
 1323TIP3    H225461   3.835   4.295   2.061 -1.1009  0.0284  0.5402
 1324TIP3   OH225462   1.778   5.993  13.058  0.9343  0.0088  0.7056
 1324TIP3    H125463   1.869   5.977  13.084  1.2026 -1.0212 -0.7328
 1324TIP3    H225464   1.736   6.027  13.136  1.7793 -2.4629  2.3429
 1325TIP3   OH225465   3.677   3.937   1.134  0.3084 -0.1863  0.0754
 1325TIP3    H125466   3.640   3.929   1.046 -0.5037 -0.5224  0.4371
 1325TIP3    H225467   3.634   3.868   1.184  0.8788 -0.0949  0.7013
 1326TIP3   OH225468   5.238   6.650   1.670 -0.3881  0.1543  0.1708
 1326TIP3    H125469   5.197   6.719   1.616  0.9400  0.5569 -0.3561
 1326TIP3    H225470   5.297   6.605   1.610  0.3528 -0.0622  1.0490
 1327TIP3   OH225471   3.215   2.259   4.526  0.0345 -0.2661  0.0115
 1327TIP3    H125472   3.125   2.254   4.496  0.0873 -0.7497 -0.0697
 1327TIP3    H225473   3.247   2.169   4.522  0.3127 -0.2026  0.6838
 1328TIP3   OH225474   1.043   1.197   5.236  0.4659  0.0797 -0.1170
 1328TIP3    H125475   1.109   1.220   5.170  0.5216 -1.1673 -0.5219
 1328TIP3    H225476   1.090   1.142   5.298 -0.1238 -0.6251 -0.2789
 1329TIP3   OH225477   2.877   2.399  15.969 -0.1418  0.1263  0.7562
 1329TIP3    H125478   2.944   2.468  15.965  0.6369 -0.6536 -0.5507
 1329TIP3    H225479   2.859   2.388  16.062  1.1524  0.7516  1.1106
 1330TIP3   OH225480   6.454   2.330  12.167  0.0055 -0.3173  0.2496
 1330TIP3    H125481   6.518   2.334  12.096  0.1368  1.4130  0.4050
 1330TIP3    H225482   6.380   2.283  12.131 -0.7250  2.1446 -1.7645
 1331TIP3   OH225483   6.201   5.095   2.170  0.0496  0.2384  0.1847
 1331TIP3    H125484   6.191   5.184   2.136 -0.6316  0.3313  0.6113
 1331TIP3    H225485   6.296   5.084   2.179  0.2272  0.3241 -1.4003
 1332TIP3   OH225486   2.033   6.035   1.862 -0.6074  0.1513 -0.6443
 1332TIP3    H125487   1.983   6.013   1.783 -0.0358  1.3138 -1.3548
 1332TIP3    H225488   2.123   6.045   1.831 -0.1436 -0.6832  0.4030
 1333TIP3   OH225489   0.779   1.304  14.844  0.4530  0.2723 -0.1357
 1333TIP3    H125490   0.731   1.238  14.894 -1.5296  2.2914  0.7734
 1333TIP3    H225491   0.847   1.254  14.798 -0.7645 -2.3325  0.7071
 1334TIP3   OH225492   2.319   1.662  14.724  0.1082  0.2107  0.1372
 1334TIP3    H125493   2.381   1.597  14.689  1.0951  1.5110 -0.5995
 1334TIP3    H225494   2.338   1.742  14.675 -0.8236  1.1653  1.2880
 1335TIP3   OH225495   2.950   4.032  11.773 -0.0787  0.2808 -0.1378
 1335TIP3    H125496   2.870   4.083  11.783 -0.2688 -0.3015  1.6153
 1335TIP3    H225497   2.971   4.038  11.680 -1.5432  1.3463 -0.4277
 1336TIP3   OH225498   3.886   0.856   3.844  0.0661 -0.1663 -0.4897
 1336TIP3    H125499   3.966   0.895   3.878 -0.4627 -0.2492  0.9551
 1336TIP3    H225500   3.851   0.921   3.783  0.1024  0.8579  0.5454
 1337TIP3   OH225501   0.043   0.771   1.870  0.0084  0.1393 -0.2153
 1337TIP3    H125502   0.051   0.728   1.785 -0.6813 -1.3737  0.4369
 1337TIP3    H225503  -0.052   0.775   1.886  0.0323  2.0573 -0.2825
 1338TIP3   OH225504   6.699   1.707   0.970 -0.2341  0.2983 -0.6791
 1338TIP3    H125505   6.683   1.635   0.909 -1.4297  0.4117 -0.5178
 1338TIP3    H225506   6.661   1.678   1.053 -0.8341  1.1502 -0.6409
 1339TIP3   OH225507   0.054   5.788   3.998  0.7170 -0.0027 -0.2297
 1339TIP3    H125508   0.136   5.744   3.973  0.5575  0.6152 -1.9704
 1339TIP3    H225509   0.045   5.859   3.934 -2.2802 -1.3656 -1.4816
 1340TIP3   OH225510   2.567   3.242   5.786 -0.2459  0.4384  0.0249
 1340TIP3    H125511   2.599   3.155   5.761 -1.4747 -0.2055  0.6322
 1340TIP3    H225512   2.608   3.259   5.871 -2.9875 -1.3110  1.8547
 1341TIP3   OH225513   2.934   5.804  14.880  0.5361  0.4544 -0.2966
 1341TIP3    H125514   2.940   5.883  14.933 -1.5392  0.3583  0.1583
 1341TIP3    H225515   2.882   5.830  14.804 -2.3268 -0.9504  1.0263
 1342TIP3   OH225516   5.161   4.735  13.162  0.1035  0.1267 -0.0900
 1342TIP3    H125517   5.185   4.670  13.229  0.7860 -0.2558 -0.6925
 1342TIP3    H225518   5.227   4.803  13.170  0.9386 -0.5225 -1.1913
 1343TIP3   OH225519   0.547   6.728   1.495  0.2565  0.0125 -0.1125
 1343TIP3    H125520   0.587   6.736   1.409 -0.5754 -1.5783 -0.7023
 1343TIP3    H225521   0.455   6.705   1.477  0.1049 -0.5006  1.1712
 1344TIP3   OH225522   0.261   4.770   4.040  1.1434 -0.6020  0.0789
 1344TIP3    H125523   0.247   4.732   4.127 -0.0264 -0.8412 -0.2076
 1344TIP3    H225524   0.343   4.819   4.049  0.3838  0.4729  1.6966
 1345TIP3   OH225525   6.585   0.552   5.276 -0.5186 -0.3263  0.4830
 1345TIP3    H125526   6.632   0.542   5.359  0.8913 -1.1644 -0.3912
 1345TIP3    H225527   6.566   0.463   5.248 -0.3360 -0.0752 -0.4635
 1346TIP3   OH225528   3.654   4.980   2.866  0.3008 -0.3951 -0.0436
 1346TIP3    H125529   3.707   5.059   2.872  1.6129 -1.0513 -1.9329
 1346TIP3    H225530   3.690   4.921   2.932 -0.7213  0.5391  1.4136
 1347TIP3   OH225531   1.416   6.113   4.022 -0.4580 -0.2971 -0.2358
 1347TIP3    H125532   1.363   6.193   4.013  1.6962  1.4911  1.5455
 1347TIP3    H225533   1.391   6.078   4.108 -1.8909 -2.0299 -1.2960
 1348TIP3   OH225534   2.573   3.297   5.264 -0.0377  0.5260  0.1868
 1348TIP3    H125535   2.513   3.285   5.338  1.0345 -2.3776  0.7427
 1348TIP3    H225536   2.660   3.284   5.301  0.8373  2.6307 -0.9784
 1349TIP3   OH225537   2.654   6.593   6.203  0.1775  0.4114 -0.1010
 1349TIP3    H125538   2.691   6.637   6.279  0.7161 -0.8842  0.4157
 1349TIP3    H225539   2.579   6.647   6.178  1.1228  1.8981  0.1551
 1350TIP3   OH225540   1.101   2.224   3.268 -0.5647  0.2709 -0.0244
 1350TIP3    H125541   1.062   2.237   3.355 -3.9008  0.2101 -1.3610
 1350TIP3    H225542   1.046   2.277   3.209  1.9260  0.7616 -2.0684
 1351TIP3   OH225543   2.736   4.439  14.588  0.6233 -0.2805  0.4852
 1351TIP3    H125544   2.764   4.514  14.536 -0.0222  0.1095  0.7006
 1351TIP3    H225545   2.785   4.446  14.670  2.9645 -1.8257 -0.6533
 1352TIP3   OH225546   1.747   2.917  17.240 -0.3247 -0.8345 -0.2876
 1352TIP3    H125547   1.815   2.860  17.204 -0.2101 -0.8252 -0.0872
 1352TIP3    H225548   1.707   2.865  17.310  0.4915 -0.2802  0.6130
 1353TIP3   OH225549   2.830   1.851  13.986  0.2712  0.3447 -0.2008
 1353TIP3    H125550   2.851   1.945  13.986  2.7069 -0.0634 -2.7785
 1353TIP3    H225551   2.858   1.820  13.899  0.3230 -2.9431  0.8540
 1354TIP3   OH225552   3.580   5.921   1.154  0.2900  0.2386  0.5923
 1354TIP3    H125553   3.665   5.877   1.145  1.2008  1.9928  0.3092
 1354TIP3    H225554   3.569   5.933   1.248  0.1709 -0.3161  0.6532
 1355TIP3   OH225555   4.916   6.632   4.033  0.2305 -0.0659  0.3415
 1355TIP3    H125556   4.851   6.699   4.053  0.7923  0.9143 -0.9612
 1355TIP3    H225557   4.932   6.641   3.939  2.8007  0.2805  0.7210
 1356TIP3   OH225558   4.299   1.581  11.796  0.3588 -0.1354 -0.1131
 1356TIP3    H125559   4.344   1.497  11.787 -1.3602 -1.0306 -0.7652
 1356TIP3    H225560   4.236   1.567  11.867  0.8624  1.0090  0.5970
 1357TIP3   OH225561   5.617   1.496  16.033 -0.1443  0.1734  0.7011
 1357TIP3    H125562   5.612   1.411  16.077 -0.5227  0.2981  0.9065
 1357TIP3    H225563   5.528   1.513  16.003 -0.2129  0.7957  1.2427
 1358TIP3   OH225564   4.805   3.324  15.230 -0.2844  0.2785 -0.3248
 1358TIP3    H125565   4.784   3.358  15.143 -0.2425 -1.0511 -0.8863
 1358TIP3    H225566   4.878   3.264  15.215 -0.6477 -0.4094  0.5278
 1359TIP3   OH225567   6.115   4.045   4.836 -0.4212  0.7864 -0.5852
 1359TIP3    H125568   6.204   4.017   4.816 -0.5377  0.1843 -0.2982
 1359TIP3    H225569   6.074   4.060   4.751 -0.2954  0.2551 -0.7443
 1360TIP3   OH225570   2.456   4.792   0.467 -0.6066 -0.5281  0.0132
 1360TIP3    H125571   2.489   4.744   0.543  0.4084  0.7015  0.3941
 1360TIP3    H225572   2.366   4.761   0.456 -1.0478 -0.2016  2.1982
 1361TIP3   OH225573   5.153   0.600   2.400  0.5062 -0.0795 -0.0576
 1361TIP3    H125574   5.083   0.630   2.458  0.7708  1.6195 -0.5889
 1361TIP3    H225575   5.219   0.563   2.460  0.4326  0.9503  0.6790
 1362TIP3   OH225576   3.316   4.685   4.666 -0.3231 -0.8231  0.3640
 1362TIP3    H125577   3.267   4.603   4.679 -0.4966 -0.4385  2.4659
 1362TIP3    H225578   3.262   4.735   4.604 -1.5467 -1.2691  1.0267
 1363TIP3   OH225579   4.892   1.594  13.211 -0.2049  0.0932  0.7277
 1363TIP3    H125580   4.834   1.607  13.286 -2.3345 -0.6710 -0.6894
 1363TIP3    H225581   4.874   1.669  13.154 -0.2058 -0.4299  0.0286
 1364TIP3   OH225582   5.723   0.818   1.742 -0.2563  0.6996 -0.2363
 1364TIP3    H125583   5.646   0.798   1.795 -0.3562  0.9800 -0.2737
 1364TIP3    H225584   5.688   0.841   1.656 -0.0087 -2.1622 -1.2293
 1365TIP3   OH225585   4.891   4.639  15.584 -1.1715 -0.4048  0.2731
 1365TIP3    H125586   4.982   4.641  15.611 -0.7444  0.6164 -1.1312
 1365TIP3    H225587   4.884   4.564  15.525 -0.6329  0.8037 -1.4307
 1366TIP3   OH225588   0.325   2.448   4.406  0.0690  0.2625  0.3986
 1366TIP3    H125589   0.386   2.510   4.366  0.0343  0.0369 -0.0064
 1366TIP3    H225590   0.361   2.362   4.384 -2.4871 -0.0758 -3.4198
 1367TIP3   OH225591   2.834   0.762   4.339 -0.7340 -0.5728  0.9806
 1367TIP3    H125592   2.744   0.730   4.351 -1.5301  1.8035  1.7909
 1367TIP3    H225593   2.889   0.690   4.370 -2.3099 -2.2310  0.1294
 1368TIP3   OH225594   0.969   6.604   1.504  0.6200 -0.1101  0.0713
 1368TIP3    H125595   1.035   6.638   1.564  0.8199  1.4293 -0.9809
 1368TIP3    H225596   1.007   6.618   1.417  1.2384 -4.0748 -0.4921
 1369TIP3   OH225597   0.508   1.072   0.046 -0.4003  0.2324  0.1115
 1369TIP3    H125598   0.508   1.115  -0.040 -1.2699  0.8528  0.3963
 1369TIP3    H225599   0.501   0.979   0.026 -2.3829  0.4567 -0.5052
 1370TIP3   OH225600   1.187   4.772   1.348  0.2655 -0.0637  0.7176
 1370TIP3    H125601   1.253   4.711   1.316 -1.0989 -0.4445 -1.6259
 1370TIP3    H225602   1.163   4.739   1.435  1.8068 -0.9736  0.8236
 1371TIP3   OH225603   2.158   6.399   4.627 -0.3822 -0.0214  0.3986
 1371TIP3    H125604   2.169   6.434   4.539  0.2935 -0.4904  0.2901
 1371TIP3    H225605   2.216   6.323   4.630 -3.1688 -2.3559 -0.0239
 1372TIP3   OH225606   5.932   2.249   4.337 -0.5010  0.4584 -0.3544
 1372TIP3    H125607   5.904   2.332   4.297  0.3440 -0.1526 -2.3357
 1372TIP3    H225608   6.021   2.235   4.304 -0.6661 -1.2755 -0.1460
 1373TIP3   OH225609   3.920   5.306  14.667 -0.2628 -0.0552 -0.0158
 1373TIP3    H125610   4.001   5.333  14.710 -1.3932 -0.2354  2.3975
 1373TIP3    H225611   3.857   5.375  14.689 -1.2719 -0.9216 -0.1197
 1374TIP3   OH225612   4.003   6.430   3.496  0.6527  0.3892 -0.3617
 1374TIP3    H125613   3.927   6.486   3.480  0.5041  0.9164  1.8635
 1374TIP3    H225614   3.966   6.342   3.508  0.2071  0.7994  1.6739
 1375TIP3   OH225615   3.618   3.390   1.049  0.7131  0.4250  0.5179
 1375TIP3    H125616   3.710   3.402   1.025  1.1002  0.6616  2.0232
 1375TIP3    H225617   3.570   3.402   0.967  2.0400 -0.0467 -0.3638
 1376TIP3   OH225618   5.810   3.363   5.306 -0.6773 -1.1795  0.0458
 1376TIP3    H125619   5.891   3.401   5.272 -0.1737 -1.6342  0.7155
 1376TIP3    H225620   5.750   3.364   5.232  0.0909 -1.2518 -0.5905
 1377TIP3   OH225621   3.817   6.356   5.941  0.1298  0.0626 -0.5385
 1377TIP3    H125622   3.778   6.387   5.859  0.7496  1.4692 -0.3217
 1377TIP3    H225623   3.804   6.427   6.003 -0.1801 -0.9206  0.5589
 1378TIP3   OH225624   0.016   6.660  11.966 -0.6364 -0.2484 -0.2077
 1378TIP3    H125625   0.050   6.664  11.876 -1.6274 -2.0506 -0.7100
 1378TIP3    H225626   0.092   6.636  12.019 -0.5819 -1.9853 -1.0019
 1379TIP3   OH225627   0.824   2.310  15.783  0.1356 -0.5019 -0.6202
 1379TIP3    H125628   0.863   2.234  15.824 -1.3549 -0.1342  1.6286
 1379TIP3    H225629   0.876   2.384  15.814 -0.6168 -0.2831  0.1631
 1380TIP3   OH225630   2.792   0.543  17.020 -0.2158  0.2669  0.1296
 1380TIP3    H125631   2.722   0.598  17.055  0.3884  2.0033 -1.2034
 1380TIP3    H225632   2.848   0.524  17.095 -0.3339  1.7007  0.6137
 1381TIP3   OH225633   2.103   0.846   6.412  0.5686  0.1354 -0.0412
 1381TIP3    H125634   2.030   0.786   6.431  0.2585  0.3818 -0.4322
 1381TIP3    H225635   2.075   0.929   6.450  0.1351  0.5204 -1.1682
 1382TIP3   OH225636   3.391   6.408  14.152 -0.2207 -0.3879  0.2925
 1382TIP3    H125637   3.372   6.502  14.147 -1.9344 -0.6256  1.4155
 1382TIP3    H225638   3.478   6.399  14.113 -0.9830  1.3243 -1.9927
 1383TIP3   OH225639   0.716   4.325  13.049 -0.4198 -0.3871 -0.1527
 1383TIP3    H125640   0.654   4.302  12.979 -0.3425 -1.9563  0.2558
 1383TIP3    H225641   0.671   4.394  13.099 -0.9386 -0.0219 -1.0864
 1384TIP3   OH225642   1.891   6.170  15.811 -0.2641 -0.4557 -0.7679
 1384TIP3    H125643   1.918   6.251  15.768 -0.3804 -0.9555 -1.8183
 1384TIP3    H225644   1.796   6.166  15.797  0.0286 -1.9352 -2.8865
 1385TIP3   OH225645   6.714   2.300   2.911  0.1306  0.0085  0.2016
 1385TIP3    H125646   6.674   2.237   2.970 -1.9459  0.0464 -1.0550
 1385TIP3    H225647   6.647   2.317   2.845  1.2093  2.3288 -0.4019
 1386TIP3   OH225648   0.932   3.616  12.011 -0.1323 -0.6038  0.0952
 1386TIP3    H125649   0.867   3.548  11.991 -4.8082  4.0029 -2.8215
 1386TIP3    H225650   0.895   3.662  12.087  1.8703 -0.0984  0.8126
 1387TIP3   OH225651   1.972   2.560  14.767 -0.3987  0.1832  0.2943
 1387TIP3    H125652   2.063   2.575  14.744  0.0107 -1.3709  0.8247
 1387TIP3    H225653   1.963   2.598  14.855 -0.4225  0.8201  0.0242
 1388TIP3   OH225654   0.213   2.834  13.103 -0.0745 -0.0922 -0.2651
 1388TIP3    H125655   0.229   2.909  13.160  0.3137 -0.6907  0.4323
 1388TIP3    H225656   0.126   2.803  13.128 -0.4341  0.3973 -0.8786
 1389TIP3   OH225657   2.970   4.609   3.718 -0.3036 -0.1115 -0.2011
 1389TIP3    H125658   2.942   4.528   3.759 -2.8491  0.2666 -1.0170
 1389TIP3    H225659   3.033   4.647   3.779 -1.1026 -1.4029  1.4968
 1390TIP3   OH225660   3.390   5.405  12.332  0.0548 -0.2629 -0.0798
 1390TIP3    H125661   3.369   5.448  12.414  0.3606 -1.9431  0.9206
 1390TIP3    H225662   3.433   5.473  12.280 -0.9985  1.0975  0.7397
 1391TIP3   OH225663   3.687   2.890  13.025  0.6383  0.7801 -0.4836
 1391TIP3    H125664   3.778   2.912  13.045  1.0301 -1.2034  0.1399
 1391TIP3    H225665   3.692   2.847  12.940  0.4418 -0.2145 -0.0042
 1392TIP3   OH225666   4.365   6.296  11.946 -0.6166 -0.0873  0.1270
 1392TIP3    H125667   4.344   6.377  11.993  1.3698  0.1537  0.6709
 1392TIP3    H225668   4.366   6.322  11.854 -0.6360  0.3555  0.2480
 1393TIP3   OH225669   1.302   4.992  17.195  0.0637 -0.2421 -0.4927
 1393TIP3    H125670   1.365   4.925  17.224 -1.2752 -0.7882  1.3406
 1393TIP3    H225671   1.348   5.075  17.207  1.2263 -0.7096 -1.4084
 1394TIP3   OH225672   6.596   6.559   0.208 -0.0783 -1.0347 -0.3046
 1394TIP3    H125673   6.577   6.625   0.141 -0.0331 -0.5028  0.1925
 1394TIP3    H225674   6.584   6.475   0.164  0.0325 -0.6911 -0.9974
 1395TIP3   OH225675   3.582   1.494  14.823 -0.1287  0.5768 -0.3135
 1395TIP3    H125676   3.638   1.435  14.773 -1.4526  0.0258 -1.2065
 1395TIP3    H225677   3.610   1.582  14.798 -1.2072  0.3273 -2.6288
 1396TIP3   OH225678   1.878   1.520  14.211  0.4574  0.0931 -0.3855
 1396TIP3    H125679   1.862   1.569  14.292 -0.3338 -1.4940  0.4460
 1396TIP3    H225680   1.966   1.483  14.222  0.2335 -0.3597 -0.1350
 1397TIP3   OH225681   2.185   1.277  16.694 -0.5324  1.0304 -0.0932
 1397TIP3    H125682   2.095   1.302  16.710 -0.9496  0.6087 -1.6445
 1397TIP3    H225683   2.180   1.185  16.668  0.3715  0.9329  0.0289
 1398TIP3   OH225684   6.370   4.720  15.154  0.0328  0.0775 -0.0761
 1398TIP3    H125685   6.284   4.760  15.143 -0.5908 -1.2972 -0.4221
 1398TIP3    H225686   6.429   4.777  15.104 -1.0325 -0.0958 -1.6292
 1399TIP3   OH225687   4.942   2.692   4.838 -0.0845  0.0500 -0.3683
 1399TIP3    H125688   5.000   2.625   4.802  0.0236 -0.7478  1.2335
 1399TIP3    H225689   4.857   2.649   4.847  0.1893 -0.1976  1.4761
 1400TIP3   OH225690   3.964   5.789  13.297  0.2108 -0.1326  0.4246
 1400TIP3    H125691   3.956   5.751  13.209 -0.6183  0.1900  0.3526
 1400TIP3    H225692   4.046   5.754  13.331  1.0970  0.5671 -0.8964
 1401TIP3   OH225693   1.846   1.962  16.405 -0.5427  0.1898 -0.7757
 1401TIP3    H125694   1.825   2.013  16.484 -1.0394 -0.5946 -0.3840
 1401TIP3    H225695   1.760   1.942  16.367 -0.4220 -1.2981 -0.3013
 1402TIP3   OH225696   0.190   2.232   1.704 -0.0614 -0.3552 -0.2686
 1402TIP3    H125697   0.218   2.186   1.625  0.0436  2.5109 -2.0346
 1402TIP3    H225698   0.221   2.322   1.692 -2.6475  0.9263  1.6334
 1403TIP3   OH225699   6.743   3.379   1.044  0.6200  0.0903  0.0527
 1403TIP3    H125700   6.765   3.403   1.134 -0.5108 -0.6489  0.5505
 1403TIP3    H225701   6.775   3.452   0.991  1.3261  0.5211  1.0403
 1404TIP3   OH225702   2.836   2.479   3.747 -0.1196 -0.7680  0.0796
 1404TIP3    H125703   2.756   2.454   3.794  0.6057 -0.6224  1.4348
 1404TIP3    H225704   2.857   2.403   3.693 -1.0293 -0.9008 -0.1053
 1405TIP3   OH225705   2.418   5.921   4.671  0.8691 -0.0769 -0.3050
 1405TIP3    H125706   2.372   5.848   4.630 -0.4312  0.5120  0.0518
 1405TIP3    H225707   2.401   5.912   4.765  0.2718  0.9479 -0.2955
 1406TIP3   OH225708   6.694   4.511  11.682 -0.0810 -0.6558  0.2729
 1406TIP3    H125709   6.612   4.559  11.673  0.1344 -0.1251  1.0181
 1406TIP3    H225710   6.705   4.466  11.599 -0.5299  0.2283 -0.2820
 1407TIP3   OH225711   6.521   5.628  12.135  0.2762  0.0771 -0.0843
 1407TIP3    H125712   6.573   5.574  12.076  0.2231  0.3020 -0.3399
 1407TIP3    H225713   6.433   5.592  12.130  0.4474 -0.4554  0.5315
 1408TIP3   OH225714   3.315   0.404   5.854  0.0686 -0.3030 -0.4199
 1408TIP3    H125715   3.301   0.412   5.948  1.5970  1.4245 -0.2772
 1408TIP3    H225716   3.358   0.486   5.829 -0.2675 -0.7318 -2.6284
 1409TIP3   OH225717   6.261   2.631   4.407 -0.0789 -0.1926 -0.3536
 1409TIP3    H125718   6.307   2.702   4.361  0.8510  0.2353  1.1788
 1409TIP3    H225719   6.328   2.588   4.459 -1.2058 -0.1884  1.1722
 1410TIP3   OH225720   1.601   0.818  16.206  0.1287  0.6526  0.7865
 1410TIP3    H125721   1.628   0.908  16.223  0.7036  0.6685 -0.1550
 1410TIP3    H225722   1.600   0.810  16.111 -0.7183 -0.1020  0.8477
 1411TIP3   OH225723   2.761   0.683   0.437 -0.3263  0.1909  0.4995
 1411TIP3    H125724   2.846   0.713   0.467 -0.1075  0.2234 -0.1369
 1411TIP3    H225725   2.701   0.706   0.507  0.4101 -1.1015  1.5913
 1412TIP3   OH225726   4.895   1.824  11.515 -0.6053 -0.3579  0.3178
 1412TIP3    H125727   4.845   1.905  11.512  0.1407  0.0662 -1.4201
 1412TIP3    H225728   4.934   1.823  11.603  0.4120  1.8097 -0.0567
 1413TIP3   OH225729   3.904   2.936   0.648  0.1304  0.4323  0.2268
 1413TIP3    H125730   3.992   2.915   0.682  1.3839  1.1568 -2.2938
 1413TIP3    H225731   3.918   3.013   0.593 -2.4041  1.4068  0.8349
 1414TIP3   OH225732   5.333   3.351  13.313 -0.0737  0.0127 -0.2390
 1414TIP3    H125733   5.344   3.404  13.233 -2.1125  0.0417 -0.5525
 1414TIP3    H225734   5.361   3.263  13.287 -1.5538 -0.1896 -1.3204
 1415TIP3   OH225735   4.142   2.410  10.714 -0.1551 -0.3024 -0.9482
 1415TIP3    H125736   4.077   2.368  10.770  0.6522 -0.3983 -0.0623
 1415TIP3    H225737   4.164   2.343  10.648  1.8901 -1.7738  1.0542
 1416TIP3   OH225738   3.269   2.324   5.682 -0.8379  0.7449  0.7658
 1416TIP3    H125739   3.305   2.264   5.747 -0.2153  2.2969  1.9218
 1416TIP3    H225740   3.324   2.402   5.688 -0.5889  0.8612 -1.8502
 1417TIP3   OH225741   6.609   2.405   2.031  0.1980 -0.8495 -0.0554
 1417TIP3    H125742   6.537   2.448   1.986  0.2200 -1.4353 -0.6491
 1417TIP3    H225743   6.588   2.415   2.124 -0.9502 -1.5301 -0.2256
 1418TIP3   OH225744   2.343   0.597   0.470  0.2129  0.1341 -0.3563
 1418TIP3    H125745   2.374   0.631   0.554  1.3366 -0.8658 -0.3383
 1418TIP3    H225746   2.298   0.671   0.429  0.0903  0.7797  0.9007
 1419TIP3   OH225747   0.507   3.030  14.746 -0.2149 -0.5633  0.1908
 1419TIP3    H125748   0.471   2.992  14.826  0.5289 -1.4249  0.1253
 1419TIP3    H225749   0.596   3.055  14.770  0.4251 -1.9184 -0.6736
 1420TIP3   OH225750   1.076   2.112   2.983  0.4460 -0.2847  0.7302
 1420TIP3    H125751   1.097   2.150   3.068  0.8025  0.3676  0.3558
 1420TIP3    H225752   0.986   2.138   2.966  0.8787  0.9354  0.2012
 1421TIP3   OH225753   0.805   4.737   2.114  0.4230  0.4556  0.1623
 1421TIP3    H125754   0.768   4.681   2.046  1.0887 -0.7842  0.7722
 1421TIP3    H225755   0.790   4.826   2.083 -0.8684 -0.0463 -0.7440
 1422TIP3   OH225756   1.133   0.338   4.823  0.4934  0.3509  0.1567
 1422TIP3    H125757   1.140   0.372   4.913  0.7171  1.0540 -0.1199
 1422TIP3    H225758   1.174   0.406   4.769  2.6733 -1.1683 -0.2372
 1423TIP3   OH225759   5.900   1.104   1.499 -0.0541 -0.0589 -0.6778
 1423TIP3    H125760   5.817   1.071   1.464  0.6880 -1.3810 -1.2775
 1423TIP3    H225761   5.883   1.117   1.593 -1.1344  0.3682 -0.9243
 1424TIP3   OH225762   2.487   2.448   4.516  0.1811 -0.3117  0.1864
 1424TIP3    H125763   2.497   2.354   4.508  2.7796 -0.1333  0.6251
 1424TIP3    H225764   2.467   2.462   4.609  0.6855 -0.3760  0.3055
 1425TIP3   OH225765   1.073   5.591  15.042 -0.1145  0.4784  0.5404
 1425TIP3    H125766   1.092   5.577  14.950  0.1661  3.4206  0.0444
 1425TIP3    H225767   1.159   5.587  15.085  0.5392  3.8621 -0.1719
 1426TIP3   OH225768   0.624   5.504  13.572  0.2037  0.0453 -0.5919
 1426TIP3    H125769   0.657   5.501  13.482  1.8028  0.1390 -0.0415
 1426TIP3    H225770   0.582   5.590  13.580 -0.3603 -0.1495 -1.3653
 1427TIP3   OH225771   4.012   6.374   3.212  0.8110 -0.3264  0.1729
 1427TIP3    H125772   4.083   6.328   3.167  0.2807 -0.9516 -0.0448
 1427TIP3    H225773   4.056   6.426   3.279  1.4667 -0.7566  0.0873
 1428TIP3   OH225774   1.193   6.452   6.270  0.3485 -0.0004  0.3421
 1428TIP3    H125775   1.131   6.494   6.329 -0.3629  0.9253 -1.0161
 1428TIP3    H225776   1.258   6.412   6.328 -1.7080 -1.3716  1.8319
 1429TIP3   OH225777   4.802   2.100  16.585  0.2129  0.3326  0.1295
 1429TIP3    H125778   4.752   2.173  16.621 -0.9271 -0.9871  1.3270
 1429TIP3    H225779   4.892   2.117  16.611  0.5827  2.9017 -2.2993
 1430TIP3   OH225780   6.498   5.270  13.835  0.0375  0.1127  0.4812
 1430TIP3    H125781   6.497   5.329  13.760 -0.1162  2.5577  2.2699
 1430TIP3    H225782   6.588   5.236  13.838 -0.3214 -1.1665 -1.5465
 1431TIP3   OH225783   1.182   1.620   2.312  0.1496  0.0892 -0.2148
 1431TIP3    H125784   1.230   1.555   2.364  2.6061  0.1013 -2.2719
 1431TIP3    H225785   1.174   1.579   2.226  0.3554  1.8719 -1.1112
 1432TIP3   OH225786   3.358   5.937   5.814  0.5759 -0.2090  0.1004
 1432TIP3    H125787   3.280   5.900   5.775  0.8970 -1.7887  0.8594
 1432TIP3    H225788   3.328   5.973   5.898  0.6302 -0.7440  0.3556
 1433TIP3   OH225789   5.881   5.017  12.920  0.4511 -0.4196  1.0553
 1433TIP3    H125790   5.818   4.947  12.939  1.2489 -1.6594 -0.5978
 1433TIP3    H225791   5.864   5.083  12.986 -1.5978 -1.3620  1.5483
 1434TIP3   OH225792   3.733   1.410  12.700  0.1232  0.3359  0.1689
 1434TIP3    H125793   3.780   1.484  12.738  1.3787  0.0915 -0.8640
 1434TIP3    H225794   3.800   1.356  12.659 -0.5757 -2.1088  1.9814
 1435TIP3   OH225795   2.060   4.371   4.912  0.7951  0.0782  0.1611
 1435TIP3    H125796   2.015   4.301   4.865  2.9826 -1.3183  0.0120
 1435TIP3    H225797   2.035   4.359   5.003  1.4321 -1.1581  0.1898
 1436TIP3   OH225798   3.499   5.946  11.748  0.0787  0.2394  0.0733
 1436TIP3    H125799   3.589   5.980  11.745  1.2480 -2.4862  0.8453
 1436TIP3    H225800   3.469   5.963  11.837 -0.8180  2.4912 -0.5998
 1437TIP3   OH225801   2.740   4.104   4.941 -0.3184 -0.5221  0.1994
 1437TIP3    H125802   2.687   4.176   4.908 -0.8858 -0.7218  0.6568
 1437TIP3    H225803   2.822   4.110   4.892 -0.6764 -0.0759 -0.3574
 1438TIP3   OH225804   5.500   3.306  16.570  0.1472 -0.2453  0.1252
 1438TIP3    H125805   5.498   3.324  16.476 -2.0543 -0.6577  0.0312
 1438TIP3    H225806   5.582   3.257  16.584  0.3740 -0.4276 -1.6195
 1439TIP3   OH225807   0.402   1.147  13.371 -0.3668  0.3846 -0.2882
 1439TIP3    H125808   0.420   1.144  13.465  1.2404 -2.0767 -0.5923
 1439TIP3    H225809   0.486   1.124  13.330 -1.7219 -1.5027 -2.2042
 1440TIP3   OH225810   5.847   1.409  15.456  0.1589  0.0422  0.7510
 1440TIP3    H125811   5.923   1.357  15.427 -0.3506  0.6501 -1.9953
 1440TIP3    H225812   5.801   1.352  15.517  0.8990 -1.8195 -0.3388
 1441TIP3   OH225813   2.808   6.584  14.601  0.5554 -0.2292  0.0280
 1441TIP3    H125814   2.747   6.576  14.527  0.2832 -1.7807  0.3921
 1441TIP3    H225815   2.753   6.575  14.679  1.0237  0.0930  0.4037
 1442TIP3   OH225816   0.434   0.449  12.398  0.3521 -0.0125  0.4113
 1442TIP3    H125817   0.399   0.365  12.427 -0.8930  0.1824 -0.4938
 1442TIP3    H225818   0.489   0.478  12.472 -0.8644 -0.6276  1.6063
 1443TIP3   OH225819   1.821   1.062  15.682 -0.8002  0.2034  0.0887
 1443TIP3    H125820   1.766   1.070  15.760 -2.8984 -0.9087 -1.2183
 1443TIP3    H225821   1.829   1.152  15.649 -1.2963  0.4587  0.6485
 1444TIP3   OH225822   3.898   4.453  11.678  0.2666  0.1604  0.1890
 1444TIP3    H125823   3.918   4.406  11.596 -1.3849 -0.0175 -0.1438
 1444TIP3    H225824   3.898   4.545  11.653  1.9194  0.2822  0.4973
 1445TIP3   OH225825   1.601   5.329   0.272  0.2888 -0.2435  0.1512
 1445TIP3    H125826   1.540   5.259   0.249 -0.9739  0.0751  2.2556
 1445TIP3    H225827   1.677   5.314   0.217 -0.8301 -1.9451 -1.0273
 1446TIP3   OH225828   0.230   1.407  11.354 -0.0837  0.1339  0.1299
 1446TIP3    H125829   0.217   1.428  11.261 -0.5612 -0.6990 -0.0063
 1446TIP3    H225830   0.142   1.386  11.386  0.0698  0.4968  0.7900
 1447TIP3   OH225831   3.312   2.245   2.554 -0.1023 -0.0973 -0.2259
 1447TIP3    H125832   3.361   2.280   2.628  0.9558 -0.2383 -0.8463
 1447TIP3    H225833   3.249   2.184   2.593 -0.8928  1.2644  0.7147
 1448TIP3   OH225834   4.786   1.727   5.575  0.3008 -0.2460  0.2435
 1448TIP3    H125835   4.793   1.783   5.497 -0.3612  1.2525  1.2038
 1448TIP3    H225836   4.707   1.675   5.561 -0.2988  0.6309  0.2465
 1449TIP3   OH225837   1.035   5.190   1.398 -0.3673  0.0383 -0.2864
 1449TIP3    H125838   1.068   5.272   1.435  0.6340  0.1256 -1.3002
 1449TIP3    H225839   0.941   5.203   1.389 -0.1018  1.4955 -1.3795
 1450TIP3   OH225840   3.244   1.314  13.561 -0.0692 -0.1052 -0.1488
 1450TIP3    H125841   3.295   1.265  13.626 -1.0318 -0.2144  0.5321
 1450TIP3    H225842   3.179   1.362  13.612 -0.4369  0.3063 -0.9867
 1451TIP3   OH225843   4.246   6.825  12.311 -0.4217  0.2932  0.7748
 1451TIP3    H125844   4.324   6.810  12.257 -0.2932 -2.5251  1.6043
 1451TIP3    H225845   4.181   6.862  12.251  1.0089  1.1788 -0.2899
 1452TIP3   OH225846   2.874   2.207   6.110 -0.3589  0.3196  0.5871
 1452TIP3    H125847   2.801   2.240   6.163  0.0763  0.8473  0.8693
 1452TIP3    H225848   2.950   2.213   6.167  0.2446  1.5538 -0.3056
 1453TIP3   OH225849   0.037   3.657  15.667  0.1268  0.2325 -0.2845
 1453TIP3    H125850   0.114   3.667  15.723 -0.7644  0.8537  0.8601
 1453TIP3    H225851   0.055   3.578  15.616  0.5458 -0.9420  1.5811
 1454TIP3   OH225852   3.380   3.479   3.240  0.2827 -0.6908 -0.4137
 1454TIP3    H125853   3.298   3.529   3.242 -1.4703 -3.3651  2.1000
 1454TIP3    H225854   3.448   3.542   3.264 -1.1494  1.3722 -1.5304
 1455TIP3   OH225855   3.816   4.725  13.297 -0.4221 -0.2274  0.4613
 1455TIP3    H125856   3.741   4.749  13.243 -0.9389 -0.0216  1.2710
 1455TIP3    H225857   3.874   4.677  13.237 -0.9320  0.1006 -0.3044
 1456TIP3   OH225858   5.185   0.273   4.917  0.4274 -0.4065  0.0703
 1456TIP3    H125859   5.145   0.309   4.996  0.9029  0.8515 -0.2260
 1456TIP3    H225860   5.151   0.184   4.910 -0.5631 -0.1189  1.0265
 1457TIP3   OH225861   3.582   4.809  13.774  0.1893  0.5606 -0.3524
 1457TIP3    H125862   3.640   4.863  13.721 -0.0450  0.3944 -0.7801
 1457TIP3    H225863   3.495   4.846  13.761 -0.0522 -0.2397 -1.0709
 1458TIP3   OH225864   5.205   5.500  12.920 -0.7670 -0.4546  0.1637
 1458TIP3    H125865   5.182   5.545  12.838 -0.5085 -1.2177 -0.3434
 1458TIP3    H225866   5.238   5.569  12.977 -1.3265  0.1517 -0.2343
 1459TIP3   OH225867   4.264   4.160  15.277  0.2878 -0.1018  0.1315
 1459TIP3    H125868   4.261   4.227  15.344 -0.9393  0.2938 -0.2937
 1459TIP3    H225869   4.229   4.081  15.319  1.3640 -0.3988  0.5137
 1460TIP3   OH225870   1.962   3.943  11.940  0.1120 -0.3058 -0.3040
 1460TIP3    H125871   1.998   3.904  12.020  2.6121  0.0692 -1.1685
 1460TIP3    H225872   1.909   3.874  11.901  0.0787 -0.9863  0.9044
 1461TIP3   OH225873   1.547   2.329   5.588 -0.0330  0.0658  0.3481
 1461TIP3    H125874   1.625   2.274   5.597  0.3208  0.1956 -1.4532
 1461TIP3    H225875   1.491   2.281   5.526 -0.7394  0.6697  0.5062
 1462TIP3   OH225876   1.601   2.672  14.441 -0.7612  0.4088 -0.3231
 1462TIP3    H125877   1.676   2.692  14.497 -1.2574  2.4287 -0.3033
 1462TIP3    H225878   1.526   2.674  14.500 -0.9623 -0.7477 -0.5018
 1463TIP3   OH225879   5.434   0.404   6.382 -0.6694 -0.1870 -0.7323
 1463TIP3    H125880   5.410   0.345   6.454  2.7046  0.1397  0.8248
 1463TIP3    H225881   5.438   0.347   6.305 -1.2543 -1.1890 -0.0467
 1464TIP3   OH225882   4.020   6.143  13.617  0.6590  0.1210  0.2521
 1464TIP3    H125883   4.071   6.075  13.573 -0.4313 -1.2378  1.0011
 1464TIP3    H225884   4.073   6.169  13.692  0.8837 -0.2685  0.2325
 1465TIP3   OH225885   6.337   6.166   5.541 -0.2192  0.1698 -0.0627
 1465TIP3    H125886   6.361   6.097   5.603  0.1542  0.3414 -0.0131
 1465TIP3    H225887   6.243   6.154   5.527 -0.2867  0.0684  0.4614
 1466TIP3   OH225888   3.179   2.557  11.206  0.0328 -0.4075 -0.1314
 1466TIP3    H125889   3.136   2.574  11.121  1.0447  2.3921 -0.2010
 1466TIP3    H225890   3.270   2.540  11.183  0.5431  1.4012  0.3589
 1467TIP3   OH225891   0.804   2.425  13.557 -0.5943 -0.1336 -0.5182
 1467TIP3    H125892   0.890   2.451  13.524 -0.5249  1.9831  1.0700
 1467TIP3    H225893   0.745   2.439  13.483 -0.2019  2.7872 -0.3982
 1468TIP3   OH225894   2.367   1.476  17.244  0.4117  0.3794  0.4652
 1468TIP3    H125895   2.403   1.440  17.326 -0.2333  0.9934  1.0303
 1468TIP3    H225896   2.350   1.399  17.190  0.5240 -0.0595  1.0419
 1469TIP3   OH225897   1.041   0.191  15.815 -0.3290 -0.2651  0.3524
 1469TIP3    H125898   1.096   0.161  15.742 -0.3777 -0.7028  0.4943
 1469TIP3    H225899   1.093   0.171  15.893 -0.8704 -1.0872  0.5149
 1470TIP3   OH225900   6.787   5.845   0.208 -0.2665 -0.1030 -0.2206
 1470TIP3    H125901   6.819   5.930   0.178  1.2458 -0.6503 -0.2789
 1470TIP3    H225902   6.784   5.853   0.304 -0.6329  0.1839 -0.2564
 1471TIP3   OH225903   5.169   1.308  16.535 -0.6859  0.0806 -0.0367
 1471TIP3    H125904   5.246   1.364  16.539  0.9270 -1.9916 -0.7195
 1471TIP3    H225905   5.134   1.309  16.624  1.3071 -0.4748  0.8107
 1472TIP3   OH225906   4.141   5.139   5.465 -0.3320 -0.0731 -0.1966
 1472TIP3    H125907   4.172   5.213   5.413 -1.1526  0.1607 -0.3672
 1472TIP3    H225908   4.127   5.175   5.552  1.3617 -0.5417  0.2971
 1473TIP3   OH225909   2.992   2.965   2.152  0.3594 -0.6015 -0.1498
 1473TIP3    H125910   3.085   2.950   2.136  0.5179  2.0079 -2.3611
 1473TIP3    H225911   2.990   3.010   2.237  1.3548  0.9580 -0.9070
 1474TIP3   OH225912   2.597   1.920   4.049  0.0819  0.3895  0.2435
 1474TIP3    H125913   2.528   1.891   3.988  0.4395  0.3175 -0.1346
 1474TIP3    H225914   2.629   1.839   4.089 -0.4980  0.4822  0.9106
 1475TIP3   OH225915   6.559   3.581   1.702  0.1316 -0.4303 -0.1782
 1475TIP3    H125916   6.527   3.593   1.613  1.5380  3.2581 -0.3705
 1475TIP3    H225917   6.485   3.544   1.750 -1.5163 -0.0451 -2.2994
 1476TIP3   OH225918   4.833   1.521   0.893 -0.0840  0.8566  0.3198
 1476TIP3    H125919   4.826   1.427   0.905 -0.8966  0.7395 -0.9068
 1476TIP3    H225920   4.816   1.557   0.980 -0.3951 -0.1015  0.6705
 1477TIP3   OH225921   0.722   4.991   2.051  0.1802 -0.1590 -0.2594
 1477TIP3    H125922   0.789   5.044   2.008 -0.9769  1.9451  0.4379
 1477TIP3    H225923   0.660   4.970   1.982 -1.9959  3.7191  0.2368
 1478TIP3   OH225924   6.350   5.977  16.234 -0.3649 -0.1395 -0.1101
 1478TIP3    H125925   6.423   5.965  16.295  0.0266 -1.4185 -0.7956
 1478TIP3    H225926   6.308   6.058  16.262 -0.2425 -0.7293  1.9031
 1479TIP3   OH225927   0.523   5.319  15.788  0.1896 -0.7355  0.4970
 1479TIP3    H125928   0.457   5.303  15.721 -0.5157 -0.0339  1.0148
 1479TIP3    H225929   0.520   5.242  15.844  0.3239 -1.0269  0.1109
 1480TIP3   OH225930   5.314   0.511   4.798  0.5091 -0.3236  0.1140
 1480TIP3    H125931   5.246   0.534   4.734 -1.1630  2.6168  2.6576
 1480TIP3    H225932   5.293   0.421   4.824 -2.6237  0.4985  0.8677
 1481TIP3   OH225933   4.513   6.201   3.701 -0.2060 -0.4112  0.1241
 1481TIP3    H125934   4.500   6.183   3.794  0.6201  0.8859  0.5204
 1481TIP3    H225935   4.512   6.297   3.695  1.1308 -0.4341 -0.9725
 1482TIP3   OH225936   5.768   6.219   4.868 -0.0423 -0.5027 -0.5846
 1482TIP3    H125937   5.730   6.162   4.801 -0.0424 -1.0799 -0.1000
 1482TIP3    H225938   5.863   6.209   4.856  0.1159  2.3143 -2.9935
 1483TIP3   OH225939   5.539   0.995   1.635  0.2686 -0.0533  0.7026
 1483TIP3    H125940   5.531   1.052   1.711  1.3394  0.4662  0.4522
 1483TIP3    H225941   5.583   1.049   1.569  0.4490 -0.8684  0.1391
 1484TIP3   OH225942   0.677   4.130   4.501  0.2816 -0.2071 -0.0357
 1484TIP3    H125943   0.607   4.072   4.472 -0.0179 -0.1202  0.4918
 1484TIP3    H225944   0.655   4.215   4.460 -0.1244 -0.0899  0.4161
 1485TIP3   OH225945   3.156   3.534  14.272  0.0187 -0.1041 -0.4573
 1485TIP3    H125946   3.063   3.549  14.254 -1.0068 -0.3973  3.6020
 1485TIP3    H225947   3.165   3.439  14.269 -0.4928 -0.2497  1.5769
 1486TIP3   OH225948   3.176   2.283   5.041 -0.1884 -0.3211  0.3472
 1486TIP3    H125949   3.253   2.280   4.985 -0.5501 -0.4595 -0.1522
 1486TIP3    H225950   3.190   2.359   5.098 -0.6202  0.9104 -1.1110
 1487TIP3   OH225951   6.448   1.775   2.405 -0.1556 -0.1589  0.5068
 1487TIP3    H125952   6.354   1.795   2.409  0.2390  1.6839  1.9124
 1487TIP3    H225953   6.478   1.817   2.324 -0.1817  1.1276  1.1381
 1488TIP3   OH225954   5.267   2.329   3.987  0.4062  0.0522  0.1566
 1488TIP3    H125955   5.300   2.245   4.020  0.2480 -0.2531 -0.4380
 1488TIP3    H225956   5.204   2.358   4.054  1.7899  0.6044  1.2603
 1489TIP3   OH225957   2.370   0.837   6.211  0.0755  0.1404  0.4181
 1489TIP3    H125958   2.418   0.802   6.136  2.6619  2.1161  1.0242
 1489TIP3    H225959   2.291   0.875   6.171  0.1751 -0.9861 -0.9564
 1490TIP3   OH225960   0.710   2.273   4.746 -0.3392 -0.0110 -0.6809
 1490TIP3    H125961   0.718   2.280   4.841  0.9938 -1.5615 -0.6292
 1490TIP3    H225962   0.628   2.226   4.732  0.8957 -2.5578 -0.0722
 1491TIP3   OH225963   5.366   3.171   2.829  0.0449 -0.1059 -0.7351
 1491TIP3    H125964   5.275   3.165   2.858  0.4382  0.3804  0.7340
 1491TIP3    H225965   5.401   3.083   2.844  0.2924  0.1857  0.5420
 1492TIP3   OH225966   3.223   2.534  11.912 -0.5944 -0.0902 -0.1795
 1492TIP3    H125967   3.144   2.481  11.922 -0.0745 -0.8545 -0.0449
 1492TIP3    H225968   3.190   2.623  11.898 -1.5071 -0.5984 -1.5188
 1493TIP3   OH225969   5.568   0.700  14.197 -0.4545  0.4057  0.5057
 1493TIP3    H125970   5.541   0.751  14.273  3.5503  1.2237  1.5942
 1493TIP3    H225971   5.634   0.755  14.154  0.0786 -1.6230 -1.4286
 1494TIP3   OH225972   4.644   0.734   4.016  0.8303 -0.1397  0.0062
 1494TIP3    H125973   4.725   0.744   3.966  1.7252 -1.6283  1.0775
 1494TIP3    H225974   4.654   0.651   4.063 -2.3643 -1.6608 -1.6954
 1495TIP3   OH225975   0.589   6.423  11.942  0.8284  0.2530 -0.1852
 1495TIP3    H125976   0.597   6.428  12.037  0.6437  0.5903 -0.1856
 1495TIP3    H225977   0.658   6.480  11.909 -0.8138  2.3477 -0.2055
 1496TIP3   OH225978   1.097   5.766  16.114  0.3397  0.2674 -0.6737
 1496TIP3    H125979   1.049   5.823  16.054 -1.0257 -0.4625 -0.3354
 1496TIP3    H225980   1.092   5.679  16.074  0.2052 -0.0608  0.0267
 1497TIP3   OH225981   4.107   1.046  13.398 -0.4198 -0.1717 -0.2204
 1497TIP3    H125982   4.087   1.026  13.489  1.2197 -0.0470  0.2016
 1497TIP3    H225983   4.101   1.141  13.393  0.3199 -0.1089 -0.0158
 1498TIP3   OH225984   3.125   5.334   5.483  0.1897 -0.1063  0.8936
 1498TIP3    H125985   3.218   5.352   5.497  0.0598 -0.0274  1.6903
 1498TIP3    H225986   3.100   5.277   5.555 -0.2118 -0.7368  0.2659
 1499TIP3   OH225987   1.086   2.985  12.503 -0.2037  0.0113 -0.1746
 1499TIP3    H125988   1.179   3.006  12.493  0.4381 -1.3988  2.0873
 1499TIP3    H225989   1.070   2.990  12.597 -1.4863 -3.2240 -0.1061
 1500TIP3   OH225990   1.867   3.450   6.270  0.3154 -0.2709  0.0331
 1500TIP3    H125991   1.955   3.468   6.238  1.7784 -0.3417  3.5500
 1500TIP3    H225992   1.851   3.358   6.248  1.9452 -0.8002  0.9137
 1501TIP3   OH225993   2.920   0.921  12.142  0.3092  0.0520  0.4143
 1501TIP3    H125994   2.967   0.837  12.147  2.9042  1.2463 -1.6062
 1501TIP3    H225995   2.904   0.934  12.049 -3.0402  0.3816  0.9109
 1502TIP3   OH225996   3.746   2.575  12.317 -0.4922 -0.2693 -1.4850
 1502TIP3    H125997   3.816   2.514  12.297  1.1444  0.9312  0.2707
 1502TIP3    H225998   3.719   2.554  12.407 -0.9436  0.6142 -1.3970
 1503TIP3   OH225999   6.107   6.519  12.588 -0.1060  0.1311 -0.5454
 1503TIP3    H126000   6.127   6.517  12.682 -0.1833 -0.8590 -0.5436
 1503TIP3    H226001   6.086   6.611  12.570  2.4733  0.9067 -0.1274
 1504TIP3   OH226002   4.471   4.147  17.280  0.1135  0.2910 -0.0215
 1504TIP3    H126003   4.512   4.066  17.249 -0.4996  0.3702 -1.0920
 1504TIP3    H226004   4.377   4.132  17.269 -0.2245  0.0236  2.5904
 1505TIP3   OH226005   2.485   5.055  13.515 -0.4917 -0.6214  0.2346
 1505TIP3    H126006   2.543   5.062  13.439  0.1654  0.4556  0.8014
 1505TIP3    H226007   2.493   5.140  13.559 -0.3193 -1.4383  1.8803
 1506TIP3   OH226008   3.407   2.525   4.299 -0.0594 -0.4657  0.2283
 1506TIP3    H126009   3.331   2.563   4.254 -0.2731  0.6701  1.4750
 1506TIP3    H226010   3.436   2.454   4.241  0.0887  1.2943 -2.0323
 1507TIP3   OH226011   0.856   5.135   2.845 -0.0806 -0.3118  0.2325
 1507TIP3    H126012   0.816   5.073   2.906  1.5098 -1.0515  0.5695
 1507TIP3    H226013   0.859   5.217   2.895  2.0105 -1.1232  1.5426
 1508TIP3   OH226014   0.918   3.495  14.469  0.1759 -0.1416 -0.3395
 1508TIP3    H126015   0.954   3.471  14.384  1.5276  0.7020 -0.0459
 1508TIP3    H226016   0.852   3.562  14.449  2.5330  2.2807 -0.6235
 1509TIP3   OH226017   4.925   5.687   4.765 -0.5100 -0.2060 -0.2288
 1509TIP3    H126018   4.836   5.663   4.740 -0.9479  0.5562  0.5590
 1509TIP3    H226019   4.914   5.753   4.833  0.6583  1.8529 -1.9142
 1510TIP3   OH226020   1.423   1.512  10.852  0.3082 -0.8450  0.2598
 1510TIP3    H126021   1.471   1.446  10.802  0.3576  0.0678 -0.9323
 1510TIP3    H226022   1.353   1.541  10.794 -1.1929 -1.5130  1.6447
 1511TIP3   OH226023   5.254   0.652  14.542 -0.0042  0.2831  0.4627
 1511TIP3    H126024   5.225   0.681  14.455  0.4898  0.4835  0.3589
 1511TIP3    H226025   5.285   0.562  14.528  1.3119  0.7612  0.1433
 1512TIP3   OH226026   3.727   5.095   4.569 -0.1639 -0.1198 -0.5051
 1512TIP3    H126027   3.772   5.113   4.486  3.7168 -0.3061  1.3140
 1512TIP3    H226028   3.752   5.168   4.626 -2.6632 -0.0327  0.6140
 1513TIP3   OH226029   4.624   4.818   4.566  0.3841  0.2346  0.2414
 1513TIP3    H126030   4.714   4.838   4.539  0.2471  0.4348 -0.0740
 1513TIP3    H226031   4.576   4.808   4.484  0.1978 -0.2544  0.4055
 1514TIP3   OH226032   1.845   3.579   0.731  0.4816  0.3343  0.2533
 1514TIP3    H126033   1.868   3.493   0.696  1.2201  0.2372  0.9640
 1514TIP3    H226034   1.872   3.577   0.822 -1.4503  0.5802  0.8893
 1515TIP3   OH226035   1.435   3.684  12.665 -0.2274 -0.7225  0.0305
 1515TIP3    H126036   1.506   3.741  12.693 -0.8342  0.0551  0.0424
 1515TIP3    H226037   1.368   3.744  12.632  0.0217 -1.5338 -2.1545
 1516TIP3   OH226038   6.589   5.098   3.827  0.0053 -0.8562 -0.2972
 1516TIP3    H126039   6.679   5.065   3.821 -0.3228 -1.6198 -1.2013
 1516TIP3    H226040   6.564   5.117   3.737  0.0514  1.6065  0.1418
 1517TIP3   OH226041   4.540   4.695   5.716  0.0884 -0.4469  0.1519
 1517TIP3    H126042   4.573   4.742   5.639  1.5836 -0.5965  0.6788
 1517TIP3    H226043   4.586   4.735   5.790 -0.0359 -1.4735  0.7933
 1518TIP3   OH226044   0.978   6.761  13.152  0.0564  0.1551 -0.0977
 1518TIP3    H126045   0.922   6.763  13.230  0.0956 -0.7055 -0.0409
 1518TIP3    H226046   0.923   6.723  13.084  0.1921  0.4202 -0.3583
 1519TIP3   OH226047   0.934   3.474  12.417 -0.2709  0.6217 -0.6686
 1519TIP3    H126048   0.940   3.379  12.425 -0.7673  0.7407  3.7691
 1519TIP3    H226049   0.840   3.492  12.419 -0.1720  1.2011 -1.2185
 1520TIP3   OH226050   6.018   2.670  13.529 -0.2609 -0.1214 -0.0718
 1520TIP3    H126051   5.941   2.639  13.578  0.5525 -0.8311  0.7975
 1520TIP3    H226052   5.999   2.646  13.438 -1.4082  0.4318  0.0015
 1521TIP3   OH226053   3.272   3.827   5.536  0.5893 -0.0992 -0.0664
 1521TIP3    H126054   3.335   3.771   5.491  2.1556  0.6826  1.0566
 1521TIP3    H226055   3.304   3.832   5.626  0.9850  3.1640 -0.2607
 1522TIP3   OH226056   2.250   6.275   5.541 -0.1131 -0.6158  0.5365
 1522TIP3    H126057   2.293   6.358   5.563  1.3844 -0.3572 -2.6810
 1522TIP3    H226058   2.162   6.283   5.578 -1.0313  3.6986 -1.8283
 1523TIP3   OH226059   3.806   0.740   1.440  0.4528  1.0906 -0.1833
 1523TIP3    H126060   3.878   0.707   1.494  1.3622  1.6893 -1.0017
 1523TIP3    H226061   3.843   0.748   1.353 -0.9321  0.3473 -0.8788
 1524TIP3   OH226062   3.936   5.041   1.335  0.0361  0.5449 -0.4299
 1524TIP3    H126063   3.923   5.124   1.290 -0.4326 -0.2662 -1.8298
 1524TIP3    H226064   3.847   5.009   1.353  0.2129  0.6738  0.7550
 1525TIP3   OH226065   2.429   2.438  13.258  0.2367  0.1308 -0.6450
 1525TIP3    H126066   2.416   2.530  13.280 -0.4864 -0.1692  0.2198
 1525TIP3    H226067   2.392   2.390  13.332 -0.0811 -0.8623 -1.4285
 1526TIP3   OH226068   5.929   0.977   2.653 -0.3944  0.8052 -0.3137
 1526TIP3    H126069   5.861   1.044   2.641  0.8112  2.1259  0.0152
 1526TIP3    H226070   6.006   1.013   2.610  0.6976  0.3055  1.1568
 1527TIP3   OH226071   5.615   4.733  15.202  0.3847  0.0492 -0.7288
 1527TIP3    H126072   5.548   4.782  15.249  0.5118 -0.4817  0.0350
 1527TIP3    H226073   5.685   4.721  15.266  0.3527 -1.1300 -0.8912
 1528TIP3   OH226074   2.464   5.608  11.676  0.3898  0.2021 -0.3457
 1528TIP3    H126075   2.442   5.532  11.621  0.0979  1.3717 -1.8979
 1528TIP3    H226076   2.381   5.634  11.715  0.7053 -1.0306  1.2446
 1529TIP3   OH226077   0.306   5.490  13.314 -0.0985  0.1200  0.6879
 1529TIP3    H126078   0.277   5.513  13.225  0.4872 -1.5619  0.0247
 1529TIP3    H226079   0.226   5.462  13.358 -0.1078 -0.8223  0.0883
 1530TIP3   OH226080   6.394   3.921   4.819 -0.1074  0.2596 -0.2410
 1530TIP3    H126081   6.440   3.904   4.736  0.6264  0.5978  0.0925
 1530TIP3    H226082   6.337   3.844   4.830 -0.3143  0.2688 -1.1203
 1531TIP3   OH226083   6.087   3.694  12.931 -0.0997 -0.0297  0.5233
 1531TIP3    H126084   6.058   3.610  12.896 -2.0307  0.5627  0.5948
 1531TIP3    H226085   6.165   3.673  12.982 -0.7355 -1.8308  0.8148
 1532TIP3   OH226086   6.665   6.702  11.503 -0.3397 -0.3303  0.6014
 1532TIP3    H126087   6.634   6.613  11.485 -0.3038 -0.0422 -1.1341
 1532TIP3    H226088   6.707   6.729  11.421  2.7913  0.0389  2.1588
 1533TIP3   OH226089   3.893   2.850  16.969 -0.1906  0.1991 -0.4267
 1533TIP3    H126090   3.827   2.782  16.955  0.6193 -0.9070  0.8665
 1533TIP3    H226091   3.973   2.802  16.990  0.5724  1.5441 -0.1344
 1534TIP3   OH226092   4.559   5.810   3.844  0.4253 -0.1439 -0.3362
 1534TIP3    H126093   4.555   5.803   3.748  1.2632  0.2283 -0.4105
 1534TIP3    H226094   4.470   5.790   3.873 -0.0497  0.5564 -1.2458
 1535TIP3   OH226095   3.256   0.119  11.366 -0.3758 -0.0534  0.4578
 1535TIP3    H126096   3.240   0.052  11.433  0.4234 -0.7442 -0.0204
 1535TIP3    H226097   3.339   0.093  11.326 -0.1998  1.0793  0.0704
 1536TIP3   OH226098   3.366   5.509   5.509 -0.8862 -0.2190 -0.1222
 1536TIP3    H126099   3.454   5.547   5.506  0.1368 -2.4440 -0.2896
 1536TIP3    H226100   3.350   5.494   5.602 -0.9552 -0.1179 -0.1173
 1537TIP3   OH226101   3.404   0.892   1.926  0.1992 -0.2578  0.2851
 1537TIP3    H126102   3.389   0.844   1.844  2.1879  0.0525 -0.3046
 1537TIP3    H226103   3.370   0.980   1.908  0.5869 -0.2040 -0.2111
 1538TIP3   OH226104   1.720   5.542  11.866 -0.3693 -0.8796 -0.1178
 1538TIP3    H126105   1.693   5.489  11.940 -0.2455 -0.2528  0.3907
 1538TIP3    H226106   1.641   5.586  11.836 -0.0475  0.5981  1.0801
 1539TIP3   OH226107   6.333   1.896   4.509 -0.3758  0.4144  0.2024
 1539TIP3    H126108   6.326   1.825   4.573  1.6583 -0.6619 -0.6811
 1539TIP3    H226109   6.349   1.851   4.426  2.0760  1.9007 -0.2123
 1540TIP3   OH226110   1.337   4.120   6.066  0.0453  0.1041  0.7417
 1540TIP3    H126111   1.350   4.156   6.153  1.3999 -0.3971  0.7662
 1540TIP3    H226112   1.244   4.095   6.063  0.0221 -0.0026  2.0789
 1541TIP3   OH226113   4.397   6.816  16.079  0.5537 -0.0519 -0.3181
 1541TIP3    H126114   4.458   6.759  16.125 -0.0640  0.3490  1.0289
 1541TIP3    H226115   4.311   6.778  16.095  0.0727  1.5219  1.0611
 1542TIP3   OH226116   5.094   4.673   1.353  0.0714  0.0152  0.3684
 1542TIP3    H126117   5.055   4.748   1.308  0.3437 -0.1207 -0.0954
 1542TIP3    H226118   5.019   4.620   1.381 -0.1278  0.5290  0.8244
 1543TIP3   OH226119   2.957   4.581   6.395 -0.3432 -0.0951  0.7132
 1543TIP3    H126120   2.920   4.582   6.307  0.2058  0.7319  0.4826
 1543TIP3    H226121   3.050   4.563   6.382 -0.6367 -2.3749  1.3016
 1544TIP3   OH226122   0.508   0.579   4.547  0.3366 -0.2093 -0.0403
 1544TIP3    H126123   0.417   0.551   4.556  0.2863 -0.2165 -0.5434
 1544TIP3    H226124   0.520   0.592   4.453  0.4299  1.2257  0.1435
 1545TIP3   OH226125   0.738   2.803  16.635 -0.3391 -0.5295 -0.3450
 1545TIP3    H126126   0.653   2.847  16.644 -0.1678 -0.2571 -0.0314
 1545TIP3    H226127   0.787   2.859  16.574  0.3690  0.4799  1.0974
 1546TIP3   OH226128   0.120   4.158   2.311 -0.1728  0.2355 -0.2341
 1546TIP3    H126129   0.158   4.175   2.397 -0.1955 -1.5230  0.1568
 1546TIP3    H226130   0.194   4.169   2.250  0.4035 -0.7470  0.2627
 1547TIP3   OH226131   1.921   2.374   5.133 -0.5614 -0.2083  0.2410
 1547TIP3    H126132   1.943   2.419   5.051  0.7245  0.8066  1.0973
 1547TIP3    H226133   1.994   2.314   5.148 -1.6464 -1.7275 -0.2243
 1548TIP3   OH226134   1.050   4.324   4.312  0.5753  0.2644 -0.1589
 1548TIP3    H126135   1.032   4.371   4.393 -0.6770  2.0416 -1.3941
 1548TIP3    H226136   1.082   4.239   4.340  0.3499  0.8972  2.1925
 1549TIP3   OH226137   6.087   4.585   6.054  0.0680 -0.0060  0.4701
 1549TIP3    H126138   6.070   4.584   6.149  0.7472  0.3033  0.6007
 1549TIP3    H226139   6.166   4.534   6.043 -0.5803 -0.9177 -0.0630
 1550TIP3   OH226140   2.614   5.724   0.342 -0.1370  0.0275 -0.4461
 1550TIP3    H126141   2.620   5.628   0.334 -0.4893  0.1433 -2.7627
 1550TIP3    H226142   2.521   5.742   0.329 -0.4304  0.6016  1.9745
 1551TIP3   OH226143   2.680   6.228   2.110  0.1801  0.0010  0.4678
 1551TIP3    H126144   2.590   6.231   2.140  0.1831  0.8665  0.3893
 1551TIP3    H226145   2.676   6.179   2.027 -0.2125  0.0621  0.4522
 1552TIP3   OH226146   3.548   4.745   4.493  0.7471  0.0931 -0.5249
 1552TIP3    H126147   3.476   4.721   4.552  1.5501  0.4823  0.6731
 1552TIP3    H226148   3.507   4.759   4.408 -0.6911  0.8672  0.2559
 1553TIP3   OH226149   2.477   4.974  14.973 -0.4693  0.3918  0.1896
 1553TIP3    H126150   2.546   5.024  15.017  0.1238  1.3433 -1.7072
 1553TIP3    H226151   2.433   4.926  15.043  0.3478  1.9069  1.8032
 1554TIP3   OH226152   0.218   1.049  15.996 -0.4248  0.4359  0.3519
 1554TIP3    H126153   0.293   1.084  15.948 -1.1309 -1.6851 -2.6116
 1554TIP3    H226154   0.176   1.126  16.035  1.5312  2.0478 -0.5567
 1555TIP3   OH226155   4.878   4.471  15.847  0.2808 -0.4564 -0.3487
 1555TIP3    H126156   4.883   4.564  15.870  0.1857 -0.4285 -0.4363
 1555TIP3    H226157   4.813   4.468  15.776 -0.1514 -0.6638  0.0508
 1556TIP3   OH226158   5.760   2.896  14.978 -0.0792 -0.0930  0.5939
 1556TIP3    H126159   5.812   2.845  14.916  0.0305  0.1941  0.4491
 1556TIP3    H226160   5.798   2.877  15.064  0.7281  0.6826  0.4128
 1557TIP3   OH226161   1.019   2.819   4.251 -0.2311  0.6459  0.0543
 1557TIP3    H126162   1.034   2.825   4.346 -1.7976  1.8636  0.2682
 1557TIP3    H226163   1.064   2.739   4.225  0.0865  0.1802  1.8592
 1558TIP3   OH226164   5.695   5.799  12.034  0.0483  0.4804 -0.1937
 1558TIP3    H126165   5.686   5.738  11.961  0.5570  0.7097 -0.4563
 1558TIP3    H226166   5.680   5.746  12.112  1.1240 -0.1413 -0.3822
 1559TIP3   OH226167   0.724   6.722   4.504 -0.2905  0.0148 -0.0067
 1559TIP3    H126168   0.721   6.747   4.596  0.2724  2.1133 -0.5036
 1559TIP3    H226169   0.672   6.642   4.499  0.6086 -0.8110  2.3067
 1560TIP3   OH226170   0.633   6.586   2.731 -0.1509 -0.0075  0.0896
 1560TIP3    H126171   0.644   6.509   2.674  0.6731 -0.2083  0.5063
 1560TIP3    H226172   0.720   6.602   2.767  0.0756  2.1234 -1.2215
 1561TIP3   OH226173   2.303   4.376   3.365 -0.2663 -0.5095 -0.3876
 1561TIP3    H126174   2.304   4.418   3.279  0.9660  0.8526  0.2526
 1561TIP3    H226175   2.392   4.345   3.377 -0.3845 -0.5234  0.4798
 1562TIP3   OH226176   2.175   1.518   5.457  0.7041  0.1708 -0.2381
 1562TIP3    H126177   2.106   1.583   5.462 -0.3887 -1.0335  1.6924
 1562TIP3    H226178   2.254   1.568   5.436  0.4136  2.6088  3.5188
 1563TIP3   OH226179   4.106   3.169  10.398  0.0651 -0.3360  0.1223
 1563TIP3    H126180   4.119   3.093  10.342  2.0188 -0.1071  0.1879
 1563TIP3    H226181   4.021   3.155  10.440  0.0902 -2.1358 -0.3726
 1564TIP3   OH226182   2.511   1.930   1.515  0.4286 -0.4093 -0.1690
 1564TIP3    H126183   2.473   1.999   1.570 -0.2502  0.4394 -1.6195
 1564TIP3    H226184   2.435   1.890   1.472  0.9942 -0.2029 -1.4132
 1565TIP3   OH226185   1.511   1.640   4.930  0.1728 -0.2128  0.5975
 1565TIP3    H126186   1.598   1.627   4.894  0.3090 -1.9016  1.4453
 1565TIP3    H226187   1.525   1.690   5.011  0.2093  0.6046  0.0945
 1566TIP3   OH226188   1.608   3.579  15.186 -0.3450  0.5182  0.5235
 1566TIP3    H126189   1.616   3.575  15.090  0.3449 -1.6451  0.6060
 1566TIP3    H226190   1.516   3.597  15.202 -0.7513 -0.4466 -0.5727
 1567TIP3   OH226191   4.592   5.910  13.017 -0.3206  0.2422 -0.2814
 1567TIP3    H126192   4.541   5.897  13.097  0.4675 -0.4660  0.1326
 1567TIP3    H226193   4.538   5.967  12.963 -2.3363 -1.8389 -0.6141
 1568TIP3   OH226194   6.139   4.852   4.488 -0.4730  0.2342 -0.4815
 1568TIP3    H126195   6.059   4.903   4.471 -0.1656  1.0706  0.5079
 1568TIP3    H226196   6.199   4.878   4.419 -1.4146 -1.3049 -1.9830
 1569TIP3   OH226197   5.860   3.770  15.904  0.2560 -0.2976 -0.0479
 1569TIP3    H126198   5.918   3.761  15.980 -2.0968 -2.0208  1.6806
 1569TIP3    H226199   5.853   3.681  15.869 -0.7641  0.0044 -0.6496
 1570TIP3   OH226200   4.479   5.377  15.376 -0.2353  0.2269  0.0770
 1570TIP3    H126201   4.418   5.443  15.410  0.4044  0.4305  0.8484
 1570TIP3    H226202   4.492   5.401  15.284  0.5643  1.6269  0.5260
 1571TIP3   OH226203   2.410   1.203  15.586  0.3095  0.5226 -0.0091
 1571TIP3    H126204   2.318   1.179  15.583  0.7809 -1.3519 -0.8684
 1571TIP3    H226205   2.452   1.135  15.638  1.4812  0.2822 -1.1988
 1572TIP3   OH226206   3.826   1.671  15.686  0.1419 -0.0112  0.3013
 1572TIP3    H126207   3.793   1.676  15.596  0.9699 -0.3082 -0.0311
 1572TIP3    H226208   3.840   1.762  15.712 -0.4349  0.0916  0.2606
 1573TIP3   OH226209   4.539   6.706   5.654  0.0608 -0.3330  0.6974
 1573TIP3    H126210   4.455   6.752   5.664 -0.9211 -1.7434 -0.6589
 1573TIP3    H226211   4.552   6.662   5.738  1.0813  2.3628  2.0842
 1574TIP3   OH226212   1.809   4.726   2.033 -0.4048  0.1058 -0.0936
 1574TIP3    H126213   1.904   4.719   2.040 -0.4809 -0.8536  0.1777
 1574TIP3    H226214   1.780   4.636   2.021 -1.3463  0.2899  0.6976
 1575TIP3   OH226215   6.256   4.777  16.287  0.1068  0.1773  0.0615
 1575TIP3    H126216   6.307   4.710  16.333  0.6062 -0.4316 -1.3196
 1575TIP3    H226217   6.276   4.763  16.195 -1.2805  1.0113 -0.3972
 1576TIP3   OH226218   1.804   2.271   1.577  1.2657 -0.3121 -0.2617
 1576TIP3    H126219   1.823   2.218   1.500  0.0962 -3.0584  1.2068
 1576TIP3    H226220   1.710   2.262   1.591  1.7821 -2.0827  2.8854
 1577TIP3   OH226221   6.313   3.380   5.340 -0.5704  0.6844  0.1686
 1577TIP3    H126222   6.220   3.366   5.320 -0.7949 -0.3535  1.7921
 1577TIP3    H226223   6.312   3.440   5.414  0.2022  3.3136 -1.7890
 1578TIP3   OH226224   4.012   3.290   4.409 -0.3430 -0.0423 -0.0761
 1578TIP3    H126225   4.093   3.247   4.438 -0.3031 -0.2909 -0.5388
 1578TIP3    H226226   4.022   3.380   4.439 -0.1949 -0.2292  0.4552
 1579TIP3   OH226227   1.374   3.966   5.373 -0.0419  0.3142 -0.0503
 1579TIP3    H126228   1.304   3.901   5.377 -2.0813  2.3893  0.2736
 1579TIP3    H226229   1.342   4.031   5.310  1.4784  1.4900  0.3343
 1580TIP3   OH226230   2.813   6.063   3.343  0.1324 -0.2972 -0.0010
 1580TIP3    H126231   2.738   6.062   3.402 -0.4035 -0.8464 -0.6761
 1580TIP3    H226232   2.817   6.152   3.309  0.7240  0.1529  1.1963
 1581TIP3   OH226233   4.035   5.878  14.012  0.6175  0.0292  0.3598
 1581TIP3    H126234   3.974   5.951  14.022  1.6563  0.7492  1.6991
 1581TIP3    H226235   3.978   5.800  14.008 -0.5095  0.8766 -1.2753
 1582TIP3   OH226236   1.843   5.751  14.589 -0.3435  0.0582  0.2522
 1582TIP3    H126237   1.770   5.776  14.646 -2.2169 -0.3756 -1.7769
 1582TIP3    H226238   1.876   5.670  14.626 -1.3072 -0.0545  0.9052
 1583TIP3   OH226239   3.803   3.921   0.286  0.2908  0.1732  0.4394
 1583TIP3    H126240   3.765   3.947   0.202  1.2942 -0.0195 -0.0875
 1583TIP3    H226241   3.790   3.826   0.289 -2.3791  0.4695  1.8644
 1584TIP3   OH226242   0.614   3.493   2.792 -0.1090 -0.1143  0.0056
 1584TIP3    H126243   0.635   3.410   2.834  0.3078  0.0812  0.2028
 1584TIP3    H226244   0.697   3.542   2.794  0.1575 -0.4024 -1.7733
 1585TIP3   OH226245   5.554   3.952  14.628  0.4842  0.0962 -0.7045
 1585TIP3    H126246   5.534   3.858  14.630  0.2383  0.1078 -1.7783
 1585TIP3    H226247   5.482   3.991  14.578  0.1954  0.9737  0.3617
 1586TIP3   OH226248   5.176   3.183   5.376 -0.1568  0.7880  0.3730
 1586TIP3    H126249   5.267   3.155   5.369 -0.1112  1.1805 -0.6717
 1586TIP3    H226250   5.171   3.263   5.324 -1.5284 -0.2918 -1.2427
 1587TIP3   OH226251   4.105   2.189   1.797 -0.0819 -0.0934  0.0229
 1587TIP3    H126252   4.184   2.164   1.845  0.9039  0.9769 -0.9826
 1587TIP3    H226253   4.045   2.220   1.864 -0.2228 -2.2152  0.9722
 1588TIP3   OH226254   6.135   6.816   3.659  0.0303 -0.1969 -0.7181
 1588TIP3    H126255   6.220   6.785   3.627  1.2337  0.8529  1.2602
 1588TIP3    H226256   6.148   6.828   3.753 -1.4207  2.6971 -0.7725
 1589TIP3   OH226257   2.385   4.006  16.157  0.3841  0.0196 -0.5269
 1589TIP3    H126258   2.400   4.055  16.238 -0.5321 -0.8740  0.1973
 1589TIP3    H226259   2.443   4.048  16.094 -0.2681  1.9750  0.0899
 1590TIP3   OH226260   2.878   4.816   5.288  0.0464 -0.1784  0.3482
 1590TIP3    H126261   2.944   4.748   5.276  0.7612  0.6728 -0.7431
 1590TIP3    H226262   2.913   4.871   5.358 -0.4472 -0.7945  1.1055
 1591TIP3   OH226263   3.656   2.473  17.084 -0.1267 -0.4050  0.0253
 1591TIP3    H126264   3.708   2.504  17.158  1.3858 -2.4707 -0.1030
 1591TIP3    H226265   3.718   2.424  17.030 -1.7615 -1.1604 -1.2440
 1592TIP3   OH226266   6.715   0.085  13.205  0.1019 -0.2007 -0.0244
 1592TIP3    H126267   6.746   0.101  13.116  0.7710 -0.7065  0.1141
 1592TIP3    H226268   6.673   0.168  13.230  0.5524  0.1940 -0.5399
 1593TIP3   OH226269   4.917   2.094  16.861 -0.5055 -0.4182 -0.5410
 1593TIP3    H126270   4.857   2.134  16.924 -1.4230  1.0963 -2.2743
 1593TIP3    H226271   4.916   2.001  16.882  0.1922  0.1648  2.4194
 1594TIP3   OH226272   1.999   2.570  11.598  0.1284  0.3222 -0.0975
 1594TIP3    H126273   2.081   2.587  11.551 -0.9819  0.0651 -2.2803
 1594TIP3    H226274   1.953   2.654  11.598 -0.6833 -0.0921 -1.2062
 1595TIP3   OH226275   3.857   4.480   1.072  0.0900 -0.1935  0.0156
 1595TIP3    H126276   3.813   4.500   1.155  0.8944 -0.2233  0.4596
 1595TIP3    H226277   3.828   4.392   1.051 -2.3929  0.8290 -1.2441
 1596TIP3   OH226278   3.808   4.360  16.755  0.2031 -0.3942 -0.4580
 1596TIP3    H126279   3.845   4.299  16.692  0.6958  0.4934 -1.0543
 1596TIP3    H226280   3.716   4.368  16.730  0.3636 -0.1547 -0.9777
 1597TIP3   OH226281   3.682   2.409   4.458  0.0977  0.1554  0.0543
 1597TIP3    H126282   3.610   2.417   4.396 -1.6549 -0.5914  1.9114
 1597TIP3    H226283   3.750   2.466   4.422 -2.3026  2.8933 -0.4939
 1598TIP3   OH226284   5.201   5.257   6.074 -0.5705  0.3438 -0.1265
 1598TIP3    H126285   5.206   5.200   6.151 -0.2363  0.8431  0.2300
 1598TIP3    H226286   5.127   5.315   6.092  0.8914  1.9842  0.9035
 1599TIP3   OH226287   3.908   0.445  12.206  0.6042  1.2563 -0.2355
 1599TIP3    H126288   3.901   0.354  12.236 -0.8367  1.0793 -1.0371
 1599TIP3    H226289   3.928   0.438  12.113  0.4524  1.7667 -0.3072
 1600TIP3   OH226290   4.494   3.929  11.338  0.3520  0.0415  0.4969
 1600TIP3    H126291   4.585   3.929  11.307  0.0818  0.2286 -0.3392
 1600TIP3    H226292   4.467   4.021  11.334  0.0867 -0.0314  0.5952
 1601TIP3   OH226293   4.509   0.819  11.218  0.0034  0.8898 -0.4825
 1601TIP3    H126294   4.441   0.752  11.207  0.5985  0.1436  0.2681
 1601TIP3    H226295   4.527   0.850  11.129 -0.9511  0.7374 -0.7432
 1602TIP3   OH226296   4.782   0.845   0.149 -0.0384  0.7417 -0.5359
 1602TIP3    H126297   4.745   0.838   0.237 -0.7413  1.0942 -0.7954
 1602TIP3    H226298   4.870   0.808   0.157 -0.4085 -0.0200  0.1156
 1603TIP3   OH226299   2.793   4.675  11.902 -0.1254 -0.4071  0.3688
 1603TIP3    H126300   2.793   4.593  11.852 -1.3551 -0.3575  0.2395
 1603TIP3    H226301   2.709   4.716  11.880  0.5241  0.9653  0.3116
 1604TIP3   OH226302   6.411   1.504   5.906  0.5532 -0.1176  0.3126
 1604TIP3    H126303   6.324   1.539   5.924  1.0826  0.7745  1.2603
 1604TIP3    H226304   6.423   1.434   5.971  1.5312  1.5149  1.9967
 1605TIP3   OH226305   6.593   3.657   2.025 -0.1976  0.0362 -0.0010
 1605TIP3    H126306   6.523   3.592   2.033 -0.3939 -0.2499 -2.9091
 1605TIP3    H226307   6.671   3.611   2.057 -0.7909 -0.7087  0.4307
 1606TIP3   OH226308   3.479   2.336   2.792 -0.0555  0.0936  0.2028
 1606TIP3    H126309   3.563   2.379   2.776 -0.2193 -0.0249 -1.0635
 1606TIP3    H226310   3.465   2.346   2.886  0.1593  2.3672  0.0555
 1607TIP3   OH226311   6.747   5.724   1.287 -0.0420 -0.1754  0.5696
 1607TIP3    H126312   6.683   5.777   1.240  0.3875 -0.9043 -0.9107
 1607TIP3    H226313   6.827   5.778   1.288  0.4324 -0.7783 -1.0474
 1608TIP3   OH226314   4.532   3.580   2.304  0.5013 -0.2971 -0.5017
 1608TIP3    H126315   4.541   3.648   2.237 -2.4078  1.1380  0.4069
 1608TIP3    H226316   4.496   3.505   2.256  1.8248 -0.5583 -1.1375
 1609TIP3   OH226317   2.280   6.029   1.388 -0.4071 -0.0841  0.1345
 1609TIP3    H126318   2.251   6.040   1.297  0.2618  1.6675  0.1013
 1609TIP3    H226319   2.357   5.973   1.382  0.2559  0.8723 -0.5071
 1610TIP3   OH226320   3.276   2.423  13.659 -0.1708  0.3060  0.2785
 1610TIP3    H126321   3.188   2.444  13.628 -0.6015 -1.3678  0.3100
 1610TIP3    H226322   3.294   2.335  13.626  0.7455 -0.1305  1.8240
 1611TIP3   OH226323   6.193   5.034  14.813 -0.1555  0.2881 -0.0007
 1611TIP3    H126324   6.279   5.060  14.780  0.2926 -0.5215  0.5070
 1611TIP3    H226325   6.193   4.938  14.810 -1.3544  0.2850 -0.7730
 1612TIP3   OH226326   3.650   2.913   5.738 -0.2009  0.4421 -0.6314
 1612TIP3    H126327   3.730   2.922   5.686  0.4777  1.4999  0.5348
 1612TIP3    H226328   3.620   2.824   5.721  0.7683  0.2918 -1.7185
 1613TIP3   OH226329   3.115   0.358  12.718 -0.1848  0.6678  0.0529
 1613TIP3    H126330   3.144   0.267  12.716  0.2259  0.7419  1.7088
 1613TIP3    H226331   3.028   0.354  12.758 -0.5984  0.9142 -0.7988
 1614TIP3   OH226332   4.902   6.770   4.335 -0.3651 -0.6102  0.1284
 1614TIP3    H126333   4.997   6.758   4.328 -0.6936 -2.3348 -2.6275
 1614TIP3    H226334   4.868   6.683   4.354 -1.4968 -0.3145 -0.4655
 1615TIP3   OH226335   2.433   1.600   3.426  0.1324 -0.1557  0.0889
 1615TIP3    H126336   2.405   1.673   3.371 -1.6271 -0.5228  0.4107
 1615TIP3    H226337   2.351   1.562   3.458  0.9488 -2.8398 -0.7659
 1616TIP3   OH226338   6.506   1.026   2.328 -0.5507  0.0426  0.7724
 1616TIP3    H126339   6.507   0.940   2.286 -0.0542  1.5494 -2.6451
 1616TIP3    H226340   6.417   1.059   2.314  0.0183  1.1443 -0.5308
 1617TIP3   OH226341   1.904   1.044  16.640  0.8389 -0.2999  0.3863
 1617TIP3    H126342   1.985   1.042  16.590  0.6133  0.7570 -0.0528
 1617TIP3    H226343   1.932   1.051  16.732  1.2536  0.5459  0.2056
 1618TIP3   OH226344   6.581   6.698   1.358 -0.0586 -0.4360 -0.6599
 1618TIP3    H126345   6.560   6.659   1.273  0.6172  1.3659 -1.7226
 1618TIP3    H226346   6.671   6.730   1.348  0.0997 -0.3472  0.8134
 1619TIP3   OH226347   2.256   6.353  11.454  0.8246 -0.2572  0.2369
 1619TIP3    H126348   2.267   6.339  11.360  0.5279  2.0312 -0.2020
 1619TIP3    H226349   2.322   6.418  11.476  0.8677 -0.7495  1.6231
 1620TIP3   OH226350   0.614   2.675  14.915 -0.3407  0.0079 -0.1174
 1620TIP3    H126351   0.691   2.681  14.860 -0.8592 -0.2602 -0.8808
 1620TIP3    H226352   0.565   2.601  14.881 -0.9140  0.1449  0.3836
 1621TIP3   OH226353   0.767   2.441  12.594  1.0039  0.2356  0.3641
 1621TIP3    H126354   0.757   2.529  12.631 -0.4864 -0.1008  0.8325
 1621TIP3    H226355   0.759   2.454  12.500 -0.0662  0.5091  0.4839
 1622TIP3   OH226356   5.823   5.539   0.292  0.0205 -0.8549  0.6324
 1622TIP3    H126357   5.886   5.478   0.329  0.5057 -0.0772  1.1259
 1622TIP3    H226358   5.867   5.574   0.214  0.0912 -0.5175  0.8220
 1623TIP3   OH226359   5.818   3.085   5.789 -0.5715  0.1566 -0.3908
 1623TIP3    H126360   5.854   3.120   5.707 -0.0672 -0.8017 -0.5841
 1623TIP3    H226361   5.764   3.011   5.761 -2.1919  1.1695 -0.0458
 1624TIP3   OH226362   0.118   1.801  12.026  0.4161  0.1372  0.2133
 1624TIP3    H126363   0.096   1.805  12.119  2.1862  0.5317  0.6571
 1624TIP3    H226364   0.213   1.817  12.023  0.6552 -1.2490 -1.5387
 1625TIP3   OH226365   1.139   6.651   3.334  0.0598 -0.4783 -0.6460
 1625TIP3    H126366   1.185   6.567   3.336  1.0695  0.0721 -0.1726
 1625TIP3    H226367   1.129   6.675   3.426  0.0039  0.0480 -0.7884
 1626TIP3   OH226368   4.728   0.551   1.164  0.5720  0.2338 -0.4674
 1626TIP3    H126369   4.821   0.564   1.183  0.5725 -0.4616  0.0472
 1626TIP3    H226370   4.686   0.544   1.250  0.1683 -0.2903 -0.6988
 1627TIP3   OH226371   3.334   3.389  11.173  0.8041  0.3803 -0.2868
 1627TIP3    H126372   3.363   3.308  11.215  2.6798  0.5970 -1.0208
 1627TIP3    H226373   3.402   3.407  11.108  0.0701  2.1793 -0.6174
 1628TIP3   OH226374   1.203   3.217  11.248 -0.6977  0.3333  0.6484
 1628TIP3    H126375   1.109   3.225  11.264 -1.0610 -0.0846 -1.1286
 1628TIP3    H226376   1.220   3.123  11.248 -0.5168  0.3636 -0.3140
 1629TIP3   OH226377   0.008   2.653  16.727 -0.1227 -0.0576 -0.1895
 1629TIP3    H126378   0.021   2.587  16.660 -0.2011  0.6949 -0.9644
 1629TIP3    H226379  -0.078   2.691  16.707 -0.8222 -0.8213  1.2226
 1630TIP3   OH226380   2.896   1.493  15.244  0.2221 -0.0811 -0.5470
 1630TIP3    H126381   2.968   1.467  15.301  0.2163 -0.3176 -0.6462
 1630TIP3    H226382   2.918   1.457  15.158  0.1358  0.1070 -0.6502
 1631TIP3   OH226383   3.341   5.845   4.139 -0.1063  0.1095 -0.7064
 1631TIP3    H126384   3.283   5.794   4.195 -0.2238  2.0909  1.1060
 1631TIP3    H226385   3.410   5.877   4.198 -0.6744  2.9628 -1.4170
 1632TIP3   OH226386   3.447   1.518   5.071  0.0069  0.1680  0.3817
 1632TIP3    H126387   3.401   1.448   5.117 -1.2407 -0.1262 -1.2245
 1632TIP3    H226388   3.535   1.483   5.057  0.6800  0.5487  3.0718
 1633TIP3   OH226389   4.642   2.174  13.504  0.1289 -0.1687 -0.1291
 1633TIP3    H126390   4.648   2.205  13.413 -0.4887 -1.9163 -0.8030
 1633TIP3    H226391   4.552   2.192  13.529  0.5816  1.3125  0.5593
 1634TIP3   OH226392   4.874   1.147   3.575 -0.4171  0.3509  0.2612
 1634TIP3    H126393   4.938   1.079   3.554  0.0649  1.2923 -1.5119
 1634TIP3    H226394   4.850   1.185   3.491 -0.7182  2.3293  1.1784
 1635TIP3   OH226395   5.508   6.248  14.280 -0.3701  0.6608 -0.3473
 1635TIP3    H126396   5.603   6.250  14.272 -0.3601  0.8410 -0.1789
 1635TIP3    H226397   5.491   6.271  14.372 -0.5127 -0.6666 -0.0162
 1636TIP3   OH226398   3.420   6.581  17.111 -0.4294  0.0396  0.0879
 1636TIP3    H126399   3.385   6.667  17.088 -0.7510  0.4771  2.0660
 1636TIP3    H226400   3.501   6.600  17.159  0.1794 -0.8262 -0.5566
 1637TIP3   OH226401   1.345   0.779  13.982  0.1849 -0.2085  0.3177
 1637TIP3    H126402   1.277   0.841  14.009 -0.0215  0.3336 -1.3316
 1637TIP3    H226403   1.426   0.831  13.985  0.1960 -0.2162  0.1694
 1638TIP3   OH226404   1.456   0.898  11.229  0.3023 -0.2752  0.1161
 1638TIP3    H126405   1.532   0.843  11.211  0.3936 -0.1332  0.0625
 1638TIP3    H226406   1.444   0.892  11.324  0.4524 -0.2038  0.1393
 1639TIP3   OH226407   5.475   4.385  16.417  0.6173 -0.2263  0.3192
 1639TIP3    H126408   5.462   4.408  16.509 -0.7025  0.3058  0.0286
 1639TIP3    H226409   5.518   4.461  16.379  0.8374 -0.3004  0.4202
 1640TIP3   OH226410   2.066   5.424   3.884  0.0209 -0.1004 -0.3328
 1640TIP3    H126411   1.971   5.413   3.885  0.2371 -2.2263  0.0586
 1640TIP3    H226412   2.088   5.437   3.792 -0.5558 -0.5767 -0.5427
 1641TIP3   OH226413   3.852   2.680   2.320  0.6284 -0.0882  0.4416
 1641TIP3    H126414   3.834   2.618   2.249  1.3325 -1.6792  1.5893
 1641TIP3    H226415   3.905   2.630   2.383  2.1877  1.9985  0.9135
 1642TIP3   OH226416   0.406   4.093  11.542  0.1082 -0.1281  0.0690
 1642TIP3    H126417   0.474   4.147  11.582 -1.2221  1.0492  0.8258
 1642TIP3    H226418   0.415   4.109  11.448  1.8208 -1.1739  0.0188
 1643TIP3   OH226419   2.369   6.396  13.171 -0.6669  0.0449 -0.4035
 1643TIP3    H126420   2.418   6.364  13.096  0.0518  1.5558 -0.6035
 1643TIP3    H226421   2.300   6.331  13.184 -0.6322 -0.3821 -2.1858
 1644TIP3   OH226422   1.061   1.955  11.932  0.3640  0.1511 -0.4692
 1644TIP3    H126423   1.088   1.938  11.842  1.3266 -1.1043  0.0329
 1644TIP3    H226424   1.133   2.004  11.971  0.4325 -0.2398 -0.0888
 1645TIP3   OH226425   0.121   4.574   5.005 -0.2402  0.0240  0.3109
 1645TIP3    H126426   0.093   4.532   4.923  0.0012 -0.6870  0.5856
 1645TIP3    H226427   0.206   4.535   5.024 -0.9446 -0.9571  1.6731
 1646TIP3   OH226428   6.695   5.995  14.856 -0.6286 -0.0714 -0.0585
 1646TIP3    H126429   6.649   6.042  14.786  0.2974 -1.3191 -1.5654
 1646TIP3    H226430   6.782   5.979  14.821 -0.8559 -2.7669  0.4178
 1647TIP3   OH226431   4.209   2.682  12.743  0.3368  0.3791 -0.3275
 1647TIP3    H126432   4.253   2.766  12.757 -1.9051  1.1635  3.1221
 1647TIP3    H226433   4.137   2.702  12.683 -0.8025  1.2647  1.2599
 1648TIP3   OH226434   3.483   4.449  14.160 -0.4063  0.1034 -0.3663
 1648TIP3    H126435   3.452   4.366  14.123 -0.6351  0.1567 -0.2947
 1648TIP3    H226436   3.423   4.515  14.124 -0.6128  0.1573  0.0723
 1649TIP3   OH226437   3.178   2.285  17.115 -0.1424  0.0111  0.2161
 1649TIP3    H126438   3.229   2.332  17.049 -1.2086 -0.2610 -0.8286
 1649TIP3    H226439   3.232   2.290  17.194  1.8918 -1.0041 -1.0315
 1650TIP3   OH226440   4.516   2.307  11.327  0.0113 -0.3357 -0.0036
 1650TIP3    H126441   4.504   2.218  11.360 -1.2216 -0.3387 -0.4126
 1650TIP3    H226442   4.545   2.295  11.236 -0.0847 -0.3106 -0.0369
 1651TIP3   OH226443   1.812   5.603   1.545  1.0278 -0.4349 -0.0614
 1651TIP3    H126444   1.758   5.597   1.624  0.7947 -1.2978 -0.2717
 1651TIP3    H226445   1.778   5.680   1.499  1.8557  0.6972  1.1657
 1652TIP3   OH226446   0.330   2.019   6.506  0.2153  0.3751 -0.1892
 1652TIP3    H126447   0.314   1.960   6.432 -0.7499 -0.0837  0.3692
 1652TIP3    H226448   0.280   1.981   6.578  1.0618  0.8716  0.6880
 1653TIP3   OH226449   4.527   6.451  13.862 -0.2139  0.2708  0.7903
 1653TIP3    H126450   4.449   6.481  13.816  0.2580 -0.1721 -0.3307
 1653TIP3    H226451   4.512   6.358  13.877  0.8459 -0.2491 -1.0807
 1654TIP3   OH226452   3.599   2.656   6.204 -0.2239 -0.1150 -0.2030
 1654TIP3    H126453   3.559   2.687   6.286 -2.0772  1.8828 -1.7536
 1654TIP3    H226454   3.690   2.684   6.211 -0.9715  2.5610  0.0806
 1655TIP3   OH226455   3.268   2.195   2.239 -0.8767  0.2329  0.3763
 1655TIP3    H126456   3.305   2.112   2.269  0.5699  1.0727  0.9749
 1655TIP3    H226457   3.254   2.245   2.319 -1.5852  0.6578  0.0015
 1656TIP3   OH226458   5.027   4.775  12.870 -0.2692  0.0601  0.4486
 1656TIP3    H126459   5.092   4.843  12.887 -0.0616  0.0483 -0.2568
 1656TIP3    H226460   5.003   4.742  12.957 -0.3852  1.0346  0.7938
 1657TIP3   OH226461   6.435   1.364  11.985  0.6470 -0.1885 -0.4526
 1657TIP3    H126462   6.474   1.311  11.915 -1.3765 -1.3187 -0.7996
 1657TIP3    H226463   6.349   1.388  11.951  0.8106  1.8835  0.4321
 1658TIP3   OH226464   0.696   5.402  12.365 -0.0355 -0.5105  0.1706
 1658TIP3    H126465   0.768   5.340  12.378  0.5331  0.2349  0.7183
 1658TIP3    H226466   0.679   5.436  12.453 -0.3766  0.0565 -0.1133
 1659TIP3   OH226467   5.679   4.993   1.862 -0.0752  0.1398  0.4316
 1659TIP3    H126468   5.694   5.008   1.768  0.2898  1.5067  0.6910
 1659TIP3    H226469   5.617   5.061   1.887  0.3229  0.1882  1.3222
 1660TIP3   OH226470   3.190   2.160  13.638  0.4887  0.4952  0.1638
 1660TIP3    H126471   3.129   2.168  13.712  1.1929 -1.3096  1.0281
 1660TIP3    H226472   3.137   2.126  13.567 -0.4656  3.3917 -0.6358
 1661TIP3   OH226473   2.573   0.781  14.247 -0.1233 -0.3871  0.7494
 1661TIP3    H126474   2.605   0.693  14.267 -1.0374 -0.6055  1.3304
 1661TIP3    H226475   2.646   0.839  14.266 -0.1020 -0.8526  2.1680
 1662TIP3   OH226476   2.377   1.618   1.462 -0.1657 -0.7223 -0.4549
 1662TIP3    H126477   2.363   1.570   1.544 -0.9206  0.1211 -0.0671
 1662TIP3    H226478   2.472   1.617   1.450  0.1049  0.2494  1.1601
 1663TIP3   OH226479   5.171   2.482   5.838  0.1772  0.2661  0.1607
 1663TIP3    H126480   5.168   2.455   5.930  1.0044 -2.5426 -0.5172
 1663TIP3    H226481   5.201   2.573   5.840  2.3588 -0.3838  2.6160
 1664TIP3   OH226482   6.577   2.191  13.464  0.3587  1.0578  0.7815
 1664TIP3    H126483   6.498   2.141  13.444  1.1429  0.7129 -1.7434
 1664TIP3    H226484   6.625   2.135  13.525  0.1276 -0.2117 -0.1609
 1665TIP3   OH226485   6.311   1.518   1.480  0.6926 -0.1263 -0.2744
 1665TIP3    H126486   6.292   1.601   1.436  1.3655 -0.3996 -1.0997
 1665TIP3    H226487   6.256   1.520   1.559 -0.9137  0.1540 -1.3657
 1666TIP3   OH226488   5.474   1.606  13.260  0.3611  0.0902  0.2714
 1666TIP3    H126489   5.475   1.638  13.170  1.8468 -2.0524 -0.5443
 1666TIP3    H226490   5.381   1.599  13.282 -0.0527 -0.3952 -1.5169
 1667TIP3   OH226491   1.222   5.581  14.403 -0.2060 -0.0645 -0.2850
 1667TIP3    H126492   1.215   5.502  14.456 -1.2606  0.6304  0.6852
 1667TIP3    H226493   1.165   5.644  14.447  0.5719  1.2275 -1.0423
 1668TIP3   OH226494   2.160   6.718  15.159 -0.0962 -0.1938 -0.4247
 1668TIP3    H126495   2.189   6.666  15.084 -1.6685  0.2549 -1.3848
 1668TIP3    H226496   2.118   6.795  15.121  2.6809  2.1789  0.9644
 1669TIP3   OH226497   2.500   0.578  13.418  0.2055 -0.1237  0.4488
 1669TIP3    H126498   2.467   0.666  13.399  2.1493  0.7955  1.0626
 1669TIP3    H226499   2.421   0.523  13.423 -1.2116  1.9227  1.8915
 1670TIP3   OH226500   2.937   6.823   5.940 -0.4394 -0.1111  0.4481
 1670TIP3    H126501   3.026   6.837   5.907  0.3382 -2.8670  1.0360
 1670TIP3    H226502   2.930   6.879   6.017  1.2507 -0.6696  1.0507
 1671TIP3   OH226503   6.598   0.931  16.725 -0.1398  0.1272 -0.5679
 1671TIP3    H126504   6.606   0.963  16.814 -0.6419  0.3802 -0.6076
 1671TIP3    H226505   6.543   0.995  16.681  0.0459 -0.0323 -1.0428
 1672TIP3   OH226506   4.092   3.878   1.265  0.4689  0.3400  0.1018
 1672TIP3    H126507   4.062   3.908   1.179 -0.1646 -0.7976 -0.0923
 1672TIP3    H226508   4.051   3.938   1.327  0.2893  0.6862 -0.3496
 1673TIP3   OH226509   0.150   3.389  16.273 -0.0572 -0.2371 -0.7276
 1673TIP3    H126510   0.080   3.368  16.211 -1.8786 -2.9682  1.9397
 1673TIP3    H226511   0.118   3.467  16.320 -1.5391 -1.5359  0.5591
 1674TIP3   OH226512   4.765   3.237   3.884  0.3240 -0.4826  0.1825
 1674TIP3    H126513   4.695   3.294   3.855 -1.0138 -1.7577  0.7474
 1674TIP3    H226514   4.774   3.171   3.815  0.4372 -0.7611  0.4562
 1675TIP3   OH226515   3.393   0.079   3.317  0.0386  0.2963 -0.2964
 1675TIP3    H126516   3.366   0.003   3.265  1.2918 -1.6837  1.7715
 1675TIP3    H226517   3.313   0.109   3.360 -0.0677 -1.4496  0.7817
 1676TIP3   OH226518   0.605   4.182   5.902 -0.9244  0.0642  0.2145
 1676TIP3    H126519   0.579   4.092   5.921 -1.1022  0.0569 -0.0644
 1676TIP3    H226520   0.580   4.231   5.981  0.0273 -0.2913  0.7498
 1677TIP3   OH226521   5.221   2.955   1.958  0.2502  0.1879 -0.1097
 1677TIP3    H126522   5.161   2.898   1.910 -0.2551 -2.1341  3.0043
 1677TIP3    H226523   5.171   3.035   1.974 -0.6891 -0.2790 -0.6568
 1678TIP3   OH226524   0.208   3.055   4.439 -0.1168 -0.2084  0.3263
 1678TIP3    H126525   0.213   3.113   4.514  0.1829 -0.4632  0.5064
 1678TIP3    H226526   0.247   3.104   4.367  2.9050 -1.2177  1.1199
 1679TIP3   OH226527   1.531   5.317  15.437  0.5888 -0.1146 -0.5088
 1679TIP3    H126528   1.442   5.280  15.434  0.9436 -0.9323 -3.4843
 1679TIP3    H226529   1.586   5.243  15.462  0.5476  0.3224  1.0279
 1680TIP3   OH226530   2.917   2.771  15.589 -0.3213 -0.3099 -0.2482
 1680TIP3    H126531   2.877   2.757  15.675  0.6032  0.9680  0.4265
 1680TIP3    H226532   3.006   2.801  15.609  0.3750 -1.2849 -1.6828
 1681TIP3   OH226533   6.673   6.795   0.048 -0.4576  0.3116  0.0816
 1681TIP3    H126534   6.637   6.884   0.054 -0.1490  0.3546  2.4635
 1681TIP3    H226535   6.766   6.808   0.030 -0.5234  0.4467 -0.1667
 1682TIP3   OH226536   4.453   1.028   0.770 -0.2467 -0.2029 -0.6706
 1682TIP3    H126537   4.503   1.098   0.729  1.8885 -1.3773 -0.2513
 1682TIP3    H226538   4.428   1.064   0.855 -0.7240  0.6503 -1.1596
 1683TIP3   OH226539   2.271   4.606   3.598 -0.3254 -0.4253 -0.2951
 1683TIP3    H126540   2.287   4.635   3.687 -0.7100  0.5099 -0.5177
 1683TIP3    H226541   2.253   4.512   3.606 -0.3696 -0.3452  0.6049
 1684TIP3   OH226542   0.491   5.070   0.507  0.1549 -0.1353  0.1015
 1684TIP3    H126543   0.438   5.123   0.567 -0.4514  1.6411 -1.8763
 1684TIP3    H226544   0.580   5.077   0.541 -0.0816  1.3337  0.4839
 1685TIP3   OH226545   5.135   3.436   5.320  0.4823  0.3775  0.2764
 1685TIP3    H126546   5.185   3.466   5.397  0.1048  1.4714  0.1135
 1685TIP3    H226547   5.044   3.442   5.347  0.3852 -0.8671  0.3000
 1686TIP3   OH226548   6.558   0.845   1.840  0.0667  0.1798  0.0927
 1686TIP3    H126549   6.581   0.904   1.768 -0.0450  1.1213  0.8079
 1686TIP3    H226550   6.514   0.772   1.798  1.4444 -0.0934 -0.9748
 1687TIP3   OH226551   1.370   5.931  13.255  0.1339 -0.0653  0.1408
 1687TIP3    H126552   1.299   5.945  13.192 -0.8040  1.4723  1.4697
 1687TIP3    H226553   1.330   5.879  13.325  0.6476 -0.2036  0.3328
 1688TIP3   OH226554   0.211   0.919   2.244 -0.4905  0.3028  0.2746
 1688TIP3    H126555   0.243   0.950   2.159  0.0087 -0.4199  0.1833
 1688TIP3    H226556   0.196   0.825   2.231 -2.9206  0.6298  0.2518
 1689TIP3   OH226557   4.284   3.305   4.188 -0.1090 -0.5060  0.0294
 1689TIP3    H126558   4.365   3.352   4.170  0.1996 -1.2802 -0.6993
 1689TIP3    H226559   4.214   3.366   4.164  0.2865 -0.7707 -2.0338
 1690TIP3   OH226560   5.223   1.715   4.361 -0.2821 -0.1503  0.2397
 1690TIP3    H126561   5.246   1.705   4.268 -0.7265 -1.6086  0.2700
 1690TIP3    H226562   5.298   1.761   4.399 -0.6557  1.6416 -1.0733
 1691TIP3   OH226563   5.911   2.689   2.801 -0.2104  0.1993  0.3406
 1691TIP3    H126564   5.991   2.710   2.850 -0.2057  1.4508 -0.1709
 1691TIP3    H226565   5.907   2.593   2.802  1.8862  0.0481 -0.5440
 1692TIP3   OH226566   5.512   0.847   0.724 -0.6193  0.2665  0.4626
 1692TIP3    H126567   5.544   0.782   0.787 -0.9829 -1.5743 -1.1364
 1692TIP3    H226568   5.590   0.875   0.677 -0.7726 -1.3517 -0.8623
 1693TIP3   OH226569   4.626   1.232   2.610  0.4327 -0.5116 -0.1059
 1693TIP3    H126570   4.570   1.207   2.683 -0.0925 -2.3471 -1.0656
 1693TIP3    H226571   4.709   1.257   2.650 -0.6309  1.0045  1.2511
 1694TIP3   OH226572   0.438   3.553   5.235  0.0556 -0.2085 -0.1070
 1694TIP3    H126573   0.348   3.554   5.267  0.3966  0.6799  0.9098
 1694TIP3    H226574   0.490   3.525   5.310  0.8281  1.4109  0.0232
 1695TIP3   OH226575   3.562   5.811  15.277 -0.0991 -0.3365 -0.7878
 1695TIP3    H126576   3.521   5.891  15.245 -2.4240 -0.6414  1.1445
 1695TIP3    H226577   3.626   5.841  15.341  0.2491  0.0135 -1.2896
 1696TIP3   OH226578   5.225   1.650  12.399  0.4971 -0.0379  0.9051
 1696TIP3    H126579   5.317   1.644  12.424 -0.2781 -0.2518  4.2939
 1696TIP3    H226580   5.204   1.744  12.405  0.3094 -0.0838  0.9861
 1697TIP3   OH226581   4.150   0.078  16.571 -0.2621 -0.1465 -0.0566
 1697TIP3    H126582   4.108   0.137  16.508 -1.2378 -0.5689  0.1870
 1697TIP3    H226583   4.082   0.059  16.635  0.5796 -0.1115  0.8652
 1698TIP3   OH226584   0.051   6.045  15.434 -0.4613 -0.6561  0.1272
 1698TIP3    H126585   0.138   6.023  15.468 -0.1786 -0.4810 -0.4778
 1698TIP3    H226586  -0.008   5.984  15.479 -0.4063  0.9397  2.5590
 1699TIP3   OH226587   5.117   6.219  16.347 -0.0675  0.7539  0.3312
 1699TIP3    H126588   5.114   6.141  16.291 -2.0825  1.6965 -0.9563
 1699TIP3    H226589   5.030   6.223  16.388  0.6720  1.2635  1.9546
 1700TIP3   OH226590   6.033   6.817  11.878 -0.2343 -0.4013 -0.8733
 1700TIP3    H126591   6.043   6.830  11.972 -0.2768 -1.1654 -0.7550
 1700TIP3    H226592   6.062   6.899  11.839 -1.6794  0.5024 -0.1336
 1701TIP3   OH226593   5.988   1.497   1.352  0.0773 -0.6109 -0.1163
 1701TIP3    H126594   5.901   1.457   1.351 -0.3511  0.2520  0.9520
 1701TIP3    H226595   5.974   1.585   1.315  1.0697 -1.4834 -2.8167
 1702TIP3   OH226596   0.148   0.711  16.463  0.1050 -0.2377 -0.0170
 1702TIP3    H126597   0.084   0.682  16.397  0.5934 -0.6679 -0.3039
 1702TIP3    H226598   0.111   0.792  16.497  0.7747  1.0913 -2.2106
 1703TIP3   OH226599   6.003   4.136  14.913 -0.6120  0.1124 -0.0070
 1703TIP3    H126600   5.936   4.204  14.918  1.5126  2.5440 -1.8541
 1703TIP3    H226601   5.962   4.064  14.866 -2.3700  0.8921  0.2699
 1704TIP3   OH226602   5.173   1.428  13.465 -0.2175 -0.0645  0.2854
 1704TIP3    H126603   5.110   1.356  13.468  0.0909 -0.3792 -0.5816
 1704TIP3    H226604   5.159   1.470  13.380  1.7872 -1.1228 -0.6314
 1705TIP3   OH226605   6.508   0.614  14.549  0.8961 -0.2456 -0.0337
 1705TIP3    H126606   6.556   0.531  14.547 -1.3882 -1.6382 -1.2616
 1705TIP3    H226607   6.433   0.597  14.605 -1.0144  0.0662 -2.3280
 1706TIP3   OH226608   3.659   0.484   1.553  0.6364  0.0427 -0.3785
 1706TIP3    H126609   3.712   0.430   1.613  1.1580 -0.0522 -0.9087
 1706TIP3    H226610   3.719   0.506   1.482 -0.2237 -0.6184 -1.3352
 1707TIP3   OH226611   5.908   2.983   2.853 -0.8170  0.1940  0.0621
 1707TIP3    H126612   5.995   2.998   2.815  0.8704 -1.3387  2.8933
 1707TIP3    H226613   5.868   2.917   2.797 -0.0794  0.7779 -1.1910
 1708TIP3   OH226614   0.436   4.975   5.120 -0.1573 -0.2022  0.0590
 1708TIP3    H126615   0.346   4.944   5.107 -0.2661 -0.0784  0.4750
 1708TIP3    H226616   0.481   4.901   5.161 -0.4645  0.2191  1.2210
 1709TIP3   OH226617   6.127   1.890   4.234 -0.0512  0.3099 -0.5372
 1709TIP3    H126618   6.032   1.886   4.236 -0.0157 -0.5588  1.7141
 1709TIP3    H226619   6.149   1.967   4.286  0.4960 -0.8200  0.9576
 1710TIP3   OH226620   2.802   6.470   1.138 -0.0444 -0.2557 -0.1509
 1710TIP3    H126621   2.895   6.453   1.150  0.6743  1.7163 -2.1716
 1710TIP3    H226622   2.793   6.490   1.045 -2.6253 -0.9297 -0.1462
 1711TIP3   OH226623   3.710   2.831  13.613  0.2836  0.3378 -0.1208
 1711TIP3    H126624   3.642   2.857  13.675  0.3987 -0.0834  0.1833
 1711TIP3    H226625   3.671   2.849  13.527 -0.1928  0.1491  0.0509
 1712TIP3   OH226626   2.648   5.660   1.961  0.2003 -0.4415  0.0516
 1712TIP3    H126627   2.582   5.728   1.946 -0.1295 -0.9995 -1.2053
 1712TIP3    H226628   2.656   5.616   1.876  2.0744 -0.4950  0.2210
 1713TIP3   OH226629   2.106   5.224   3.195  0.4033 -0.1391 -0.0208
 1713TIP3    H126630   2.126   5.312   3.163  0.4018 -0.5278 -1.1538
 1713TIP3    H226631   2.130   5.166   3.122  0.4549 -1.0820  0.7236
 1714TIP3   OH226632   5.870   2.367  14.899  0.2348 -0.2932 -0.7496
 1714TIP3    H126633   5.788   2.372  14.849 -0.7227  1.7974  0.8709
 1714TIP3    H226634   5.922   2.441  14.867  1.3468 -1.3526 -1.4557
 1715TIP3   OH226635   0.710   5.428   3.705 -0.1568  0.3535  0.1978
 1715TIP3    H126636   0.643   5.494   3.691  0.6186  1.4197  1.3085
 1715TIP3    H226637   0.789   5.477   3.726  0.1819 -0.8945  2.1609
 1716TIP3   OH226638   3.431   1.528  13.387  0.4743  0.3989  0.4939
 1716TIP3    H126639   3.364   1.586  13.350 -0.0185 -0.1013  0.5783
 1716TIP3    H226640   3.402   1.513  13.478  0.7836  0.3051  0.5765
 1717TIP3   OH226641   4.090   2.147   0.519 -0.3047 -0.2389 -0.1508
 1717TIP3    H126642   4.185   2.138   0.511 -0.3045 -0.7698  0.3309
 1717TIP3    H226643   4.060   2.059   0.544 -0.8036  0.1638  0.7176
 1718TIP3   OH226644   4.308   2.705   3.194 -0.3744 -0.0397  0.1833
 1718TIP3    H126645   4.315   2.645   3.268 -2.0451 -0.9990 -0.3692
 1718TIP3    H226646   4.388   2.690   3.143  0.8717  0.7462  1.8284
 1719TIP3   OH226647   2.136   4.346  15.291  0.1045 -0.1551 -0.1568
 1719TIP3    H126648   2.205   4.412  15.288  1.0109 -1.0407  0.6431
 1719TIP3    H226649   2.099   4.354  15.379 -0.7409  0.2299 -0.5402
 1720TIP3   OH226650   6.321   2.172  13.724  0.1116 -0.4736  0.4884
 1720TIP3    H126651   6.417   2.167  13.725  0.2148  0.6219 -0.7693
 1720TIP3    H226652   6.293   2.081  13.724  1.1281 -0.8088  1.5542
 1721TIP3   OH226653   4.983   5.407  13.628  0.0422 -0.3514  0.1974
 1721TIP3    H126654   4.915   5.402  13.695 -2.0023  0.6900 -1.6612
 1721TIP3    H226655   5.014   5.317  13.618 -0.5432 -0.7242  1.5944
 1722TIP3   OH226656   5.845   1.853  11.833  0.2853  0.9204  0.2445
 1722TIP3    H126657   5.903   1.874  11.906  1.5907  0.7206 -0.6907
 1722TIP3    H226658   5.795   1.777  11.862  1.4454  0.2722  0.6041
 1723TIP3   OH226659   0.920   3.294   0.893  0.4332 -0.2066 -0.5443
 1723TIP3    H126660   0.970   3.222   0.932  0.1570 -0.0699  0.0772
 1723TIP3    H226661   0.987   3.351   0.856  0.6537 -0.7995 -1.0846
 1724TIP3   OH226662   1.534   3.328   0.851  0.1887  0.0467  0.5584
 1724TIP3    H126663   1.497   3.415   0.836  1.7403  0.6844  0.2880
 1724TIP3    H226664   1.559   3.329   0.943 -0.5064 -0.4113  0.7594
 1725TIP3   OH226665   4.822   3.246   2.124 -0.2576  0.6382 -0.6034
 1725TIP3    H126666   4.878   3.323   2.109 -0.0384  0.4743 -0.6297
 1725TIP3    H226667   4.783   3.227   2.039 -0.6823  1.0041 -0.4983
 1726TIP3   OH226668   0.901   4.892  13.146  0.0006 -0.0366  0.0573
 1726TIP3    H126669   0.872   4.922  13.060  0.3893  1.8313  0.5358
 1726TIP3    H226670   0.976   4.947  13.166  0.7536 -1.3712  1.0272
 1727TIP3   OH226671   1.056   0.583  13.730  0.4470 -0.1005  0.5593
 1727TIP3    H126672   1.012   0.639  13.666  0.6731 -1.3439 -0.7216
 1727TIP3    H226673   0.985   0.538  13.776  0.3182 -0.2741  0.1889
 1728TIP3   OH226674   0.763   5.228   4.432 -0.6442 -0.3410  0.6492
 1728TIP3    H126675   0.669   5.210   4.437 -1.1515  1.7683 -0.1975
 1728TIP3    H226676   0.798   5.199   4.516 -1.8262 -2.2203  0.5528
 1729TIP3   OH226677   5.961   1.296  17.153 -0.0036 -0.1962 -0.1582
 1729TIP3    H126678   5.875   1.337  17.165 -0.4462 -1.1997  0.2110
 1729TIP3    H226679   6.001   1.299  17.240  0.4103  0.4005 -0.3610
 1730TIP3   OH226680   2.244   2.571  17.000  0.1841  0.1458  0.7809
 1730TIP3    H126681   2.303   2.590  17.073 -0.3446  0.6773  1.0730
 1730TIP3    H226682   2.207   2.655  16.976  0.5824  0.0277 -0.3121
 1731TIP3   OH226683   5.590   6.514   5.186 -0.2128  0.5005 -0.4839
 1731TIP3    H126684   5.645   6.574   5.136 -2.3790  1.2278 -2.1429
 1731TIP3    H226685   5.509   6.562   5.202 -1.8070 -1.7184 -1.3575
 1732TIP3   OH226686   5.089   0.000   2.963  0.6756  0.3538  0.2728
 1732TIP3    H126687   5.047   0.051   3.032  0.8270 -1.3317  1.6759
 1732TIP3    H226688   5.105  -0.086   3.002 -0.2236 -1.0534 -2.2092
 1733TIP3   OH226689   6.363   2.520   0.602  0.4881  0.0141 -0.1127
 1733TIP3    H126690   6.382   2.523   0.696  1.5772 -0.7334 -0.2900
 1733TIP3    H226691   6.406   2.440   0.572  0.7737  0.6263 -1.3864
 1734TIP3   OH226692   4.740   1.866   4.534  0.2129  0.2154  0.2820
 1734TIP3    H126693   4.799   1.791   4.542  1.2412  0.9548 -0.2001
 1734TIP3    H226694   4.653   1.829   4.548  0.7727 -0.9053  0.9715
 1735TIP3   OH226695   3.160   2.035  15.303  0.0501 -0.6762 -0.4986
 1735TIP3    H126696   3.251   2.030  15.272 -0.8514 -1.1462 -3.3153
 1735TIP3    H226697   3.114   2.082  15.234 -1.9115 -0.5708  0.8120
 1736TIP3   OH226698   4.692   6.386   0.682  0.0384  0.1392  0.0388
 1736TIP3    H126699   4.631   6.314   0.667  1.2224 -1.0462  0.7287
 1736TIP3    H226700   4.703   6.427   0.596  0.2347 -1.2279 -0.6099
 1737TIP3   OH226701   2.937   2.025  10.789  0.3398 -0.7957  0.6753
 1737TIP3    H126702   2.940   1.944  10.739 -0.8249 -0.8506  0.6704
 1737TIP3    H226703   2.938   2.094  10.723 -1.2266 -0.8685  0.5218
 1738TIP3   OH226704   0.670   5.094  14.192  0.7502 -0.6351  0.1829
 1738TIP3    H126705   0.683   5.008  14.152 -0.5464 -0.8021  0.0842
 1738TIP3    H226706   0.576   5.101  14.205  0.8110  0.8497  0.0343
 1739TIP3   OH226707   5.210   4.934   3.143  0.4942 -0.1591 -0.4515
 1739TIP3    H126708   5.179   4.981   3.065  0.9416 -0.3339 -0.7386
 1739TIP3    H226709   5.306   4.941   3.138  0.5760 -1.2475 -0.5894
 1740TIP3   OH226710   0.210   3.221  13.336  0.3001 -0.1041  0.2554
 1740TIP3    H126711   0.236   3.171  13.259  0.7668  1.9147 -0.9603
 1740TIP3    H226712   0.177   3.303  13.302 -0.6228  0.3795  2.1789
 1741TIP3   OH226713   6.161   0.644  10.679 -0.0822 -0.2459 -0.6586
 1741TIP3    H126714   6.224   0.672  10.613  0.2936 -0.1886 -0.2775
 1741TIP3    H226715   6.193   0.559  10.709 -0.3168 -0.3265 -0.6304
 1742TIP3   OH226716   2.759   6.093  17.140  0.4066 -0.6230 -0.3937
 1742TIP3    H126717   2.833   6.055  17.187 -0.0116  0.6953  1.5013
 1742TIP3    H226718   2.690   6.098  17.206  0.3030  2.8785 -0.5935
 1743TIP3   OH226719   1.332   3.673  16.251  0.2548 -0.0999  0.3514
 1743TIP3    H126720   1.410   3.682  16.305  0.1871  0.5150  0.3562
 1743TIP3    H226721   1.364   3.687  16.161  0.6201 -2.4500  0.0429
 1744TIP3   OH226722   5.518   0.548  12.700  0.3629  0.3834 -0.1350
 1744TIP3    H126723   5.610   0.525  12.715  0.0299  0.1779  1.7961
 1744TIP3    H226724   5.469   0.475  12.738 -0.6303  0.5409 -1.0604
 1745TIP3   OH226725   1.867   4.680   1.635 -1.1777  0.3210 -0.0325
 1745TIP3    H126726   1.957   4.710   1.652 -1.3967  0.6774  0.5174
 1745TIP3    H226727   1.843   4.722   1.553 -1.4763  1.6615  0.7242
 1746TIP3   OH226728   1.969   4.379   0.030  0.2607 -0.5230 -0.1793
 1746TIP3    H126729   1.895   4.438   0.048 -0.2238 -0.2258 -2.7382
 1746TIP3    H226730   1.944   4.334  -0.051  2.3635 -1.3268 -0.4275
 1747TIP3   OH226731   2.444   3.209  14.639  0.0022 -0.3618  0.1657
 1747TIP3    H126732   2.529   3.176  14.669  0.8869  0.0586 -1.7473
 1747TIP3    H226733   2.465   3.287  14.588 -1.5298 -0.3154 -0.4358
 1748TIP3   OH226734   5.395   0.115   0.179  0.0427  0.3973  0.1486
 1748TIP3    H126735   5.343   0.173   0.235 -0.9321  0.5383 -0.8664
 1748TIP3    H226736   5.422   0.044   0.236  1.9703  2.2053  1.6506
 1749TIP3   OH226737   3.265   0.363   3.609  0.1490 -0.1988 -0.1872
 1749TIP3    H126738   3.301   0.294   3.665 -2.0990  0.0768  1.7731
 1749TIP3    H226739   3.179   0.382   3.648 -0.1991  2.2129 -1.9507
 1750TIP3   OH226740   3.265   3.902  11.050  0.3092 -0.4076 -0.3209
 1750TIP3    H126741   3.247   3.993  11.075  1.3266  0.3133 -2.0914
 1750TIP3    H226742   3.256   3.854  11.132 -0.0550  1.3000  0.7079
 1751TIP3   OH226743   4.721   6.732  15.143  0.2424  0.6347  0.0566
 1751TIP3    H126744   4.767   6.735  15.227  1.7870 -0.7639 -0.6863
 1751TIP3    H226745   4.679   6.818  15.136  0.6532  1.0362  1.9205
 1752TIP3   OH226746   0.056   5.778   4.911  0.3643 -0.2157  0.4280
 1752TIP3    H126747  -0.020   5.820   4.952  0.5613  0.9853 -0.3886
 1752TIP3    H226748   0.123   5.780   4.979 -0.1972 -0.9096  1.0182
 1753TIP3   OH226749   1.567   3.875  17.185  0.3957 -0.5772  0.4194
 1753TIP3    H126750   1.544   3.791  17.225  0.4411 -0.6619  0.2698
 1753TIP3    H226751   1.544   3.940  17.251  1.0709 -0.7588  0.8430
 1754TIP3   OH226752   1.228   4.122   4.460 -0.1763  0.5437  0.4452
 1754TIP3    H126753   1.282   4.135   4.538 -0.0501  0.7657  0.3220
 1754TIP3    H226754   1.155   4.069   4.490 -1.0225  2.0199  1.0962
 1755TIP3   OH226755   4.879   6.095  17.040  0.3873 -0.6940 -0.2508
 1755TIP3    H126756   4.960   6.143  17.024  0.4693 -1.3567 -2.0500
 1755TIP3    H226757   4.877   6.027  16.973 -1.1230 -1.3946  0.4463
 1756TIP3   OH226758   5.614   2.041  15.078  0.0186 -0.1094 -0.0972
 1756TIP3    H126759   5.603   1.956  15.121 -0.9673  0.4705  0.8858
 1756TIP3    H226760   5.593   2.025  14.986  0.1945 -0.9983  0.0132
 1757TIP3   OH226761   0.490   3.254  12.491  0.7462  0.0886  0.2480
 1757TIP3    H126762   0.506   3.286  12.579 -1.2813  1.6697  0.1235
 1757TIP3    H226763   0.412   3.200  12.498  0.7869 -0.0859 -0.5128
 1758TIP3   OH226764   5.494   6.423   4.086  0.0817 -0.8018 -0.4367
 1758TIP3    H126765   5.470   6.465   4.003 -1.1063 -0.4425  0.0707
 1758TIP3    H226766   5.468   6.332   4.075  0.2583 -0.8334 -0.5920
 1759TIP3   OH226767   0.119   5.878   1.413  0.1742  0.2821 -0.0109
 1759TIP3    H126768   0.171   5.958   1.413  0.0814  0.3508  0.8176
 1759TIP3    H226769   0.105   5.858   1.506  0.8869 -1.1335 -0.1669
 1760TIP3   OH226770   1.687   1.857  12.511 -1.0692  0.1773 -0.0013
 1760TIP3    H126771   1.717   1.879  12.422 -1.0389  3.1055  0.6345
 1760TIP3    H226772   1.757   1.802  12.546  0.0723  0.9156 -1.0201
 1761TIP3   OH226773   2.653   1.602   1.428  0.1340 -0.4493  0.6744
 1761TIP3    H126774   2.727   1.640   1.476  0.1816  1.2066 -0.6319
 1761TIP3    H226775   2.691   1.568   1.347 -0.4310 -0.1976  0.2945
 1762TIP3   OH226776   2.796   6.260   0.801 -0.7717  0.0371  0.2361
 1762TIP3    H126777   2.846   6.193   0.754  0.6621  1.0467  0.2670
 1762TIP3    H226778   2.820   6.342   0.758 -0.8355  0.7793  1.5782
 1763TIP3   OH226779   1.179   6.777  17.191  0.7816  0.4322 -0.6103
 1763TIP3    H126780   1.097   6.728  17.182  0.9329  0.1737 -0.6136
 1763TIP3    H226781   1.152   6.865  17.216  0.5278  0.1618  0.1029
 1764TIP3   OH226782   6.703   2.459  15.615 -0.3678 -0.1438 -0.1247
 1764TIP3    H126783   6.742   2.508  15.543 -0.0842  0.6418  0.5462
 1764TIP3    H226784   6.677   2.525  15.678 -2.6915 -0.6336 -0.4580
 1765TIP3   OH226785   2.985   4.016  12.599 -0.5218 -0.1641  0.2129
 1765TIP3    H126786   2.986   3.948  12.532 -2.3135  0.6909 -0.7649
 1765TIP3    H226787   3.066   4.004  12.647  0.6793 -1.0274 -1.9007
 1766TIP3   OH226788   3.822   1.167   6.716  0.4266  0.0265  0.1076
 1766TIP3    H126789   3.875   1.110   6.773  0.6342  0.1316  0.0212
 1766TIP3    H226790   3.779   1.106   6.656  1.6169  0.0293 -0.7988
 1767TIP3   OH226791   1.166   5.114  13.546 -0.1876 -0.6061  0.3522
 1767TIP3    H126792   1.119   5.153  13.472  0.9565 -0.5356 -0.3610
 1767TIP3    H226793   1.228   5.181  13.574 -0.0752 -0.9171  0.8739
 1768TIP3   OH226794   1.022   2.343   2.770  0.1217  0.1738 -0.0915
 1768TIP3    H126795   0.935   2.383   2.774  0.3062  0.5432  0.2925
 1768TIP3    H226796   1.010   2.266   2.715 -1.0888 -1.4203  2.2613
 1769TIP3   OH226797   6.324   0.769   1.978 -0.0521  0.5395  0.3643
 1769TIP3    H126798   6.286   0.855   1.961 -0.1900  0.3495 -0.3117
 1769TIP3    H226799   6.418   0.785   1.983 -0.0403  0.6743 -0.1765
 1770TIP3   OH226800   2.399   3.705   0.723 -0.2485 -0.3602 -0.0044
 1770TIP3    H126801   2.315   3.659   0.713 -0.6333 -0.1994  2.0272
 1770TIP3    H226802   2.377   3.783   0.774  1.0340  0.0918 -0.1189
 1771TIP3   OH226803   4.738   2.297   4.116  0.0271  0.4770  0.0219
 1771TIP3    H126804   4.772   2.382   4.087  1.2228 -0.0399 -0.1281
 1771TIP3    H226805   4.643   2.307   4.111  0.1219  2.0699  0.7885
 1772TIP3   OH226806   4.175   3.212   3.826 -0.2679  0.0276  0.5899
 1772TIP3    H126807   4.165   3.152   3.752  3.6160 -0.1644  0.0020
 1772TIP3    H226808   4.180   3.155   3.902  1.2970 -0.3063  0.2738
 1773TIP3   OH226809   1.200   2.206   0.936  0.5547  0.0198  0.4024
 1773TIP3    H126810   1.111   2.177   0.956  0.5276  0.4679  0.9476
 1773TIP3    H226811   1.256   2.140   0.978  0.5081 -1.1188 -1.1970
 1774TIP3   OH226812   4.287   3.409   0.729  0.5912  0.2828  0.0745
 1774TIP3    H126813   4.310   3.384   0.818  0.6741 -1.2154 -0.3382
 1774TIP3    H226814   4.208   3.359   0.709  1.1906 -0.2816 -1.0510
 1775TIP3   OH226815   6.324   1.141  16.041 -0.4074 -0.0433  0.2149
 1775TIP3    H126816   6.347   1.091  15.963 -1.9264 -1.1879  0.4631
 1775TIP3    H226817   6.376   1.101  16.111  0.0751  0.2175  0.0105
 1776TIP3   OH226818   2.266   3.722   1.390 -0.1171 -0.2821 -0.4047
 1776TIP3    H126819   2.264   3.671   1.471  1.1803  0.9367  0.4450
 1776TIP3    H226820   2.357   3.748   1.380  0.3748 -2.6838 -3.7881
 1777TIP3   OH226821   5.151   1.487  17.020 -0.1855  0.0841  1.0012
 1777TIP3    H126822   5.086   1.483  17.090 -0.4630  0.7534  0.7930
 1777TIP3    H226823   5.205   1.409  17.032 -0.8808 -0.3505  1.3219
 1778TIP3   OH226824   4.278   5.155  14.979  0.3274 -0.1613  0.0824
 1778TIP3    H126825   4.239   5.236  14.945  1.1883 -0.4759 -1.8554
 1778TIP3    H226826   4.283   5.168  15.073 -2.8193  0.5588  0.2424
 1779TIP3   OH226827   3.592   0.789  14.524 -0.4008 -0.6940 -0.3917
 1779TIP3    H126828   3.585   0.794  14.428  2.3100  2.1965 -0.6067
 1779TIP3    H226829   3.679   0.752  14.539 -0.5691 -0.5858  0.9464
 1780TIP3   OH226830   2.327   0.915  16.349  0.2368  0.3586  0.0480
 1780TIP3    H126831   2.283   0.830  16.337  0.6804  0.2891 -1.1624
 1780TIP3    H226832   2.417   0.892  16.373  0.1781  0.4997  0.4115
 1781TIP3   OH226833   0.019   3.507   0.680  0.4899 -0.3959 -0.1611
 1781TIP3    H126834   0.068   3.566   0.622 -0.3522 -0.3064 -0.7949
 1781TIP3    H226835  -0.038   3.566   0.730  1.0209 -0.4991  0.5792
 1782TIP3   OH226836   6.152   5.968   3.400 -0.3137 -0.0711 -0.5093
 1782TIP3    H126837   6.166   5.873   3.404 -0.4852 -0.1262 -1.1511
 1782TIP3    H226838   6.060   5.979   3.424 -0.4149 -0.1114 -0.8644
 1783TIP3   OH226839   5.754   0.389   5.298 -0.1937 -0.1279 -0.0030
 1783TIP3    H126840   5.730   0.416   5.387 -0.4812  0.5732 -0.2847
 1783TIP3    H226841   5.692   0.436   5.242  0.9087  0.5702 -0.6665
 1784TIP3   OH226842   6.185   6.009   1.135 -0.3043  0.2945  0.6520
 1784TIP3    H126843   6.276   6.030   1.113  0.4785 -0.5411  2.8255
 1784TIP3    H226844   6.183   5.914   1.143 -0.4609  0.4428  3.8425
 1785TIP3   OH226845   6.740   6.215   5.506  0.9109  0.0207  0.4225
 1785TIP3    H126846   6.652   6.252   5.493  0.0715 -0.6187  3.3918
 1785TIP3    H226847   6.798   6.291   5.511  0.7814  0.4141 -2.6348
 1786TIP3   OH226848   2.653   2.584   0.786  0.2307  0.0083 -0.2189
 1786TIP3    H126849   2.567   2.549   0.761  0.4457 -1.0442  0.4551
 1786TIP3    H226850   2.710   2.507   0.788  1.5444  0.8512 -2.0232
 1787TIP3   OH226851   0.597   3.629  11.772 -0.4184 -0.1627 -0.7169
 1787TIP3    H126852   0.601   3.557  11.835 -0.6657  0.7832  0.4102
 1787TIP3    H226853   0.685   3.667  11.774 -0.9461  1.1131  0.6089
 1788TIP3   OH226854   0.945   0.877  16.407 -0.1671 -0.1973  0.1276
 1788TIP3    H126855   0.856   0.848  16.385  0.3387  0.0440 -2.6701
 1788TIP3    H226856   0.998   0.798  16.399 -0.1238 -0.3738  1.9482
 1789TIP3   OH226857   1.739   1.222   3.640  0.4410 -0.4231  0.3785
 1789TIP3    H126858   1.832   1.241   3.657  0.1305  0.3635  1.3446
 1789TIP3    H226859   1.711   1.172   3.717  0.3543 -1.7649 -0.4976
 1790TIP3   OH226860   4.968   0.854   0.976 -0.2044  0.3396 -0.8781
 1790TIP3    H126861   4.921   0.776   0.947 -1.8499 -0.4204  3.1281
 1790TIP3    H226862   5.057   0.824   0.992 -0.5162 -0.4503 -0.5661
 1791TIP3   OH226863   3.089   0.674   0.576 -0.0425 -0.0780  0.3854
 1791TIP3    H126864   3.075   0.617   0.501  0.3090 -1.8692  1.6244
 1791TIP3    H226865   3.142   0.746   0.542 -1.1000 -0.0748 -1.3793
 1792TIP3   OH226866   5.199   3.702   1.024 -0.1320  0.6343 -0.1589
 1792TIP3    H126867   5.117   3.661   0.999  0.8678 -1.8416  0.2670
 1792TIP3    H226868   5.208   3.683   1.118  0.3980  1.8846  0.0710
 1793TIP3   OH226869   5.781   6.689  16.327  0.4163 -0.3678  0.0250
 1793TIP3    H126870   5.780   6.596  16.349 -1.8364 -0.1593  1.0326
 1793TIP3    H226871   5.711   6.727  16.379  0.3249  1.6480 -1.4517
 1794TIP3   OH226872   2.786   2.541  15.484 -0.0446  0.1948 -0.0834
 1794TIP3    H126873   2.814   2.527  15.393  0.0722  0.3646 -0.0740
 1794TIP3    H226874   2.812   2.631  15.504  0.7144 -0.1188  0.3995
 1795TIP3   OH226875   6.712   4.644   0.117 -0.2866  0.3711 -0.6636
 1795TIP3    H126876   6.618   4.659   0.122 -0.3476  0.3059 -1.4534
 1795TIP3    H226877   6.751   4.731   0.128 -0.3158  0.1054  2.0069
 1796TIP3   OH226878   5.653   4.795  11.523 -0.3766  0.3422 -0.3490
 1796TIP3    H126879   5.594   4.742  11.469 -2.5981  0.5643  1.7076
 1796TIP3    H226880   5.624   4.885  11.509 -0.2631  0.4940  0.3777
 1797TIP3   OH226881   2.108   5.179   2.304 -0.3034  0.3677 -0.4945
 1797TIP3    H126882   2.100   5.273   2.323  0.9747 -0.0272  2.5089
 1797TIP3    H226883   2.045   5.137   2.362  0.3853 -0.7433 -0.5172
 1798TIP3   OH226884   0.947   4.002   0.454 -0.0783  0.1423  0.0755
 1798TIP3    H126885   0.924   4.001   0.547  0.6127  0.5475  0.2561
 1798TIP3    H226886   0.988   4.088   0.440 -0.0005  0.0064 -0.5567
 1799TIP3   OH226887   1.985   1.313  15.539  0.1428  0.3729  0.3193
 1799TIP3    H126888   2.057   1.377  15.542  0.4478  0.0142  1.8963
 1799TIP3    H226889   1.912   1.357  15.582 -0.5797  0.7109 -1.2228
 1800TIP3   OH226890   4.920   4.963   5.212  0.2818 -0.2445 -0.0172
 1800TIP3    H126891   4.922   4.958   5.307 -1.8844  0.9277  0.1459
 1800TIP3    H226892   5.005   5.001   5.188  1.8609 -2.7510  1.1972
 1801TIP3   OH226893   4.577   6.559   0.082  0.2511 -0.3491  0.3015
 1801TIP3    H126894   4.617   6.481   0.044  1.3052  1.4702 -2.6754
 1801TIP3    H226895   4.618   6.568   0.168  0.9050 -2.4530  0.2454
 1802TIP3   OH226896   6.661   2.247   5.449 -0.2024 -0.4577  0.1220
 1802TIP3    H126897   6.686   2.200   5.528  0.5397  1.2044  0.9096
 1802TIP3    H226898   6.741   2.291   5.420 -0.9973  0.8217 -0.2210
 1803TIP3   OH226899   1.444   0.793  13.431 -0.1332 -0.4099 -0.3450
 1803TIP3    H126900   1.367   0.772  13.484  2.0138 -1.2338  2.6544
 1803TIP3    H226901   1.453   0.888  13.439  2.0135 -0.7761  3.8028
 1804TIP3   OH226902   3.863   5.599  12.550 -0.1623  0.7638  0.1493
 1804TIP3    H126903   3.886   5.618  12.459  0.5939 -0.9691 -0.0497
 1804TIP3    H226904   3.808   5.521  12.546  2.5356 -1.3715  1.3006
 1805TIP3   OH226905   1.788   1.983   0.562 -0.3160  0.1206 -0.0592
 1805TIP3    H126906   1.839   2.058   0.592  0.8617  0.1120 -1.9091
 1805TIP3    H226907   1.852   1.913   0.550 -1.5757 -1.8788  3.3168
 1806TIP3   OH226908   3.083   0.793  14.161  0.2381 -0.1258 -0.6574
 1806TIP3    H126909   3.029   0.792  14.240  1.9122  0.2380  0.5406
 1806TIP3    H226910   3.157   0.737  14.182  0.4939 -0.3922 -2.1676
 1807TIP3   OH226911   4.839   6.661  16.626 -0.3176  0.1750 -0.2579
 1807TIP3    H126912   4.898   6.713  16.680 -0.1232  0.7371 -0.9898
 1807TIP3    H226913   4.753   6.698  16.642 -0.3626 -0.1104  0.1842
 1808TIP3   OH226914   4.565   4.962   0.898 -0.0603  0.4979  0.7266
 1808TIP3    H126915   4.504   4.895   0.931 -0.8126  0.6708 -0.2721
 1808TIP3    H226916   4.597   4.927   0.815 -1.0811  1.6972 -0.2135
 1809TIP3   OH226917   3.042   2.348  11.985 -0.4580  0.0391  0.0120
 1809TIP3    H126918   3.021   2.338  12.077  0.2801  0.9651  0.2909
 1809TIP3    H226919   2.962   2.385  11.946 -1.2019 -1.4514  0.0181
 1810TIP3   OH226920   1.621   1.865  14.227 -0.1400  0.3096 -0.3478
 1810TIP3    H126921   1.625   1.792  14.166  0.8204 -0.9974  1.2002
 1810TIP3    H226922   1.583   1.828  14.306  3.3190  0.5100  1.6334
 1811TIP3   OH226923   4.947   4.077   4.351  0.4753  0.3931 -0.1854
 1811TIP3    H126924   4.952   4.170   4.375 -2.1963  0.0808  2.1576
 1811TIP3    H226925   4.944   4.031   4.435  0.9383 -1.7877 -1.2847
 1812TIP3   OH226926   0.349   5.760   6.582  0.1968  0.1065 -0.3862
 1812TIP3    H126927   0.341   5.808   6.500  0.1199 -1.7745 -1.5301
 1812TIP3    H226928   0.311   5.674   6.564  2.2545 -1.1694  0.8979
 1813TIP3   OH226929   3.710   0.042  14.097 -0.3375 -0.2128  0.3529
 1813TIP3    H126930   3.780  -0.022  14.087  0.0042  0.2251 -0.0922
 1813TIP3    H226931   3.642  -0.004  14.146 -0.3315 -1.0946 -0.4409
 1814TIP3   OH226932   3.047   1.001  16.127  0.1619  0.8251 -0.2222
 1814TIP3    H126933   3.037   0.933  16.194 -2.9451  2.1840  0.8942
 1814TIP3    H226934   3.067   0.952  16.047  3.0153 -0.9279  1.3763
 1815TIP3   OH226935   3.926   4.928  15.248  0.7660  0.2679  0.3576
 1815TIP3    H126936   3.883   4.878  15.318  0.2922  0.8532  0.4852
 1815TIP3    H226937   4.018   4.902  15.254  0.4832 -0.7981  0.2489
 1816TIP3   OH226938   3.908   2.505  17.282  0.3698 -0.0513 -0.2957
 1816TIP3    H126939   3.967   2.529  17.211 -0.6902  1.8456 -0.5975
 1816TIP3    H226940   3.871   2.588  17.312 -1.4487 -1.0878  0.4988
 1817TIP3   OH226941   2.521   0.885  13.680 -0.0270 -0.2540  0.6042
 1817TIP3    H126942   2.589   0.818  13.681 -0.7091 -1.1232 -2.1172
 1817TIP3    H226943   2.557   0.956  13.628 -0.6920 -0.1442  0.2802
 1818TIP3   OH226944   4.032   5.012  14.950 -0.0230  0.1476  0.1002
 1818TIP3    H126945   4.054   4.939  15.009 -0.9002  0.3688  0.7231
 1818TIP3    H226946   4.112   5.063  14.944  0.2750 -0.2567  0.5701
 1819TIP3   OH226947   4.407   1.806   4.568  0.2001 -0.0999  0.6033
 1819TIP3    H126948   4.312   1.819   4.571  0.3751  1.6280 -0.3051
 1819TIP3    H226949   4.423   1.736   4.632 -1.9114 -2.0439 -0.8076
 1820TIP3   OH226950   5.671   3.478   1.055 -0.4096 -0.3260 -0.2966
 1820TIP3    H126951   5.647   3.489   0.963 -0.6668 -1.0099 -0.3167
 1820TIP3    H226952   5.705   3.564   1.082  1.5979 -0.6501 -1.5977
 1821TIP3   OH226953   3.265   4.394   5.762  0.3751  0.4683  0.3064
 1821TIP3    H126954   3.355   4.385   5.728 -0.0857  1.1387 -1.2109
 1821TIP3    H226955   3.213   4.415   5.684 -1.0537  0.3987  1.2163
 1822TIP3   OH226956   0.249   6.716  16.928 -0.2801  0.3526  0.3300
 1822TIP3    H126957   0.282   6.788  16.982  1.9827  0.1607 -0.6947
 1822TIP3    H226958   0.326   6.662  16.911 -1.8730 -2.3341  1.0090
 1823TIP3   OH226959   0.351   0.944   1.579  0.1818  0.0969 -0.5449
 1823TIP3    H126960   0.395   1.025   1.604  1.3766 -0.8653  0.6363
 1823TIP3    H226961   0.321   0.960   1.490  2.0619  1.1869 -1.0436
 1824TIP3   OH226962   0.738   6.591   5.406 -0.3080  0.0407 -0.5858
 1824TIP3    H126963   0.643   6.602   5.406 -0.2871  0.2218  0.0347
 1824TIP3    H226964   0.752   6.505   5.365 -0.7472 -0.0984 -0.4441
 1825TIP3   OH226965   4.577   3.210   3.186  0.3498 -0.0305  0.3090
 1825TIP3    H126966   4.495   3.189   3.142  0.6357 -0.1479 -0.1766
 1825TIP3    H226967   4.607   3.290   3.143  0.8615 -0.3993 -0.0414
 1826TIP3   OH226968   0.194   3.065  11.615  0.1048 -0.0656  0.2830
 1826TIP3    H126969   0.242   3.118  11.552 -1.9643  0.0446 -1.3152
 1826TIP3    H226970   0.226   2.976  11.600  0.6171  0.1490  0.0667
 1827TIP3   OH226971   0.639   0.615  14.460 -0.2059 -0.4910 -0.3552
 1827TIP3    H126972   0.678   0.528  14.452  0.6354 -0.3596  1.6050
 1827TIP3    H226973   0.613   0.621  14.552 -2.2229  0.5566 -0.9380
 1828TIP3   OH226974   4.895   0.081  16.115 -0.8632  0.3116  0.0766
 1828TIP3    H126975   4.952   0.027  16.170  0.7503  1.5019 -0.3176
 1828TIP3    H226976   4.917   0.171  16.140 -0.1162  0.9027 -2.4206
 1829TIP3   OH226977   3.217   4.469  16.419  0.2242  0.7408  0.0352
 1829TIP3    H126978   3.182   4.386  16.389  1.6906 -0.4787  1.4603
 1829TIP3    H226979   3.297   4.482  16.368 -0.9592  2.3129 -1.5431
 1830TIP3   OH226980   4.102   3.124  12.862  0.2925  0.1625  0.3276
 1830TIP3    H126981   4.078   3.064  12.791  0.8183 -1.1691  1.2314
 1830TIP3    H226982   4.154   3.071  12.922  3.7548  2.3179 -0.4679
 1831TIP3   OH226983   6.470   2.266  16.234 -0.5260  0.2379  0.3225
 1831TIP3    H126984   6.503   2.287  16.147 -0.1225  0.9676  0.6404
 1831TIP3    H226985   6.545   2.281  16.292 -1.2287  1.3336  0.9854
 1832TIP3   OH226986   1.974   1.890   5.606  0.0573  0.1749 -0.2984
 1832TIP3    H126987   2.022   1.816   5.645  0.8687  1.5055  1.3293
 1832TIP3    H226988   1.882   1.868   5.619  0.1286 -1.8940 -2.4899
 1833TIP3   OH226989   6.365   6.096  11.431  0.5019  0.4763  0.3308
 1833TIP3    H126990   6.358   6.177  11.381 -1.2246  0.2149  0.0862
 1833TIP3    H226991   6.319   6.115  11.513  1.4609  0.2261  0.9379
 1834TIP3   OH226992   4.095   5.953   5.008 -0.6062 -0.3977 -0.1928
 1834TIP3    H126993   4.184   5.959   5.045 -0.8320  0.9443  0.1711
 1834TIP3    H226994   4.109   5.932   4.916  0.0305 -1.6058  0.1471
 1835TIP3   OH226995   5.452   6.323   5.679  0.6151  0.2285  0.2981
 1835TIP3    H126996   5.436   6.342   5.587 -2.0470 -1.4292  0.3214
 1835TIP3    H226997   5.487   6.234   5.679 -1.2369 -0.5542  0.9122
 1836TIP3   OH226998   2.216   0.363   4.679 -0.6145  0.1321  0.2233
 1836TIP3    H126999   2.214   0.289   4.740  1.2639  1.2715  1.8323
 1836TIP3    H227000   2.132   0.407   4.692 -0.8531 -0.4933  0.9035
 1837TIP3   OH227001   6.546   1.810   0.694  0.1591  0.3596 -0.2370
 1837TIP3    H127002   6.569   1.724   0.729  0.7587 -0.4444 -2.3958
 1837TIP3    H227003   6.476   1.792   0.632  0.5500  1.3526 -1.0017
 1838TIP3   OH227004   2.295   3.318   6.051  0.0381 -0.9780 -0.1176
 1838TIP3    H127005   2.241   3.372   5.993  0.6315 -0.6515 -0.3849
 1838TIP3    H227006   2.331   3.250   5.994 -0.1667 -1.2517  0.0783
 1839TIP3   OH227007   4.541   2.357   2.663  0.2007 -0.2570  0.2172
 1839TIP3    H127008   4.618   2.322   2.620  1.5087 -1.3332  3.1686
 1839TIP3    H227009   4.569   2.442   2.699 -0.4191 -0.0008  0.1146
 1840TIP3   OH227010   5.189   2.875  16.360 -0.0192  0.5507 -0.4684
 1840TIP3    H127011   5.261   2.903  16.417 -0.2291 -1.0134  0.6312
 1840TIP3    H227012   5.229   2.815  16.298 -0.4055 -0.5852  0.3563
 1841TIP3   OH227013   2.219   0.024   1.588 -0.1071  0.5026 -0.4620
 1841TIP3    H127014   2.300   0.012   1.538  0.0079  0.4160 -0.2582
 1841TIP3    H227015   2.151  -0.012   1.532  0.4226 -3.0316  0.8455
 1842TIP3   OH227016   4.871   1.724  15.848  1.1211  0.4460 -0.0618
 1842TIP3    H127017   4.797   1.702  15.792  1.2349 -0.2021  0.0351
 1842TIP3    H227018   4.917   1.640  15.862  1.7735  0.8075  0.0148
 1843TIP3   OH227019   1.065   6.273   5.351  0.1665  0.5191 -0.3304
 1843TIP3    H127020   1.070   6.229   5.436 -0.4251  2.3082  0.6886
 1843TIP3    H227021   1.110   6.357   5.365  0.6870  0.5574 -2.0082
 1844TIP3   OH227022   3.328   4.558   0.658 -0.1720 -0.6309 -0.0978
 1844TIP3    H127023   3.308   4.466   0.636 -0.8553 -0.2702 -1.0562
 1844TIP3    H227024   3.253   4.607   0.625 -1.1754  0.0112  2.8927
 1845TIP3   OH227025   0.875   0.957  15.859 -0.1161 -0.1613  0.0564
 1845TIP3    H127026   0.896   1.043  15.824 -0.2341 -0.5316 -0.9634
 1845TIP3    H227027   0.959   0.921  15.887  0.1723 -0.3442 -1.0004
 1846TIP3   OH227028   1.895   6.651   2.780  0.3154 -0.0896  0.2858
 1846TIP3    H127029   1.894   6.582   2.846  1.2016  0.7028  1.1714
 1846TIP3    H227030   1.870   6.730   2.828  0.5314  0.4185 -0.4296
 1847TIP3   OH227031   1.494   4.360   1.302  0.4115  0.0630 -0.6426
 1847TIP3    H127032   1.546   4.321   1.373 -0.5038 -2.4861 -1.2443
 1847TIP3    H227033   1.466   4.284   1.250 -3.1329  1.3752 -0.8676
 1848TIP3   OH227034   4.292   4.226   5.523 -0.0718  0.4069 -0.5534
 1848TIP3    H127035   4.334   4.308   5.548  2.9615 -0.6650 -1.6542
 1848TIP3    H227036   4.300   4.222   5.428  1.0074 -1.6870 -0.4285
 1849TIP3   OH227037   1.634   5.297   4.345 -0.0136  0.0735 -0.6320
 1849TIP3    H127038   1.567   5.334   4.402  0.0231 -1.7642  0.6924
 1849TIP3    H227039   1.709   5.356   4.355 -0.5926  0.7484 -0.1615
 1850TIP3   OH227040   6.398   0.748   5.369 -0.8254  0.2428  0.6014
 1850TIP3    H127041   6.454   0.684   5.325 -1.4512  0.1521 -0.0641
 1850TIP3    H227042   6.457   0.821   5.390 -0.7044  0.7294 -1.2721
 1851TIP3   OH227043   2.399   3.991  16.974  0.1294  0.5676 -0.0295
 1851TIP3    H127044   2.458   4.066  16.977  1.5284 -0.3758 -2.0993
 1851TIP3    H227045   2.390   3.971  16.881  0.1303 -2.0774  0.4703
 1852TIP3   OH227046   6.361   2.720   4.025  1.0591 -0.3567 -0.2804
 1852TIP3    H127047   6.433   2.753   3.972  0.5169  1.5081  0.0639
 1852TIP3    H227048   6.371   2.763   4.110  0.1243 -0.8414  0.0927
 1853TIP3   OH227049   4.880   4.848  12.077 -0.0870  0.7929 -0.2244
 1853TIP3    H127050   4.874   4.753  12.085  0.1869  0.4894 -2.7046
 1853TIP3    H227051   4.973   4.867  12.090  0.1844  0.4493 -1.4754
 1854TIP3   OH227052   6.513   2.273   0.569  0.2189 -0.8367  0.3387
 1854TIP3    H127053   6.599   2.272   0.527 -0.3230  2.2617 -1.0928
 1854TIP3    H227054   6.530   2.308   0.657  0.3900  0.5078 -0.2024
 1855TIP3   OH227055   1.523   3.845   1.348 -0.4978 -0.2128 -0.4262
 1855TIP3    H127056   1.564   3.916   1.299 -1.5348  1.6656  1.3050
 1855TIP3    H227057   1.594   3.782   1.362  0.6510  0.8140 -1.3390
 1856TIP3   OH227058   1.954   6.232  15.425  0.1680 -0.3345 -0.5172
 1856TIP3    H127059   1.896   6.279  15.485  0.3670 -0.0810 -0.5239
 1856TIP3    H227060   1.895   6.185  15.366 -0.0300  0.3002 -0.8215
 1857TIP3   OH227061   6.289   6.731   3.874 -0.0213 -0.4437 -0.4183
 1857TIP3    H127062   6.275   6.659   3.936  0.9624 -2.0977 -2.0029
 1857TIP3    H227063   6.352   6.788   3.917 -1.1144 -0.2851  1.0448
 1858TIP3   OH227064   6.600   4.754   2.354  0.6034 -0.1691 -0.1192
 1858TIP3    H127065   6.516   4.711   2.372 -0.1913  0.7309 -1.5143
 1858TIP3    H227066   6.664   4.699   2.399 -0.7014 -0.9867  0.8308
 1859TIP3   OH227067   5.330   3.647   2.880 -0.4320 -0.4058  0.8607
 1859TIP3    H127068   5.380   3.674   2.958 -0.4911 -1.1991  1.1750
 1859TIP3    H227069   5.383   3.578   2.840 -0.4390 -0.0563  0.2299
 1860TIP3   OH227070   5.714   2.316   1.206 -0.1263  0.3457  0.4620
 1860TIP3    H127071   5.636   2.311   1.150  1.7382  0.2276 -2.3751
 1860TIP3    H227072   5.718   2.408   1.234 -1.0673  0.4361  0.3371
 1861TIP3   OH227073   3.996   0.473   1.744  0.3346  0.3909  1.0657
 1861TIP3    H127074   4.015   0.503   1.655  1.5620  0.3361  1.2994
 1861TIP3    H227075   3.951   0.548   1.785 -0.7825  0.2047  0.2441
 1862TIP3   OH227076   4.901   1.806   5.231  0.5840  0.3274 -0.2470
 1862TIP3    H127077   4.918   1.872   5.299 -1.2160 -0.0115  0.6105
 1862TIP3    H227078   4.814   1.828   5.198 -0.2475 -1.8281  0.3576
 1863TIP3   OH227079   4.866   3.535   2.024  0.1295  0.5030  0.2071
 1863TIP3    H127080   4.948   3.509   1.982  0.6439  1.6843  0.4424
 1863TIP3    H227081   4.800   3.526   1.955  0.2559 -1.3581  0.2688
 1864TIP3   OH227082   6.692   6.631   2.592  0.0828  0.3342 -0.2691
 1864TIP3    H127083   6.629   6.703   2.598 -0.0152  0.3544 -1.3472
 1864TIP3    H227084   6.770   6.663   2.637 -0.4225  0.5779  0.4632
 1865TIP3   OH227085   4.583   2.533   0.776  0.0181 -0.3947  0.0884
 1865TIP3    H127086   4.620   2.447   0.799  1.3322 -0.3145 -1.5445
 1865TIP3    H227087   4.553   2.522   0.686 -0.3878  0.7085  0.0804
 1866TIP3   OH227088   4.464   5.664  16.971  0.6260  0.0416  0.5099
 1866TIP3    H127089   4.489   5.756  16.975 -0.4857  0.3849 -0.1235
 1866TIP3    H227090   4.377   5.664  16.931  0.3673 -1.2432  1.0201
 1867TIP3   OH227091   3.594   3.384  12.223 -0.3094  0.0340  0.3302
 1867TIP3    H127092   3.621   3.472  12.196 -0.8840  0.6397  1.6737
 1867TIP3    H227093   3.553   3.346  12.144  0.3413  0.7819 -0.3854
 1868TIP3   OH227094   4.888   6.709   6.370  0.1690 -0.5683 -0.1090
 1868TIP3    H127095   4.795   6.712   6.394  0.5133 -1.3702  1.4332
 1868TIP3    H227096   4.931   6.765   6.434  0.9956 -1.8556  0.4878
 1869TIP3   OH227097   0.221   1.540  13.911 -0.5296 -0.3890  0.3759
 1869TIP3    H127098   0.206   1.512  13.820 -1.9983 -0.4587  0.6299
 1869TIP3    H227099   0.204   1.462  13.963  1.1671 -0.5966  0.6895
 1870TIP3   OH227100   4.492   5.588  17.259  0.4435  0.4232 -0.2218
 1870TIP3    H127101   4.583   5.559  17.263  1.0076  2.1636  1.6354
 1870TIP3    H227102   4.485   5.632  17.175  0.8483 -1.0848 -1.0719
 1871TIP3   OH227103   5.340   4.038   0.429 -0.4105  0.4066  0.0571
 1871TIP3    H127104   5.275   4.093   0.473 -0.7087 -0.9270  1.3546
 1871TIP3    H227105   5.307   3.949   0.440  0.1153 -0.0756 -1.9016
 1872TIP3   OH227106   4.781   2.831  11.035  0.0007 -0.0227 -0.0926
 1872TIP3    H127107   4.733   2.892  11.090 -0.4983  0.7697 -1.3510
 1872TIP3    H227108   4.766   2.745  11.074  0.2941  0.5909  1.4185
 1873TIP3   OH227109   6.754   0.505   1.212  0.1553 -0.5440 -0.0897
 1873TIP3    H127110   6.694   0.571   1.247 -0.6833 -0.3374 -1.8329
 1873TIP3    H227111   6.841   0.543   1.225 -0.2576  0.4871 -0.2292
 1874TIP3   OH227112   4.933   2.562   4.348  0.0625  0.6593  0.2346
 1874TIP3    H127113   4.857   2.541   4.293 -0.2840 -2.2945  1.6688
 1874TIP3    H227114   4.929   2.657   4.358 -2.4526  0.7922 -1.1032
 1875TIP3   OH227115   5.744   2.883  10.049  0.2595  0.1215  0.1893
 1875TIP3    H127116   5.664   2.838  10.021  1.3406 -0.6884 -1.8382
 1875TIP3    H227117   5.728   2.906  10.141 -1.9967 -0.6448  0.0541
 1876TIP3   OH227118   6.739   6.444   3.461  0.5135 -0.0336 -0.4061
 1876TIP3    H127119   6.701   6.523   3.500  0.4243 -0.6446  0.8174
 1876TIP3    H227120   6.817   6.476   3.415  1.1823  0.6517  1.0976
 1877TIP3   OH227121   4.027   5.797   2.804 -0.3187 -0.0133  0.6875
 1877TIP3    H127122   4.058   5.860   2.739 -2.0545  0.6507  0.4401
 1877TIP3    H227123   3.947   5.837   2.840 -1.3690 -1.9549  0.6674
 1878TIP3   OH227124   2.358   5.939  15.337  0.2646 -0.1197  0.0519
 1878TIP3    H127125   2.382   6.000  15.268 -1.6517 -0.7506 -1.2429
 1878TIP3    H227126   2.286   5.981  15.383  0.8135 -0.1829  0.9949
 1879TIP3   OH227127   0.849   3.490   0.600  0.1452 -0.1042  0.2730
 1879TIP3    H127128   0.907   3.501   0.676  0.7937  0.3725 -0.2826
 1879TIP3    H227129   0.903   3.446   0.535 -0.8233 -1.7645  0.5465
 1880TIP3   OH227130   5.394   2.864   5.769 -0.3211  0.4446 -0.2464
 1880TIP3    H127131   5.333   2.918   5.719 -2.9516  0.0923  2.3359
 1880TIP3    H227132   5.343   2.786   5.792  1.8392 -0.9057  0.2508
 1881TIP3   OH227133   5.033   1.740  11.074 -0.3448 -0.3129 -0.4647
 1881TIP3    H127134   4.996   1.717  10.989 -2.2290  0.8975 -0.0259
 1881TIP3    H227135   4.957   1.759  11.129  0.8480  3.9224  0.0606
 1882TIP3   OH227136   2.979   1.251   2.810  0.0538  0.1188  0.3658
 1882TIP3    H127137   2.911   1.318   2.812 -0.2314 -0.1813  1.2503
 1882TIP3    H227138   2.987   1.222   2.901 -0.0187 -1.2356 -0.0388
 1883TIP3   OH227139   2.409   4.551   4.813 -0.2513 -0.1253  0.3917
 1883TIP3    H127140   2.388   4.477   4.756  1.0391  0.8328 -1.4308
 1883TIP3    H227141   2.409   4.514   4.902 -0.4779 -2.0945 -0.3883
 1884TIP3   OH227142   0.375   2.500   3.817  0.2640  0.3061 -0.4214
 1884TIP3    H127143   0.408   2.499   3.907 -1.9598  0.9211  0.4735
 1884TIP3    H227144   0.332   2.415   3.807  0.8727  0.0698 -1.0622
 1885TIP3   OH227145   4.751   0.990   1.019  0.6008 -0.3191 -0.4072
 1885TIP3    H127146   4.816   0.929   0.984 -0.7139 -1.7043 -0.5195
 1885TIP3    H227147   4.667   0.946   1.007 -0.3341  1.2046  0.2019
 1886TIP3   OH227148   3.076   2.301  15.137 -0.5968 -0.8248  0.0528
 1886TIP3    H127149   3.145   2.361  15.164 -0.5441 -0.6345 -0.5018
 1886TIP3    H227150   3.118   2.243  15.073 -0.6180 -1.5240  0.6481
 1887TIP3   OH227151   5.437   3.905  13.871 -0.6197 -0.0915  0.3079
 1887TIP3    H127152   5.469   3.849  13.941 -1.9578 -2.2703 -0.7305
 1887TIP3    H227153   5.376   3.965  13.914  1.0220  0.8274  1.4683
 1888TIP3   OH227154   5.525   3.060   3.119 -0.1841 -0.2210  0.2643
 1888TIP3    H127155   5.479   3.070   3.035 -1.8197 -0.4924  1.0938
 1888TIP3    H227156   5.486   2.983   3.159 -1.4202  1.4389  2.4704
 1889TIP3   OH227157   0.728   1.562   2.752 -0.2944 -0.1767 -0.3242
 1889TIP3    H127158   0.703   1.572   2.844  1.9046  1.4921  0.1802
 1889TIP3    H227159   0.753   1.470   2.743 -1.6040 -0.6287  0.4213
 1890TIP3   OH227160   5.445   4.465  13.481 -0.1068  0.0581 -0.0448
 1890TIP3    H127161   5.466   4.408  13.407 -0.9737 -0.8082  0.3526
 1890TIP3    H227162   5.433   4.406  13.555 -0.9672  0.7483  0.3916
 1891TIP3   OH227163   1.586   3.301  11.223  0.3016 -0.2542 -0.2084
 1891TIP3    H127164   1.567   3.301  11.129 -1.6365  1.1300  0.1307
 1891TIP3    H227165   1.631   3.384  11.239 -2.6019  1.3154  0.5671
 1892TIP3   OH227166   2.287   6.089   1.775  0.1412 -0.1801 -0.8113
 1892TIP3    H127167   2.317   6.152   1.711  2.1547  0.4849  0.6806
 1892TIP3    H227168   2.335   6.009   1.755 -1.4916 -0.9220 -1.9434
 1893TIP3   OH227169   4.832   0.372  15.197 -0.0537 -0.1152 -0.0660
 1893TIP3    H127170   4.827   0.439  15.266 -0.2233 -0.4196  0.2182
 1893TIP3    H227171   4.863   0.420  15.120  1.3649 -0.0169  0.5405
 1894TIP3   OH227172   0.258   6.626   1.427 -0.2693  0.1484  0.5167
 1894TIP3    H127173   0.231   6.555   1.484  0.7648 -0.0181  0.8141
 1894TIP3    H227174   0.243   6.593   1.338 -1.4308  0.2296  0.6651
 1895TIP3   OH227175   4.452   2.985   3.674 -0.1642 -0.1630  0.4272
 1895TIP3    H127176   4.523   3.021   3.621 -0.0980 -0.6991  0.1417
 1895TIP3    H227177   4.496   2.950   3.752 -0.2420  0.4674  0.7627
 1896TIP3   OH227178   0.772   0.781  11.677  0.3672  0.3887  0.0108
 1896TIP3    H127179   0.747   0.716  11.743 -2.2443  2.0422  0.8315
 1896TIP3    H227180   0.792   0.730  11.599  1.2297 -1.5170  1.4061
 1897TIP3   OH227181   4.891   0.851   2.862 -0.2020 -0.2972 -0.0833
 1897TIP3    H127182   4.959   0.896   2.912 -0.8038  0.8189 -0.2304
 1897TIP3    H227183   4.809   0.889   2.894 -0.5927  0.8267 -2.2505
 1898TIP3   OH227184   5.121   1.129  15.189 -0.1503  0.3164  0.1158
 1898TIP3    H127185   5.054   1.093  15.247 -1.3179  0.6773 -0.9427
 1898TIP3    H227186   5.131   1.063  15.120  0.0711  0.5719 -0.0991
 1899TIP3   OH227187   2.068   4.186  12.018 -0.1323 -0.8667  0.2225
 1899TIP3    H127188   2.114   4.237  11.951 -2.0962 -1.3852 -1.6218
 1899TIP3    H227189   2.060   4.099  11.981 -3.8069 -0.4541 -0.2354
 1900TIP3   OH227190   4.946   2.606  11.979  0.1699  0.3548  0.4943
 1900TIP3    H127191   4.980   2.640  12.062  1.3036  1.2355 -0.3081
 1900TIP3    H227192   4.911   2.682  11.934  1.6117  0.2874 -0.7966
 1901TIP3   OH227193   2.927   5.469  14.249  0.2724 -0.1337  0.7746
 1901TIP3    H127194   2.978   5.474  14.168 -0.0412  0.5413  0.6127
 1901TIP3    H227195   2.896   5.378  14.252 -2.0605  0.4867 -1.3349
 1902TIP3   OH227196   4.814   0.635   0.881  0.1173 -0.7629 -0.3561
 1902TIP3    H127197   4.843   0.599   0.964 -0.4727 -0.8656 -0.1951
 1902TIP3    H227198   4.746   0.575   0.850  0.8723 -1.1764 -1.3043
 1903TIP3   OH227199   3.465   0.501  11.193 -0.3282  0.2760  0.2144
 1903TIP3    H127200   3.479   0.406  11.199 -1.7398  0.0156 -0.2662
 1903TIP3    H227201   3.520   0.528  11.120  0.0398 -0.1831  0.3147
 1904TIP3   OH227202   2.290   3.537   3.156 -0.1116  0.4877  0.0065
 1904TIP3    H127203   2.226   3.544   3.085  2.2586 -0.8923 -2.4433
 1904TIP3    H227204   2.265   3.457   3.204 -1.4167  1.1413  0.4558
 1905TIP3   OH227205   2.088   4.714   2.075  0.3621 -0.4762  0.4510
 1905TIP3    H127206   2.163   4.677   2.120  0.9562 -0.3058 -0.3812
 1905TIP3    H227207   2.122   4.793   2.032 -0.2485 -0.4774 -0.0547
 1906TIP3   OH227208   6.474   3.141   5.014 -0.0034 -0.8032  0.2836
 1906TIP3    H127209   6.482   3.064   5.070 -2.8653 -1.3302  0.1434
 1906TIP3    H227210   6.389   3.130   4.971 -1.6721  3.4692  1.9387
 1907TIP3   OH227211   6.040   5.687   5.904 -0.5695 -0.1357 -0.9099
 1907TIP3    H127212   6.086   5.756   5.857 -1.6000  2.0944  1.1227
 1907TIP3    H227213   5.947   5.708   5.893 -0.8758 -0.5892  0.5764
 1908TIP3   OH227214   1.011   3.969  14.028 -0.3837 -0.3168  0.2819
 1908TIP3    H127215   0.961   4.013  13.959 -1.5398 -1.2210  0.5150
 1908TIP3    H227216   1.103   3.990  14.008 -0.7929  0.8166 -0.5454
 1909TIP3   OH227217   3.222   0.605  10.895 -0.6339  0.3102 -0.2129
 1909TIP3    H127218   3.256   0.602  10.806  1.0913 -0.5168  0.4493
 1909TIP3    H227219   3.238   0.518  10.930 -0.2890  0.9480  1.2708
 1910TIP3   OH227220   4.400   2.026   5.707  0.6237 -0.1206 -0.2738
 1910TIP3    H127221   4.417   2.075   5.788  1.0808  1.0642 -1.0765
 1910TIP3    H227222   4.459   1.950   5.714 -0.3725 -0.8099  1.1540
 1911TIP3   OH227223   4.171   1.557   3.829 -0.0767  0.3004  0.0813
 1911TIP3    H127224   4.183   1.462   3.823  1.2465  0.5284 -2.3326
 1911TIP3    H227225   4.241   1.587   3.886 -0.3944 -0.1414  0.7164
 1912TIP3   OH227226   4.560   1.564  17.061 -0.3252  0.1552 -0.1475
 1912TIP3    H127227   4.532   1.552  16.970  0.2219  0.5776 -0.3783
 1912TIP3    H227228   4.610   1.485  17.081  1.5539  1.0608 -1.0016
 1913TIP3   OH227229   0.484   6.233  13.606 -0.3652  0.4954  0.1273
 1913TIP3    H127230   0.541   6.162  13.578 -1.1152 -0.6280  1.3390
 1913TIP3    H227231   0.536   6.312  13.595  0.7292 -0.3118 -0.5982
 1914TIP3   OH227232   1.660   6.209  12.930 -0.1114  0.2633 -0.1063
 1914TIP3    H127233   1.721   6.153  12.978  1.9995  1.6989 -0.9906
 1914TIP3    H227234   1.652   6.168  12.844  1.1454  1.0971 -0.6313
 1915TIP3   OH227235   1.470   4.713   6.934 -0.0750  0.2404  0.4916
 1915TIP3    H127236   1.379   4.736   6.916 -0.0878  0.3151  0.6546
 1915TIP3    H227237   1.467   4.621   6.963 -0.2980  0.7537  2.1755
 1916TIP3   OH227238   0.882   5.316  14.667  0.4164  0.0501 -0.4337
 1916TIP3    H127239   0.919   5.383  14.725  0.6053  0.9136 -1.5190
 1916TIP3    H227240   0.946   5.244  14.669 -0.1193 -0.4296  1.2807
 1917TIP3   OH227241   2.407   0.572   4.664  0.2525  0.0352 -0.4078
 1917TIP3    H127242   2.344   0.641   4.684  0.3098  0.6634 -2.2639
 1917TIP3    H227243   2.357   0.491   4.670 -0.1950  0.3461  0.2325
 1918TIP3   OH227244   1.233   3.613  15.763  0.7317 -0.8547  0.0873
 1918TIP3    H127245   1.147   3.654  15.779  0.4773 -1.0551 -0.7281
 1918TIP3    H227246   1.258   3.644  15.676  2.8997  1.6071  1.4612
 1919TIP3   OH227247   2.478   0.058  16.456 -1.0386  0.1012  0.2454
 1919TIP3    H127248   2.524   0.141  16.461 -1.2581  0.1865  0.9816
 1919TIP3    H227249   2.540  -0.001  16.413 -0.9109  0.6580 -0.3419
 1920TIP3   OH227250   3.797   4.035  12.942  0.1138  0.0289  0.3017
 1920TIP3    H127251   3.763   4.122  12.960  1.3232  0.9278 -1.4836
 1920TIP3    H227252   3.719   3.979  12.936 -0.6232  0.7916  2.2595
 1921TIP3   OH227253   5.837   4.940  15.070  0.3292  0.1134  0.1243
 1921TIP3    H127254   5.801   4.852  15.074 -0.4992  0.4891  1.3211
 1921TIP3    H227255   5.843   4.969  15.161 -0.4659  1.6980 -0.2815
 1922TIP3   OH227256   6.153   2.356  13.636  0.1336 -1.0050  1.3447
 1922TIP3    H127257   6.188   2.269  13.658 -0.8917 -1.0215  3.0732
 1922TIP3    H227258   6.094   2.377  13.708  0.2132  1.0626  0.8705
 1923TIP3   OH227259   2.049   2.863   0.378  0.2898  0.1305 -0.0931
 1923TIP3    H127260   1.968   2.821   0.349  1.2057 -0.5009 -1.8595
 1923TIP3    H227261   2.051   2.946   0.331  1.3234 -0.4811 -1.1816
 1924TIP3   OH227262   0.999   0.173   5.417  0.6212 -0.0775 -0.1257
 1924TIP3    H127263   0.992   0.169   5.512  1.0967  0.3682 -0.0655
 1924TIP3    H227264   0.999   0.081   5.389 -1.8987 -0.2111  0.0976
 1925TIP3   OH227265   6.512   5.400  13.594  0.1652 -0.0442 -0.6519
 1925TIP3    H127266   6.499   5.353  13.512 -0.0771 -0.0932 -0.5858
 1925TIP3    H227267   6.606   5.394  13.611  0.2135 -0.0335 -0.9262
 1926TIP3   OH227268   0.875   1.786   0.965  0.2618  0.7146  0.5940
 1926TIP3    H127269   0.869   1.756   0.875  1.1266  2.2664 -0.0366
 1926TIP3    H227270   0.797   1.752   1.008 -0.0769 -0.1922 -0.6985
 1927TIP3   OH227271   4.304   2.702  17.180  0.0215 -0.2153 -0.6844
 1927TIP3    H127272   4.288   2.733  17.269 -0.4918  1.1393 -1.2341
 1927TIP3    H227273   4.357   2.623  17.192  2.2515  1.3655  0.7285
 1928TIP3   OH227274   1.624   4.257  12.492 -0.4651  0.2843  0.0723
 1928TIP3    H127275   1.577   4.314  12.553  0.6590  1.5614 -0.1991
 1928TIP3    H227276   1.714   4.291  12.492  0.8323 -2.7069  1.4504
 1929TIP3   OH227277   6.517   0.446  12.931  0.3603  0.3694  0.2073
 1929TIP3    H127278   6.539   0.526  12.885 -0.1732 -0.1276 -0.9640
 1929TIP3    H227279   6.435   0.416  12.891 -1.1436  0.8295  2.6756
 1930TIP3   OH227280   0.385   1.891  12.004 -0.3050  0.5177 -0.1472
 1930TIP3    H127281   0.441   1.824  11.965 -0.8047  0.3172 -0.5207
 1930TIP3    H227282   0.446   1.960  12.030  0.7547 -1.4965  3.4519
 1931TIP3   OH227283   6.573   0.415  15.791 -0.1305 -0.2048 -0.2081
 1931TIP3    H127284   6.537   0.503  15.794  0.3103 -0.0133 -0.4589
 1931TIP3    H227285   6.667   0.426  15.806  0.1721 -0.4714 -1.6607
 1932TIP3   OH227286   3.737   2.588  14.324 -0.6868 -0.5137 -0.2084
 1932TIP3    H127287   3.654   2.604  14.369  0.2741 -1.2688  1.9742
 1932TIP3    H227288   3.750   2.494  14.331  0.6495 -0.3251  0.0765
 1933TIP3   OH227289   3.973   5.641   1.815  0.7202  0.4638  0.0116
 1933TIP3    H127290   4.002   5.683   1.896 -0.0099  0.3146  0.3555
 1933TIP3    H227291   4.051   5.597   1.781  1.0907  0.7468  0.4951
 1934TIP3   OH227292   5.466   2.935  11.883 -0.4629 -0.1102 -0.8811
 1934TIP3    H127293   5.502   2.957  11.797  2.9725 -0.4384  0.3289
 1934TIP3    H227294   5.455   3.020  11.926  0.9841 -0.0999 -0.5126
 1935TIP3   OH227295   5.983   3.384  11.861  0.1424  0.4525 -0.3810
 1935TIP3    H127296   6.018   3.328  11.792  1.1826 -1.3594  1.5046
 1935TIP3    H227297   6.018   3.347  11.942  0.5821  3.6492  1.0297
 1936TIP3   OH227298   6.376   5.951  15.464  0.2831  0.4926  0.3859
 1936TIP3    H127299   6.364   6.039  15.428  1.4793 -0.0133 -1.3661
 1936TIP3    H227300   6.452   5.958  15.521  1.3643  0.2834 -0.9967
 1937TIP3   OH227301   4.892   5.220  14.439 -0.0415  0.5575  0.1822
 1937TIP3    H127302   4.858   5.172  14.514  1.7882 -1.0663  0.0649
 1937TIP3    H227303   4.815   5.235  14.383 -1.0540 -0.1765  1.3307
 1938TIP3   OH227304   5.469   4.895   1.639  0.0597  0.4235  0.4421
 1938TIP3    H127305   5.379   4.920   1.620 -0.1814 -0.4054  0.4522
 1938TIP3    H227306   5.523   4.963   1.598 -0.4809 -0.3468 -1.6848
 1939TIP3   OH227307   3.830   6.480  15.653 -0.5284  0.2422  0.1859
 1939TIP3    H127308   3.753   6.534  15.664 -0.6422 -0.0141  0.6915
 1939TIP3    H227309   3.869   6.508  15.570 -2.1623 -0.8632 -1.0154
 1940TIP3   OH227310   6.318   0.433  11.961  0.6698  0.1726 -0.0598
 1940TIP3    H127311   6.392   0.404  12.014 -0.4414 -1.0176  0.9304
 1940TIP3    H227312   6.343   0.520  11.929  1.9626  0.3395  1.2945
 1941TIP3   OH227313   1.847   3.597   3.136 -0.0109  0.2250  0.2950
 1941TIP3    H127314   1.888   3.510   3.129  1.6690  0.8338  1.8485
 1941TIP3    H227315   1.904   3.646   3.195 -1.6896  1.9627  0.5801
 1942TIP3   OH227316   2.945   3.227   0.982  0.1714 -0.8181 -0.2668
 1942TIP3    H127317   2.957   3.288   0.910 -0.6660 -2.0886 -1.5335
 1942TIP3    H227318   3.033   3.213   1.018  0.4673  0.5267 -0.4314
 1943TIP3   OH227319   0.428   2.237   3.423 -0.1289 -0.0484  0.4800
 1943TIP3    H127320   0.409   2.266   3.334 -1.2537  0.8009  0.9611
 1943TIP3    H227321   0.468   2.314   3.465  1.8812 -0.9352  0.2988
 1944TIP3   OH227322   2.104   2.794  16.951  0.0611  0.5095 -0.4209
 1944TIP3    H127323   2.148   2.850  16.888  0.1844  0.9092  0.0137
 1944TIP3    H227324   2.012   2.795  16.924  0.3009 -0.2844 -1.2973
 1945TIP3   OH227325   2.383   3.005  14.417  0.0177  1.1444 -0.0238
 1945TIP3    H127326   2.334   2.973  14.493 -0.3279  1.4026 -0.1340
 1945TIP3    H227327   2.394   3.099  14.435 -1.8851  1.6667 -1.2530
 1946TIP3   OH227328   0.681   6.753   0.489 -0.7620  0.7851  0.1432
 1946TIP3    H127329   0.743   6.803   0.435  0.2054 -0.3861  0.1313
 1946TIP3    H227330   0.618   6.716   0.427  0.0580 -0.1484 -0.1595
 1947TIP3   OH227331   5.658   2.110  13.818  0.2961 -0.2206  0.4190
 1947TIP3    H127332   5.703   2.167  13.880 -0.8091  1.5177 -0.2999
 1947TIP3    H227333   5.652   2.162  13.737 -1.0309 -1.2232 -0.1778
 1948TIP3   OH227334   5.767   2.932   4.069 -0.3687 -0.0164 -0.0557
 1948TIP3    H127335   5.716   2.888   4.137 -0.6388  1.9436  1.0559
 1948TIP3    H227336   5.853   2.947   4.108 -0.1018 -0.0290 -0.6207
 1949TIP3   OH227337   6.750   1.354  16.783 -0.0139  0.2666 -0.1918
 1949TIP3    H127338   6.707   1.368  16.867  0.3192  0.0055  0.0278
 1949TIP3    H227339   6.768   1.441  16.749 -1.0781  0.3892 -0.4805
 1950TIP3   OH227340   4.709   5.229  11.683  0.2081  0.8746  0.2619
 1950TIP3    H127341   4.740   5.305  11.733  1.6770  0.1506  0.5022
 1950TIP3    H227342   4.771   5.160  11.704 -0.2529  0.0112 -1.1013
 1951TIP3   OH227343   5.778   4.924   2.602 -0.5711  0.0776 -0.2114
 1951TIP3    H127344   5.782   4.830   2.584  1.0609 -0.3283  1.9236
 1951TIP3    H227345   5.746   4.930   2.692  2.3842  1.3480  0.8650
 1952TIP3   OH227346   3.226   4.944  16.652 -0.2197  0.8521  0.2108
 1952TIP3    H127347   3.294   4.932  16.719  1.6216  2.3213 -1.2767
 1952TIP3    H227348   3.238   5.033  16.620 -0.6674  0.0780 -2.4054
 1953TIP3   OH227349   0.999   3.055  10.750 -0.2545 -0.0597 -0.3556
 1953TIP3    H127350   1.075   3.041  10.694 -0.7330 -0.3938 -0.9279
 1953TIP3    H227351   0.953   3.129  10.711 -0.8093 -0.5526 -0.6579
 1954TIP3   OH227352   2.378   4.658   5.453 -0.2216  0.4572 -0.2297
 1954TIP3    H127353   2.435   4.582   5.446  0.0314  0.0624  3.8767
 1954TIP3    H227354   2.304   4.638   5.395  1.5517 -1.1376 -2.0938
 1955TIP3   OH227355   4.190   0.556  11.921 -0.1532 -0.2584  0.9163
 1955TIP3    H127356   4.227   0.610  11.851 -1.6666 -0.8495 -0.3911
 1955TIP3    H227357   4.154   0.619  11.984 -0.2103  0.2701  0.3578
 1956TIP3   OH227358   0.609   3.305   6.062 -0.0923  0.5394 -0.1922
 1956TIP3    H127359   0.647   3.299   6.149 -0.8624 -2.3276  0.0649
 1956TIP3    H227360   0.684   3.305   6.003  0.4028  1.0435  0.4325
 1957TIP3   OH227361   1.956   1.632  16.747  0.3232 -0.3934 -0.5945
 1957TIP3    H127362   1.934   1.541  16.724 -0.0369 -0.3472 -0.4330
 1957TIP3    H227363   2.028   1.654  16.688  0.8173 -0.9857 -0.2198
 1958TIP3   OH227364   4.131   1.521  15.970 -0.1830 -0.1363  0.2665
 1958TIP3    H127365   4.181   1.440  15.959  1.6184  0.8331  0.8303
 1958TIP3    H227366   4.170   1.582  15.907 -0.8073  0.6053  0.5805
 1959TIP3   OH227367   3.482   2.456  11.500  0.5425 -0.2206  0.1795
 1959TIP3    H127368   3.546   2.385  11.500 -0.1426 -0.8653  0.1035
 1959TIP3    H227369   3.403   2.416  11.461 -0.4957 -0.0414  1.9826
 1960TIP3   OH227370   3.289   4.712   3.054  0.0220  0.0728 -0.2884
 1960TIP3    H127371   3.318   4.785   3.108 -1.8937  1.3200 -0.8655
 1960TIP3    H227372   3.195   4.725   3.044 -0.4063 -2.5189 -0.3774
 1961TIP3   OH227373   3.676   5.389   3.275  0.0414  0.1445  0.0665
 1961TIP3    H127374   3.588   5.351   3.274 -0.3648  1.0338  0.6676
 1961TIP3    H227375   3.735   5.315   3.289 -0.5611 -0.5337 -0.8839
 1962TIP3   OH227376   4.531   1.364  12.627  0.0556  0.4165 -0.7882
 1962TIP3    H127377   4.559   1.399  12.543  0.5444 -0.1323 -0.8674
 1962TIP3    H227378   4.550   1.434  12.690 -1.3561  1.2561 -1.2711
 1963TIP3   OH227379   3.805   5.018  11.067  0.3215  0.2285 -0.0146
 1963TIP3    H127380   3.806   5.030  10.972  0.6448  2.2800  0.2196
 1963TIP3    H227381   3.714   5.002  11.089 -0.1870  2.4167 -0.3978
 1964TIP3   OH227382   4.053   1.158  15.000  0.0951 -0.4071  0.0821
 1964TIP3    H127383   4.048   1.252  14.986 -1.1483 -0.3881  0.5660
 1964TIP3    H227384   4.140   1.134  14.967  1.2657  1.2125  1.7283
 1965TIP3   OH227385   3.990   3.143   0.450 -0.2828 -0.3684  0.0190
 1965TIP3    H127386   3.968   3.145   0.357  0.6905 -0.8541 -0.2313
 1965TIP3    H227387   4.075   3.099   0.454 -0.0838  0.0781  1.0936
 1966TIP3   OH227388   1.053   6.413   4.362  0.3556  0.0024  0.0082
 1966TIP3    H127389   0.978   6.380   4.412 -0.6652  1.8204 -0.1977
 1966TIP3    H227390   1.126   6.412   4.423 -0.6480  1.2918  1.2813
 1967TIP3   OH227391   4.522   0.149   0.211  0.5708 -0.5988  0.0247
 1967TIP3    H127392   4.571   0.090   0.154 -0.4031  0.4693 -2.0393
 1967TIP3    H227393   4.430   0.129   0.193  0.2395  0.4550  0.4601
 1968TIP3   OH227394   6.654   6.371   1.061 -0.0086  0.0169 -0.4251
 1968TIP3    H127395   6.721   6.332   1.005 -0.6200 -1.0410 -0.4395
 1968TIP3    H227396   6.681   6.348   1.150  0.0855  0.2996 -0.3794
 1969TIP3   OH227397   6.255   0.701   4.346 -0.1984  0.0890 -0.1720
 1969TIP3    H127398   6.185   0.723   4.407  0.0069  2.1981 -0.6168
 1969TIP3    H227399   6.258   0.606   4.347 -0.5012  0.0134  2.7343
 1970TIP3   OH227400   4.863   1.304  13.195 -0.1569 -0.2938 -0.0748
 1970TIP3    H127401   4.782   1.265  13.161 -0.9000 -0.1014  1.3687
 1970TIP3    H227402   4.855   1.397  13.175  0.6844 -0.5431 -1.7348
 1971TIP3   OH227403   0.341   2.216  14.557 -0.4731 -0.0969  0.4016
 1971TIP3    H127404   0.307   2.168  14.481 -1.7639  0.1518  0.7949
 1971TIP3    H227405   0.334   2.308  14.534 -0.5277 -0.0290  0.6783
 1972TIP3   OH227406   6.597   6.785   1.081  0.2055 -0.2616 -0.2974
 1972TIP3    H127407   6.510   6.756   1.054 -0.6887  0.4943  1.5568
 1972TIP3    H227408   6.597   6.879   1.064  0.1377 -0.0244  0.9384
 1973TIP3   OH227409   2.176   4.615   0.717 -0.1802 -0.3861  0.1250
 1973TIP3    H127410   2.093   4.634   0.761  0.4962 -0.3922  1.4489
 1973TIP3    H227411   2.177   4.519   0.709 -0.2971 -0.3865  0.1022
 1974TIP3   OH227412   6.192   5.885   6.109 -0.3827  0.1517 -0.0938
 1974TIP3    H127413   6.152   5.818   6.163  0.0289 -1.9245 -2.1806
 1974TIP3    H227414   6.277   5.902   6.150 -0.7452 -0.1647  0.8015
 1975TIP3   OH227415   2.671   2.418  13.813  0.6596  0.2778 -0.1278
 1975TIP3    H127416   2.683   2.465  13.895  1.0309  1.8403 -1.0274
 1975TIP3    H227417   2.580   2.388  13.815  0.8462 -0.2494  1.1006
 1976TIP3   OH227418   2.834   4.614  12.161  0.0707 -0.0022  0.6820
 1976TIP3    H127419   2.820   4.618  12.067 -0.2475 -1.9938  0.5888
 1976TIP3    H227420   2.750   4.637  12.200 -0.0139  0.0696  0.4529
 1977TIP3   OH227421   3.249   1.104   3.843 -0.6763 -0.0195 -0.1639
 1977TIP3    H127422   3.296   1.159   3.780  0.6348 -0.3438  0.4900
 1977TIP3    H227423   3.247   1.156   3.924 -3.3366  0.8768 -0.6903
 1978TIP3   OH227424   2.302   5.293  14.116 -0.4905 -0.1957  0.1412
 1978TIP3    H127425   2.376   5.238  14.092 -0.3578  0.3043 -0.6342
 1978TIP3    H227426   2.285   5.272  14.208  1.0611  0.1861  0.5395
 1979TIP3   OH227427   1.506   6.243  15.163 -0.4479  0.2876  0.2393
 1979TIP3    H127428   1.437   6.209  15.221  0.5797 -2.8553 -0.1873
 1979TIP3    H227429   1.469   6.233  15.075 -0.5680  1.4807  0.1457
 1980TIP3   OH227430   1.250   1.998  14.854  0.1168 -0.1395 -0.6214
 1980TIP3    H127431   1.176   2.011  14.914  0.0417  0.6216 -0.8683
 1980TIP3    H227432   1.301   2.078  14.862 -0.5900  0.5481 -2.5424
 1981TIP3   OH227433   3.511   3.805  16.784 -0.1801  0.0587 -0.0614
 1981TIP3    H127434   3.479   3.892  16.761 -0.2796  0.1121  0.2710
 1981TIP3    H227435   3.575   3.820  16.853  0.1302 -0.0975 -0.3127
 1982TIP3   OH227436   1.694   1.134  10.343  0.4329  0.2758 -0.2988
 1982TIP3    H127437   1.711   1.051  10.387 -0.8225  0.0094 -0.2861
 1982TIP3    H227438   1.734   1.200  10.399 -1.2273 -0.0454  1.3664
 1983TIP3   OH227439   4.237   3.416  14.230  0.3913  0.1202  0.2437
 1983TIP3    H127440   4.173   3.365  14.181 -0.5819 -0.8551  2.4313
 1983TIP3    H227441   4.306   3.436  14.166 -0.4392 -1.7520 -1.3080
 1984TIP3   OH227442   1.469   1.731   4.661 -0.1293 -0.0828 -0.0264
 1984TIP3    H127443   1.543   1.685   4.621  0.0450  1.0754 -1.1047
 1984TIP3    H227444   1.414   1.661   4.697 -1.4342 -1.5127 -4.1955
 1985TIP3   OH227445   0.663   3.750  15.618 -0.1682  0.2228  0.0387
 1985TIP3    H127446   0.619   3.725  15.536 -0.3163  1.6822 -0.3601
 1985TIP3    H227447   0.702   3.836  15.599  2.6076 -0.8540  0.4939
 1986TIP3   OH227448   1.911   3.422   1.683 -0.0516  0.3103  0.0446
 1986TIP3    H127449   1.855   3.355   1.723  0.2064  0.6761  1.0519
 1986TIP3    H227450   1.980   3.372   1.640  0.3411 -0.0835  1.0988
 1987TIP3   OH227451   3.357   1.357   3.085  0.1665 -0.2303 -0.1654
 1987TIP3    H127452   3.424   1.416   3.120  0.9429 -2.4384  2.4413
 1987TIP3    H227453   3.287   1.359   3.150 -0.7818 -0.5284 -1.1498
 1988TIP3   OH227454   0.044   4.213  17.179 -0.1355 -0.4576  0.2981
 1988TIP3    H127455   0.002   4.299  17.181  2.8574  1.1703  0.8209
 1988TIP3    H227456   0.015   4.170  17.259 -0.2049  0.9256  1.0519
 1989TIP3   OH227457   2.240   2.174   3.367  0.2225 -0.2266  0.0202
 1989TIP3    H127458   2.278   2.187   3.454 -0.1871  1.6656 -0.0385
 1989TIP3    H227459   2.316   2.166   3.308  0.5063 -0.2762  0.3906
 1990TIP3   OH227460   4.666   2.648   0.431  0.3306 -0.4255  0.0537
 1990TIP3    H127461   4.734   2.591   0.468 -0.0892 -0.1312  1.3105
 1990TIP3    H227462   4.677   2.731   0.477 -1.2809 -0.5704  0.7531
 1991TIP3   OH227463   3.332   6.462  16.187 -0.0133 -0.3388 -0.0127
 1991TIP3    H127464   3.307   6.459  16.279 -1.4719  1.4507 -0.2700
 1991TIP3    H227465   3.311   6.375  16.153 -0.1807 -0.7777  1.1645
 1992TIP3   OH227466   6.208   2.437   3.350 -0.4546 -0.0910  0.0918
 1992TIP3    H127467   6.180   2.361   3.401  0.0985 -1.4365 -1.5351
 1992TIP3    H227468   6.135   2.456   3.292 -0.4253  0.3759  0.1982
 1993TIP3   OH227469   6.778   0.567  13.188 -0.1241 -0.4231 -0.3475
 1993TIP3    H127470   6.777   0.505  13.114  0.4469 -1.7697  0.7319
 1993TIP3    H227471   6.871   0.588  13.200 -0.0885 -1.0760  0.6536
 1994TIP3   OH227472   2.675   3.875  11.733 -0.0975  0.0395  1.0604
 1994TIP3    H127473   2.691   3.968  11.720  2.3510 -0.2108  1.9385
 1994TIP3    H227474   2.673   3.839  11.644  0.4806  0.7041  0.7682
 1995TIP3   OH227475   4.139   1.823   1.156 -0.3806  0.0153 -0.0688
 1995TIP3    H127476   4.072   1.777   1.106  0.8486 -1.2510 -0.6081
 1995TIP3    H227477   4.178   1.756   1.211 -0.3708  0.9940  1.1627
 1996TIP3   OH227478   2.735   5.843   2.713  0.5367  0.5099  0.2555
 1996TIP3    H127479   2.724   5.798   2.629  1.4077 -3.2874  1.9227
 1996TIP3    H227480   2.830   5.858   2.720  0.7332 -0.8897  1.2013
 1997TIP3   OH227481   0.563   4.329  17.251 -0.8353  0.6717 -0.4556
 1997TIP3    H127482   0.471   4.318  17.225 -0.3253 -0.8303 -1.7694
 1997TIP3    H227483   0.613   4.312  17.171  0.6767 -0.3311  0.6493
 1998TIP3   OH227484   4.086   6.205   4.098  0.2962 -0.4319 -0.2166
 1998TIP3    H127485   4.071   6.257   4.019  2.3279  1.9713  0.8405
 1998TIP3    H227486   4.055   6.260   4.170 -0.0981 -1.9077  0.7972
 1999TIP3   OH227487   4.439   4.867   2.580  0.3439  0.3807  0.2468
 1999TIP3    H127488   4.455   4.940   2.641  0.5084 -0.4186  1.1725
 1999TIP3    H227489   4.524   4.825   2.571 -0.0792 -0.6548  0.9754
 2000TIP3   OH227490   6.702   5.780   2.453 -0.5404  0.2024  0.0085
 2000TIP3    H127491   6.705   5.790   2.358 -0.3124 -2.1638 -0.3098
 2000TIP3    H227492   6.612   5.802   2.478 -0.8748 -0.1110 -0.9043
 2001TIP3   OH227493   5.939   5.121   2.663 -0.0263  0.2747  0.4545
 2001TIP3    H127494   5.893   5.074   2.593  1.4105  0.3998 -0.6177
 2001TIP3    H227495   5.872   5.136   2.730 -1.3029 -0.3782 -0.6296
 2002TIP3   OH227496   5.818   4.386   6.506  0.5670  0.4056 -0.1023
 2002TIP3    H127497   5.838   4.422   6.592 -1.8926  2.1885 -0.1418
 2002TIP3    H227498   5.728   4.414   6.489  1.2660  1.0480 -3.6689
 2003TIP3   OH227499   2.164   0.881   1.242 -0.6308  0.1194  0.7654
 2003TIP3    H127500   2.224   0.816   1.205 -1.5199  0.1634 -0.8401
 2003TIP3    H227501   2.103   0.830   1.295 -1.7025 -0.4713 -0.9830
 2004TIP3   OH227502   6.114   0.229   1.979  0.6606 -0.1892  0.5074
 2004TIP3    H127503   6.056   0.234   1.902  1.5679  0.3300 -0.1700
 2004TIP3    H227504   6.094   0.308   2.029  0.5141 -0.2025  0.4706
 2005TIP3   OH227505   2.865   3.881   0.187  0.3153  0.1184  0.2020
 2005TIP3    H127506   2.869   3.812   0.253 -0.7258  0.3839  0.5584
 2005TIP3    H227507   2.774   3.880   0.156 -0.5756  3.1682  2.2669
 2006TIP3   OH227508   6.310   6.350  12.201  0.3321  0.9538  0.1272
 2006TIP3    H127509   6.281   6.374  12.113  0.2377 -0.5467 -0.2821
 2006TIP3    H227510   6.358   6.427  12.233  1.9052  0.9183 -1.9263
 2007TIP3   OH227511   5.859   2.650  15.110 -0.0043  0.1274 -0.1481
 2007TIP3    H127512   5.883   2.673  15.020 -0.7726 -0.1044 -0.4217
 2007TIP3    H227513   5.772   2.610  15.102 -1.0629  2.0569  0.9351
 2008TIP3   OH227514   2.795   5.516   5.213  0.0319  0.5075 -0.0615
 2008TIP3    H127515   2.844   5.588   5.252  0.2618  0.2538  0.1245
 2008TIP3    H227516   2.862   5.454   5.183 -0.1718 -0.2489  0.9703
 2009TIP3   OH227517   5.332   3.936  15.921 -0.0103  0.1839  0.1486
 2009TIP3    H127518   5.308   3.971  15.835  1.9465  0.0879 -0.4802
 2009TIP3    H227519   5.422   3.904  15.910  0.7493  1.2682  2.5434
 2010TIP3   OH227520   3.668   5.635   4.244  0.2746 -0.4982  0.2776
 2010TIP3    H127521   3.761   5.639   4.222  0.1707  3.4831 -0.1543
 2010TIP3    H227522   3.666   5.615   4.337  1.6527  0.5488  0.5534
 2011TIP3   OH227523   3.737   5.553   1.467 -0.1029 -0.7200  0.4650
 2011TIP3    H127524   3.661   5.502   1.439  0.7771 -1.4172 -0.7928
 2011TIP3    H227525   3.707   5.644   1.466 -0.8206 -0.9535 -0.3675
 2012TIP3   OH227526   6.200   1.227   2.787 -0.0022  0.5447  0.3428
 2012TIP3    H127527   6.287   1.256   2.815  0.2081 -0.0378  0.3044
 2012TIP3    H227528   6.184   1.147   2.837  0.0696 -0.1129 -0.6505
 2013TIP3   OH227529   1.692   0.487   3.266  0.4951  0.1116 -0.2957
 2013TIP3    H127530   1.648   0.507   3.183 -0.0733  0.0609 -0.0098
 2013TIP3    H227531   1.676   0.394   3.280 -1.5716  0.6207  1.1088
 2014TIP3   OH227532   0.796   5.805  13.158 -0.4844  0.4615  0.1996
 2014TIP3    H127533   0.756   5.719  13.149 -1.6936  0.9668  0.5526
 2014TIP3    H227534   0.724   5.862  13.184  0.3399  1.5423  0.1645
 2015TIP3   OH227535   2.303   2.514   3.262  0.3471 -0.0142  0.0800
 2015TIP3    H127536   2.297   2.484   3.353  2.2507 -3.7239 -0.8148
 2015TIP3    H227537   2.389   2.556   3.257  0.5870 -0.5222 -0.1427
 2016TIP3   OH227538   1.805   2.283  15.275  0.5394  0.6544  0.1393
 2016TIP3    H127539   1.792   2.358  15.216 -0.1714  0.2456 -0.2371
 2016TIP3    H227540   1.896   2.291  15.304  0.6367  1.3533 -0.3312
 2017TIP3   OH227541   6.097   0.904  10.946 -0.1169  0.5127  0.4619
 2017TIP3    H127542   6.063   0.988  10.916 -0.7997  0.2567  0.5165
 2017TIP3    H227543   6.156   0.876  10.876 -0.7405  0.5102 -0.0726
 2018TIP3   OH227544   4.060   6.792   1.210  0.3540 -0.2115 -0.0633
 2018TIP3    H127545   4.015   6.712   1.184 -0.9401  0.6079 -0.4131
 2018TIP3    H227546   4.011   6.862   1.167  0.5281  0.8868  1.4750
 2019TIP3   OH227547   5.066   5.950  16.294 -0.2002 -0.2709 -0.3017
 2019TIP3    H127548   5.135   5.885  16.308 -1.7067 -1.8398  0.1227
 2019TIP3    H227549   5.000   5.904  16.241 -1.1900  0.9948 -0.2100
 2020TIP3   OH227550   4.378   2.082   0.981  0.0252  0.5086 -0.0448
 2020TIP3    H127551   4.284   2.091   0.963 -0.1141 -0.6546 -0.0366
 2020TIP3    H227552   4.406   2.168   1.012 -1.3808  0.5071  1.3850
 2021TIP3   OH227553   4.122   3.494   4.046  0.1366  0.0900  0.3861
 2021TIP3    H127554   4.159   3.480   3.959  1.1395 -1.1552  0.9658
 2021TIP3    H227555   4.050   3.431   4.052 -0.0194  0.2691  0.4087
 2022TIP3   OH227556   6.733   3.830  11.508 -0.3126  0.7421 -0.0899
 2022TIP3    H127557   6.702   3.741  11.529 -1.3889  0.9458 -0.7008
 2022TIP3    H227558   6.799   3.849  11.574 -0.2206 -0.4367  0.1836
 2023TIP3   OH227559   1.713   6.001   0.862  0.0782 -0.4934  0.1305
 2023TIP3    H127560   1.640   6.035   0.913  0.0989  1.9954 -1.3386
 2023TIP3    H227561   1.772   5.961   0.926 -1.2895 -0.1485  1.6417
 2024TIP3   OH227562   3.116   0.877  15.845 -0.3308 -0.9880 -0.1636
 2024TIP3    H127563   3.028   0.852  15.816 -1.1710  1.4965 -0.0057
 2024TIP3    H227564   3.137   0.955  15.793 -0.0575  1.0273  2.7555
 2025TIP3   OH227565   6.656   3.882  14.823  0.1527 -0.3424  0.4074
 2025TIP3    H127566   6.632   3.972  14.847  0.5105 -0.2152  0.3055
 2025TIP3    H227567   6.750   3.887  14.806  0.2189 -0.7864  0.6299
 2026TIP3   OH227568   6.187   2.118  17.199  0.2647  0.2051 -0.1273
 2026TIP3    H127569   6.242   2.106  17.277 -0.3702  0.2120  0.3252
 2026TIP3    H227570   6.247   2.156  17.134  1.0011 -0.5614  0.0890
 2027TIP3   OH227571   0.292   4.880   0.527 -0.2827 -0.2151  0.4226
 2027TIP3    H127572   0.343   4.815   0.576  0.7720  0.3733  0.1360
 2027TIP3    H227573   0.358   4.937   0.488 -1.1452 -0.0679 -0.8546
 2028TIP3   OH227574   0.997   3.460  13.704 -0.0960  0.3073  0.0707
 2028TIP3    H127575   0.998   3.551  13.734  0.5995  0.0523  0.8647
 2028TIP3    H227576   1.089   3.437  13.692 -0.3169  0.1249 -1.4837
 2029TIP3   OH227577   1.117   2.132  15.432  0.1268 -0.2437 -0.3189
 2029TIP3    H127578   1.096   2.101  15.520 -0.9973 -0.7922 -0.7596
 2029TIP3    H227579   1.139   2.052  15.383 -1.3526 -0.2028 -1.0823
 2030TIP3   OH227580   0.749   3.717   5.375  0.0355  0.1652  0.1437
 2030TIP3    H127581   0.815   3.782   5.397 -1.8958  1.2932  3.1369
 2030TIP3    H227582   0.783   3.635   5.412  0.0915  0.5721  1.0027
 2031TIP3   OH227583   3.594   0.082  17.053 -0.6695 -0.4446  0.1600
 2031TIP3    H127584   3.633   0.157  17.097  0.1248 -0.4283 -0.5364
 2031TIP3    H227585   3.641   0.006  17.088 -0.4945 -0.4886 -0.1614
 2032TIP3   OH227586   3.167   3.225   3.803 -0.5103  0.0870 -0.5830
 2032TIP3    H127587   3.133   3.157   3.745  1.4371 -0.6836 -0.9182
 2032TIP3    H227588   3.252   3.248   3.764  1.5436 -1.4374  2.5933
 2033TIP3   OH227589   1.721   3.172   5.726 -0.1530  0.0446  0.5620
 2033TIP3    H127590   1.704   3.209   5.813  0.1787  0.0768  0.6144
 2033TIP3    H227591   1.721   3.078   5.739 -1.8461 -0.0170  0.2747
 2034TIP3   OH227592   4.689   2.613  14.877  0.0783 -0.5317  0.2067
 2034TIP3    H127593   4.758   2.547  14.877  0.0223 -0.6139  1.1664
 2034TIP3    H227594   4.608   2.563  14.890 -0.1944 -0.4590 -1.1463
 2035TIP3   OH227595   6.117   4.000  13.426  0.1197  0.2495  0.3261
 2035TIP3    H127596   6.067   4.037  13.353 -1.5033 -1.2753  0.5832
 2035TIP3    H227597   6.101   3.906  13.421  1.8261 -0.1472  1.3245
 2036TIP3   OH227598   0.131   2.595  11.530 -0.2621 -0.9941 -0.4207
 2036TIP3    H127599   0.187   2.551  11.466  3.2869 -2.7867  3.4038
 2036TIP3    H227600   0.072   2.527  11.561 -2.1547 -0.0656 -1.7516
 2037TIP3   OH227601   5.076   6.511   3.436 -0.4322 -0.3017 -0.1499
 2037TIP3    H127602   5.068   6.428   3.483 -0.9169 -0.4837 -0.5429
 2037TIP3    H227603   5.167   6.513   3.407 -0.3025 -0.4897  0.2399
 2038TIP3   OH227604   5.999   2.572   6.639  0.7416 -0.2629 -0.2289
 2038TIP3    H127605   5.985   2.509   6.709 -0.3958  0.9587  0.7183
 2038TIP3    H227606   5.931   2.638   6.654  0.0570 -0.2792 -2.8627
 2039TIP3   OH227607   3.498   4.075   5.114  0.1917 -0.2918  0.2462
 2039TIP3    H127608   3.489   4.001   5.054 -1.3089 -0.2760  0.4048
 2039TIP3    H227609   3.430   4.060   5.180 -1.1192  1.8920 -0.4847
 2040TIP3   OH227610   6.135   2.100   1.473  0.2103  0.1626 -0.1410
 2040TIP3    H127611   6.073   2.030   1.494  1.3990 -0.8700  0.0611
 2040TIP3    H227612   6.197   2.060   1.411  1.4656  0.7245  0.7016
 2041TIP3   OH227613   2.440   2.636   4.333 -0.5874 -0.0734 -0.5625
 2041TIP3    H127614   2.464   2.577   4.403  1.4966 -0.2106 -1.3323
 2041TIP3    H227615   2.499   2.711   4.343 -0.0058 -0.2452 -2.3203
 2042TIP3   OH227616   6.239   3.391   4.178 -0.3208 -0.2769  0.4566
 2042TIP3    H127617   6.205   3.479   4.159 -0.3973 -0.2333  0.7778
 2042TIP3    H227618   6.163   3.333   4.168  0.2675 -0.7017 -2.3547
 2043TIP3   OH227619   2.976   0.368   3.754 -0.5879  0.1740 -0.3592
 2043TIP3    H127620   2.888   0.340   3.781 -0.2561 -1.2862 -0.6781
 2043TIP3    H227621   2.999   0.438   3.814  0.0540 -2.7554  3.1246
 2044TIP3   OH227622   3.835   6.151   3.264 -0.2323 -0.2536  0.5079
 2044TIP3    H127623   3.850   6.212   3.192  0.1206 -0.9250  0.0011
 2044TIP3    H227624   3.749   6.175   3.298  0.7202  1.7985  1.6177
 2045TIP3   OH227625   3.383   4.929  15.301 -0.0868 -0.2549 -0.3732
 2045TIP3    H127626   3.379   4.984  15.379  1.0380 -1.7971  0.8399
 2045TIP3    H227627   3.471   4.944  15.266  0.1143 -1.0189 -0.2085
 2046TIP3   OH227628   3.272   6.326  12.616 -0.2281 -0.1156  0.1396
 2046TIP3    H127629   3.253   6.262  12.684 -1.9047  0.7336  0.5428
 2046TIP3    H227630   3.281   6.409  12.663 -3.0008  0.7910 -0.6732
 2047TIP3   OH227631   4.840   0.566  14.528  0.1713  0.6474 -0.1169
 2047TIP3    H127632   4.751   0.603  14.530 -0.2825 -0.4115  0.4371
 2047TIP3    H227633   4.862   0.560  14.436 -1.1990 -1.0079 -0.3891
 2048TIP3   OH227634   3.976   1.303   1.111  0.4496 -0.1559  0.1612
 2048TIP3    H127635   4.013   1.383   1.073 -2.4569  1.8897  1.2582
 2048TIP3    H227636   3.944   1.253   1.035 -1.8197  2.0215 -0.4527
 2049TIP3   OH227637   2.479   3.562   6.001 -1.0080 -0.0748 -0.0194
 2049TIP3    H127638   2.446   3.481   6.040 -1.4907 -0.2181 -0.7137
 2049TIP3    H227639   2.573   3.560   6.019 -1.5418  1.3667  3.8776
 2050TIP3   OH227640   1.846   3.255  14.084 -0.6823  0.0357  0.2580
 2050TIP3    H127641   1.788   3.182  14.104  0.0419 -0.4206  0.7116
 2050TIP3    H227642   1.926   3.214  14.050  0.0876  0.5522  1.3935
 2051TIP3   OH227643   4.790   6.015  15.517 -0.9398 -0.1904 -0.3937
 2051TIP3    H127644   4.850   6.062  15.460 -1.7219 -0.0448 -1.1097
 2051TIP3    H227645   4.708   6.009  15.468 -0.3587 -3.9857 -1.2230
 2052TIP3   OH227646   6.312   1.050  12.941 -0.3342 -0.0456  0.0072
 2052TIP3    H127647   6.322   1.004  12.857 -1.3223  1.0261 -0.7230
 2052TIP3    H227648   6.397   1.092  12.955 -0.0850 -0.4228 -0.3413
 2053TIP3   OH227649   3.845   2.679   3.265  0.2937  0.2990 -0.4300
 2053TIP3    H127650   3.885   2.722   3.341 -1.2895 -0.7608  1.0955
 2053TIP3    H227651   3.875   2.588   3.270 -1.7887 -0.4019  0.4759
 2054TIP3   OH227652   1.327   3.994  14.913  0.4709 -0.1138  0.3522
 2054TIP3    H127653   1.317   4.049  14.990 -0.9901  1.3185 -0.7789
 2054TIP3    H227654   1.246   4.009  14.862  0.3752 -2.7015 -0.4021
 2055TIP3   OH227655   6.320   3.489   5.589  0.5388  0.3111 -0.0015
 2055TIP3    H127656   6.324   3.436   5.669  0.5158  0.9462  0.4270
 2055TIP3    H227657   6.260   3.560   5.610 -1.5444 -0.9000 -1.4316
 2056TIP3   OH227658   3.334   0.688   6.139  0.3729  0.2051 -0.2525
 2056TIP3    H127659   3.339   0.605   6.090  1.3449  0.6792 -1.0025
 2056TIP3    H227660   3.386   0.672   6.218  0.6848  0.1302 -0.4675
 2057TIP3   OH227661   5.271   3.811   6.486 -0.1723  0.3531 -0.1331
 2057TIP3    H127662   5.341   3.773   6.538  0.0885  1.6127  0.4800
 2057TIP3    H227663   5.315   3.874   6.429 -0.6875  0.4029 -0.4869
 2058TIP3   OH227664   3.643   1.139   5.492 -0.4631 -0.0133  0.4690
 2058TIP3    H127665   3.699   1.111   5.564  2.4091 -2.7622 -2.4657
 2058TIP3    H227666   3.701   1.189   5.435 -1.6929 -0.6093 -1.3828
 2059TIP3   OH227667   3.945   4.211   2.375  0.3418  0.4975 -0.1984
 2059TIP3    H127668   3.928   4.250   2.289  0.1278  1.2100  0.1592
 2059TIP3    H227669   3.866   4.161   2.395  1.1551 -1.3559 -1.2851
 2060TIP3   OH227670   4.287   3.535  12.530  0.3959  0.0470  0.1420
 2060TIP3    H127671   4.196   3.512  12.551 -0.4595  0.9267 -2.2342
 2060TIP3    H227672   4.283   3.628  12.507  1.4410 -0.3970 -2.0779
 2061TIP3   OH227673   2.937   3.046   0.216  0.1604  0.2608  0.1197
 2061TIP3    H127674   3.012   3.023   0.161 -0.1381  0.1429 -0.2454
 2061TIP3    H227675   2.884   2.966   0.220  0.3327  0.1738  0.8395
 2062TIP3   OH227676   0.533   1.237  16.197 -0.4794 -0.4405 -0.2282
 2062TIP3    H127677   0.506   1.329  16.205  0.8223 -0.0422 -0.2145
 2062TIP3    H227678   0.506   1.212  16.108 -1.5426 -0.3045  0.0399
 2063TIP3   OH227679   0.095   4.335  15.657 -0.8918 -0.0216  0.4479
 2063TIP3    H127680   0.157   4.269  15.686  0.0709  0.3659 -0.6468
 2063TIP3    H227681   0.126   4.416  15.698 -0.2080  0.3112 -0.6848
 2064TIP3   OH227682   4.201   2.605   0.877  0.7214 -0.2365 -0.2542
 2064TIP3    H127683   4.279   2.594   0.931 -0.0724 -0.1471  0.9551
 2064TIP3    H227684   4.212   2.541   0.806  1.0730 -1.4826  0.8659
 2065TIP3   OH227685   4.903   1.158   1.940 -0.8070 -0.7726 -0.0585
 2065TIP3    H127686   4.845   1.182   1.868 -1.0241 -0.1270  0.3281
 2065TIP3    H227687   4.844   1.135   2.012 -0.6025 -2.1511 -0.3112
 2066TIP3   OH227688   4.046   6.653  15.158 -0.3405 -0.1039 -0.2420
 2066TIP3    H127689   4.001   6.698  15.087  0.2871 -0.5345 -0.9281
 2066TIP3    H227690   4.061   6.720  15.225 -1.4176  0.1822 -0.2743
 2067TIP3   OH227691   6.247   2.941  11.825  0.0312  0.4144  0.2129
 2067TIP3    H127692   6.300   3.012  11.863  0.0640 -0.7241  2.4510
 2067TIP3    H227693   6.162   2.949  11.869 -0.6807  0.3399 -1.1005
 2068TIP3   OH227694   4.649   0.777  11.465  0.5471 -0.3399  0.3064
 2068TIP3    H127695   4.588   0.803  11.396  0.3977  0.0384  0.5810
 2068TIP3    H227696   4.729   0.827  11.447  0.2977  0.2240  0.7692
 2069TIP3   OH227697   4.645   1.996  12.439 -0.3689  0.3262  0.5959
 2069TIP3    H127698   4.696   1.916  12.427 -1.5761 -0.5316  0.9653
 2069TIP3    H227699   4.658   2.020  12.531 -3.1382 -1.7851  1.6951
 2070TIP3   OH227700   2.911   1.913   4.926  0.0950  0.3859 -0.0912
 2070TIP3    H127701   2.968   1.944   4.855  2.1194 -2.8080 -0.0582
 2070TIP3    H227702   2.956   1.939   5.006  0.6439 -0.6265 -0.0563
 2071TIP3   OH227703   5.538   5.446   5.273 -0.0939 -0.1339  0.2928
 2071TIP3    H127704   5.445   5.460   5.257 -0.5088  0.1524  2.6411
 2071TIP3    H227705   5.543   5.419   5.364  2.1444 -0.0058  0.2584
 2072TIP3   OH227706   5.772   4.355   0.642  0.1648 -0.5661  0.0904
 2072TIP3    H127707   5.791   4.424   0.706  0.5410 -1.2725  0.7495
 2072TIP3    H227708   5.784   4.398   0.557  0.1513  0.2488  0.4850
 2073TIP3   OH227709   0.253   4.934  12.066 -0.0156 -0.2237  0.4938
 2073TIP3    H127710   0.264   5.028  12.050 -1.0972 -0.2706 -0.7402
 2073TIP3    H227711   0.162   4.926  12.097  0.2359 -0.8085  1.0976
 2074TIP3   OH227712   4.634   4.542  13.931  0.1896 -0.0830  0.1038
 2074TIP3    H127713   4.727   4.567  13.929  0.2585 -0.2562  0.8921
 2074TIP3    H227714   4.590   4.617  13.972  0.3310 -0.9885  2.0137
 2075TIP3   OH227715   0.421   2.903  14.961 -0.1136  0.3324 -0.3486
 2075TIP3    H127716   0.502   2.854  14.948  0.1408  0.2258  1.3569
 2075TIP3    H227717   0.352   2.843  14.934  0.3248  0.1965 -1.2222
 2076TIP3   OH227718   4.812   6.183  16.650 -0.1641 -0.5825 -0.1595
 2076TIP3    H127719   4.796   6.109  16.710  1.2893 -1.8657 -1.2594
 2076TIP3    H227720   4.883   6.232  16.693 -2.1740  1.1779  1.3561
 2077TIP3   OH227721   3.885   5.475   3.607 -0.7399 -0.5470  0.2976
 2077TIP3    H127722   3.841   5.550   3.568 -0.3559 -0.9674 -1.0134
 2077TIP3    H227723   3.978   5.492   3.591 -0.6052 -0.9160  0.6988
 2078TIP3   OH227724   3.856   0.167  12.929 -0.6268  0.0894  0.2094
 2078TIP3    H127725   3.924   0.185  12.994 -1.5438 -1.3525  1.6566
 2078TIP3    H227726   3.791   0.237  12.942 -0.2912  0.4199  0.1035
 2079TIP3   OH227727   6.715   4.284  13.386  0.1380 -0.1118 -0.3280
 2079TIP3    H127728   6.761   4.365  13.408  0.2908 -0.4746  0.7177
 2079TIP3    H227729   6.631   4.291  13.431 -1.3333  0.9984 -3.0157
 2080TIP3   OH227730   5.091   2.621  14.693  0.2580 -0.0629  0.2995
 2080TIP3    H127731   5.175   2.620  14.645  0.2441  0.3670  0.2633
 2080TIP3    H227732   5.098   2.696  14.751  0.6274 -1.0865  1.6237
 2081TIP3   OH227733   0.066   1.642  16.185 -0.5483 -1.3699  0.3347
 2081TIP3    H127734   0.141   1.678  16.232 -2.2797  3.2411  0.0671
 2081TIP3    H227735   0.025   1.582  16.248  0.3228  0.2864  2.6115
 2082TIP3   OH227736   4.587   3.255  11.216  0.1593 -0.3554 -0.1208
 2082TIP3    H127737   4.681   3.236  11.208  0.5280  0.9315  0.8804
 2082TIP3    H227738   4.582   3.330  11.275 -1.4572  0.1404 -0.8269
 2083TIP3   OH227739   5.557   6.063  11.370 -1.0026  0.1632 -0.4776
 2083TIP3    H127740   5.539   5.992  11.431 -2.4146  0.8009 -0.0858
 2083TIP3    H227741   5.566   6.021  11.285  0.7088 -0.7075  0.1116
 2084TIP3   OH227742   5.970   3.812   4.731 -0.2019  0.1377  0.1226
 2084TIP3    H127743   5.917   3.862   4.669 -1.7611 -0.4304  0.9500
 2084TIP3    H227744   6.033   3.765   4.676 -0.6098  0.7591 -0.8995
 2085TIP3   OH227745   6.736   0.113  16.359  0.3736  0.3002 -0.4537
 2085TIP3    H127746   6.818   0.071  16.333 -0.4524 -1.5149 -0.3172
 2085TIP3    H227747   6.694   0.049  16.417 -1.3881  0.9513 -0.9624
 2086TIP3   OH227748   3.492   3.001  10.841  0.3068 -0.1281  0.1608
 2086TIP3    H127749   3.430   2.986  10.769 -1.5639 -0.8610  1.8286
 2086TIP3    H227750   3.514   2.913  10.871 -0.0460  0.1806  1.3596
 2087TIP3   OH227751   2.515   1.581  11.116 -0.4775 -0.3265 -0.0437
 2087TIP3    H127752   2.442   1.606  11.059 -0.2724  0.5014  0.0371
 2087TIP3    H227753   2.507   1.487  11.126 -1.0552 -0.3546 -0.7033
 2088TIP3   OH227754   0.327   6.326  11.071 -0.1014 -0.0225  0.3692
 2088TIP3    H127755   0.315   6.344  10.977  1.3778 -0.6320  0.0296
 2088TIP3    H227756   0.315   6.231  11.079  0.5405 -0.0857  0.6524
 2089TIP3   OH227757   4.986   6.411   2.050  0.0075 -0.0050 -0.5532
 2089TIP3    H127758   5.026   6.452   1.973  1.6740 -2.9560 -1.3761
 2089TIP3    H227759   4.981   6.318   2.028 -1.4770 -0.6467  2.1109
 2090TIP3   OH227760   3.741   2.007  13.194 -0.4883  0.1604  0.0764
 2090TIP3    H127761   3.748   1.913  13.213  0.4280  0.4976  1.6223
 2090TIP3    H227762   3.726   2.048  13.280 -1.4629  1.3883 -0.6455
 2091TIP3   OH227763   3.083   0.318   1.249  0.2489 -0.6036  0.3905
 2091TIP3    H127764   3.090   0.382   1.321  0.1410  1.0644 -1.0124
 2091TIP3    H227765   2.989   0.308   1.235  0.0025 -4.1923  3.1379
 2092TIP3   OH227766   5.207   3.685   6.200 -0.6362 -0.1998 -0.2332
 2092TIP3    H127767   5.207   3.688   6.295 -0.0928 -0.0534 -0.2325
 2092TIP3    H227768   5.125   3.726   6.174 -0.5423  0.2388  0.1614
 2093TIP3   OH227769   3.861   5.145  15.686  0.2408  0.3782 -0.2570
 2093TIP3    H127770   3.809   5.173  15.610  0.6728  0.9117 -0.3699
 2093TIP3    H227771   3.870   5.225  15.738 -1.1567 -0.2677  1.0396
 2094TIP3   OH227772   6.502   4.013   3.812  0.3239  0.3895 -0.4268
 2094TIP3    H127773   6.590   4.050   3.818  0.9870 -1.0911 -0.5564
 2094TIP3    H227774   6.490   3.966   3.895 -1.0584  2.0034  0.3478
 2095TIP3   OH227775   3.405   6.114   2.018 -0.2317 -0.5886  0.0075
 2095TIP3    H127776   3.314   6.144   2.016 -0.0686  0.0026  0.9232
 2095TIP3    H227777   3.413   6.056   1.942 -1.1489 -0.0008 -0.5511
 2096TIP3   OH227778   2.170   2.609  15.216  0.3899  0.0982  0.1397
 2096TIP3    H127779   2.197   2.517  15.215 -1.9129 -0.6525  0.8157
 2096TIP3    H227780   2.084   2.608  15.259  0.7897  2.7150  1.1766
 2097TIP3   OH227781   4.957   1.660   1.902 -0.3612 -0.8713  0.1593
 2097TIP3    H127782   5.026   1.594   1.913 -0.4281 -0.7513  1.4451
 2097TIP3    H227783   4.880   1.620   1.941 -1.4065 -1.5161 -2.3668
 2098TIP3   OH227784   6.341   3.403   4.768  0.3660  0.2924 -0.4797
 2098TIP3    H127785   6.263   3.408   4.822  1.5287  3.1761  1.2131
 2098TIP3    H227786   6.354   3.310   4.751 -1.3061 -0.5902  2.4219
 2099TIP3   OH227787   5.631   1.256   2.870  0.7196  0.1929  0.5909
 2099TIP3    H127788   5.666   1.196   2.803  0.1718  0.1702  0.3177
 2099TIP3    H227789   5.639   1.208   2.952 -0.1247 -0.4453  0.3167
 2100TIP3   OH227790   3.867   6.152   2.300 -0.3477 -0.3991  0.4997
 2100TIP3    H127791   3.783   6.115   2.272  0.6920 -2.0451 -0.6553
 2100TIP3    H227792   3.882   6.114   2.387 -0.0617 -1.4062  0.0206
 2101TIP3   OH227793   5.141   4.211  12.409  0.5588  0.3947  0.0364
 2101TIP3    H127794   5.113   4.298  12.378  1.1983  0.6073  0.0438
 2101TIP3    H227795   5.085   4.195  12.485  2.0289  1.8817  1.5213
 2102TIP3   OH227796   0.443   4.950  13.327  0.1802  0.1015 -0.0790
 2102TIP3    H127797   0.357   4.909  13.328  0.4538 -0.6054 -1.7351
 2102TIP3    H227798   0.425   5.043  13.318 -0.4119  0.1464  1.3070
 2103TIP3   OH227799   3.882   0.923  12.858 -0.1023  0.0869  0.0661
 2103TIP3    H127800   3.818   0.891  12.921 -2.0686  0.0216 -1.8408
 2103TIP3    H227801   3.915   0.845  12.814 -0.2921  0.2690 -0.4034
 2104TIP3   OH227802   2.747   5.356  12.127 -0.5727 -0.2913 -0.2234
 2104TIP3    H127803   2.721   5.414  12.055  1.5747 -0.2823 -1.0663
 2104TIP3    H227804   2.718   5.401  12.206 -0.2147  1.2427 -0.9375
 2105TIP3   OH227805   0.818   3.645   2.423  0.6168 -0.1463  0.0893
 2105TIP3    H127806   0.764   3.664   2.500  1.3425 -1.6502  1.0090
 2105TIP3    H227807   0.846   3.731   2.392 -0.2388  0.5236  1.1021
 2106TIP3   OH227808   3.635   5.716  15.809  0.1821 -0.1799 -0.8627
 2106TIP3    H127809   3.699   5.786  15.797  0.2981  0.1990  1.4153
 2106TIP3    H227810   3.553   5.753  15.774  0.3723  0.8837 -0.2392
 2107TIP3   OH227811   1.933   6.118  16.533  0.0835  0.0634 -0.1719
 2107TIP3    H127812   1.968   6.089  16.617 -0.7425 -0.4815 -0.0086
 2107TIP3    H227813   1.883   6.044  16.501 -0.1025  0.4838 -0.8713
 2108TIP3   OH227814   3.159   3.310   4.664  0.3448  0.7752  0.3059
 2108TIP3    H127815   3.099   3.382   4.644  0.2220  0.4808 -0.4472
 2108TIP3    H227816   3.124   3.271   4.744  0.1708  1.2838  0.4863
 2109TIP3   OH227817   1.169   4.633   5.461  0.0107  0.0842 -0.0098
 2109TIP3    H127818   1.156   4.690   5.386 -0.0099  0.1219  0.0224
 2109TIP3    H227819   1.238   4.675   5.513  0.0994  0.0046 -0.0615
 2110TIP3   OH227820   2.682   4.752  14.895 -0.3255 -0.4095  0.0074
 2110TIP3    H127821   2.634   4.671  14.885  1.7631 -1.6784 -0.3773
 2110TIP3    H227822   2.635   4.816  14.841 -0.5919 -2.0050 -1.7082
 2111TIP3   OH227823   2.377   1.346   5.104 -0.0978  0.5312 -0.1390
 2111TIP3    H127824   2.417   1.326   5.019 -0.1148  2.0758 -0.5511
 2111TIP3    H227825   2.434   1.414   5.141 -0.6467  0.5841  0.6294
 2112TIP3   OH227826   1.580   3.739  16.388  0.9730 -0.0700 -0.0921
 2112TIP3    H127827   1.548   3.819  16.429  1.5263  0.6025 -0.9342
 2112TIP3    H227828   1.628   3.769  16.311  1.0815 -1.2228 -0.4955
 2113TIP3   OH227829   0.141   3.433   3.263 -0.4375 -0.4453  0.1125
 2113TIP3    H127830   0.088   3.499   3.307  2.0637  1.0782  1.0425
 2113TIP3    H227831   0.177   3.380   3.335  0.0258 -0.8671 -0.4202
 2114TIP3   OH227832   4.382   5.624   0.254 -0.3097 -0.9582 -0.4990
 2114TIP3    H127833   4.289   5.645   0.240 -0.4614 -1.0826  0.2683
 2114TIP3    H227834   4.410   5.582   0.173 -1.2354 -1.9882 -0.3077
 2115TIP3   OH227835   1.913   3.888  17.176 -0.7938 -0.3187 -0.2062
 2115TIP3    H127836   1.969   3.949  17.128 -0.3298 -1.2165 -0.8465
 2115TIP3    H227837   1.865   3.943  17.238  0.8609  0.4677  0.4445
 2116TIP3   OH227838   6.204   4.612   0.247 -0.3832  0.2510  0.3886
 2116TIP3    H127839   6.137   4.568   0.195  1.6579 -0.3468 -1.8922
 2116TIP3    H227840   6.264   4.542   0.274  1.1185  1.1227 -0.5056
 2117TIP3   OH227841   6.286   0.709  13.718 -0.0340 -0.1632  0.4998
 2117TIP3    H127842   6.362   0.651  13.719  0.0552 -0.0478  0.3871
 2117TIP3    H227843   6.211   0.651  13.733 -0.0755 -0.4952 -0.8920
 2118TIP3   OH227844   2.370   1.935  13.917 -0.2830  0.5326 -0.8454
 2118TIP3    H127845   2.329   1.861  13.961  2.2215 -0.1572  0.4859
 2118TIP3    H227846   2.361   2.008  13.978  0.4634  0.3596 -0.5135
 2119TIP3   OH227847   3.650   4.612  15.075  0.6378  0.6067  0.0531
 2119TIP3    H127848   3.686   4.612  15.164 -1.0110 -0.3265  0.7717
 2119TIP3    H227849   3.662   4.523  15.044  0.0088  0.5731 -0.1242
 2120TIP3   OH227850   1.394   0.017  13.863  0.0610 -0.1325 -0.4745
 2120TIP3    H127851   1.444  -0.025  13.794  2.3643 -0.6559  1.3992
 2120TIP3    H227852   1.302  -0.003  13.842  0.8214 -2.3873 -1.9999
 2121TIP3   OH227853   6.153   4.836  13.965  0.4243  0.0142  0.7284
 2121TIP3    H127854   6.124   4.927  13.957  0.0175 -0.2224 -0.8242
 2121TIP3    H227855   6.198   4.818  13.883 -0.0108 -1.3590  0.7664
 2122TIP3   OH227856   3.639   4.638   2.610  0.3481  0.3446 -0.0259
 2122TIP3    H127857   3.595   4.560   2.577  0.7212  1.2126 -2.8141
 2122TIP3    H227858   3.572   4.683   2.662 -0.1686 -1.2675  0.7627
 2123TIP3   OH227859   1.334   3.104  12.694 -0.0880 -0.1388  0.4679
 2123TIP3    H127860   1.364   3.176  12.748  1.0453 -0.4439  0.2633
 2123TIP3    H227861   1.266   3.061  12.746 -0.7424  1.0177  0.6124
 2124TIP3   OH227862   1.482   6.447  13.868  0.0332  0.1468  0.5345
 2124TIP3    H127863   1.507   6.373  13.812  1.6493  0.3381  0.9731
 2124TIP3    H227864   1.432   6.504  13.810 -1.4195 -1.3510  0.2322
 2125TIP3   OH227865   4.025   0.004   0.456  0.0321  0.0703  0.0204
 2125TIP3    H127866   4.087  -0.049   0.507 -0.4427 -0.9254 -0.4365
 2125TIP3    H227867   3.968   0.043   0.522  1.9091  2.0886  0.5876
 2126TIP3   OH227868   3.558   0.091  12.440  0.2899  0.7074  0.4735
 2126TIP3    H127869   3.597   0.179  12.433 -1.2003  1.4617  1.2544
 2126TIP3    H227870   3.634   0.032  12.441  1.3433  1.9930  0.2826
 2127TIP3   OH227871   2.386   5.548   3.385  0.4443 -0.0512  0.0655
 2127TIP3    H127872   2.313   5.552   3.446  0.8955 -0.1988  0.6279
 2127TIP3    H227873   2.385   5.633   3.341  0.0805  0.0355  0.2362
 2128TIP3   OH227874   4.922   5.911  11.751  0.2438 -0.2408  0.5838
 2128TIP3    H127875   4.882   5.960  11.678  1.4338 -1.0481 -0.6491
 2128TIP3    H227876   4.852   5.903  11.815 -0.8520  0.4791 -0.4762
 2129TIP3   OH227877   3.404   2.223   6.040  0.4889  0.3865 -0.3067
 2129TIP3    H127878   3.463   2.165   6.089  0.3536 -1.7293 -2.4432
 2129TIP3    H227879   3.448   2.308   6.041  1.9001 -0.3053  0.9826
 2130TIP3   OH227880   6.137   2.755   5.308 -0.2372  0.1331  0.0448
 2130TIP3    H127881   6.055   2.712   5.282  0.2090 -1.1204  0.6378
 2130TIP3    H227882   6.150   2.729   5.399  0.0420  1.5834  0.4505
 2131TIP3   OH227883   1.005   4.502   0.005  0.3747  0.6396 -0.3334
 2131TIP3    H127884   0.991   4.407   0.008  1.6404  0.4450 -0.0044
 2131TIP3    H227885   0.946   4.533  -0.065 -0.0622 -0.3789 -0.4332
 2132TIP3   OH227886   5.628   5.809  14.964 -0.3942  0.4486  0.0848
 2132TIP3    H127887   5.671   5.764  15.036  2.3849  1.1194 -1.0129
 2132TIP3    H227888   5.537   5.779  14.967  0.2454 -1.5240  2.2351
 2133TIP3   OH227889   1.970   2.758   5.845  0.8186  0.1057 -0.3039
 2133TIP3    H127890   2.064   2.740   5.856  0.7852  0.7689  1.2748
 2133TIP3    H227891   1.934   2.755   5.934 -0.2524  2.0420 -0.6147
 2134TIP3   OH227892   0.980   1.580   0.308 -0.1901 -0.3866  0.0685
 2134TIP3    H127893   0.940   1.667   0.311 -0.9252 -0.7360  0.7849
 2134TIP3    H227894   1.059   1.591   0.255  0.1268  0.8727  0.7947
 2135TIP3   OH227895   0.752   1.786  16.516  0.1814 -0.0372  0.2736
 2135TIP3    H127896   0.799   1.703  16.511 -0.0054 -0.3243  2.2142
 2135TIP3    H227897   0.713   1.798  16.430 -1.2877 -2.8834  0.4298
 2136TIP3   OH227898   2.783   3.273  12.953  0.4401 -0.0433 -0.7307
 2136TIP3    H127899   2.778   3.358  12.997 -0.8478  0.4687 -1.7895
 2136TIP3    H227900   2.876   3.261  12.934  0.5640  1.4628 -1.1696
 2137TIP3   OH227901   4.291   4.036   1.423  0.0501 -0.4423  0.1921
 2137TIP3    H127902   4.273   3.998   1.337  2.9306 -1.8883  0.1306
 2137TIP3    H227903   4.263   4.127   1.415  1.6524 -0.1001 -2.8479
 2138TIP3   OH227904   2.258   2.748   4.747  0.4188  0.2060  0.5130
 2138TIP3    H127905   2.286   2.815   4.685  0.4172 -0.0533  0.2291
 2138TIP3    H227906   2.164   2.765   4.759  0.5783  0.7382  1.0486
 2139TIP3   OH227907   5.337   5.611   5.796  0.0318  0.3864 -0.1377
 2139TIP3    H127908   5.303   5.591   5.883 -1.3311  0.5920 -0.5904
 2139TIP3    H227909   5.267   5.585   5.736  0.6893  0.8186 -1.1358
 2140TIP3   OH227910   1.452   3.189   5.257  0.5019  0.1552  0.4473
 2140TIP3    H127911   1.488   3.170   5.171 -0.0176  0.2962  0.1906
 2140TIP3    H227912   1.503   3.136   5.318 -0.2686 -1.3079 -0.1432
 2141TIP3   OH227913   1.980   2.914   6.230  0.0291 -0.1216 -0.4105
 2141TIP3    H127914   1.948   2.835   6.186 -0.7646 -1.5091  2.4001
 2141TIP3    H227915   2.071   2.894   6.253  0.6462  0.8476 -1.8617
 2142TIP3   OH227916   6.468   1.462   4.497 -0.1798  0.6458  0.2848
 2142TIP3    H127917   6.462   1.411   4.578 -1.3456 -0.0110 -0.1931
 2142TIP3    H227918   6.409   1.536   4.510  0.8540  1.4305  0.6392
 2143TIP3   OH227919   0.688   5.842  15.228  0.2521 -0.2807 -0.2280
 2143TIP3    H127920   0.692   5.747  15.239  0.3733 -0.2596 -0.0953
 2143TIP3    H227921   0.766   5.864  15.177  0.1697 -0.2639 -0.3493
 2144TIP3   OH227922   5.323   5.826   6.074 -0.1724  0.0491  0.5696
 2144TIP3    H127923   5.407   5.830   6.029  0.5161 -0.5656  1.7741
 2144TIP3    H227924   5.296   5.734   6.067 -0.1467 -0.0129  1.2537
 2145TIP3   OH227925   0.698   0.298  11.477 -0.2784  0.4464  0.3162
 2145TIP3    H127926   0.610   0.325  11.452 -0.5935 -2.4209 -2.3242
 2145TIP3    H227927   0.741   0.278  11.394  2.6136  0.9344  1.5876
 2146TIP3   OH227928   1.158   2.746   1.228 -0.1435 -0.3279  0.1641
 2146TIP3    H127929   1.079   2.729   1.279  0.0974  1.5197  1.2112
 2146TIP3    H227930   1.184   2.835   1.251  2.0096 -0.7208 -0.4810
 2147TIP3   OH227931   3.018   5.258  13.917  0.3322 -0.0754 -0.0633
 2147TIP3    H127932   3.061   5.325  13.864  0.3347 -0.3515 -0.4058
 2147TIP3    H227933   3.085   5.233  13.982  0.4374  0.0279 -0.1307
 2148TIP3   OH227934   5.038   5.195   0.834  0.4284  0.0893 -0.4105
 2148TIP3    H127935   5.106   5.144   0.877 -0.4874 -0.5402  0.3549
 2148TIP3    H227936   5.085   5.255   0.776  1.7163  0.8446  1.3237
 2149TIP3   OH227937   1.939   1.024   2.357 -0.2985 -0.1672  0.2504
 2149TIP3    H127938   1.912   1.010   2.448  1.6570  1.8920  1.2374
 2149TIP3    H227939   1.903   1.110   2.335  0.6766  0.1113 -0.3104
 2150TIP3   OH227940   4.610   1.475  16.032  0.2143  0.1955 -0.2663
 2150TIP3    H127941   4.626   1.569  16.023 -0.7143  0.3756 -0.1822
 2150TIP3    H227942   4.690   1.440  16.070  0.3736  1.0431  0.2009
 2151TIP3   OH227943   2.578   5.300  14.385  0.0528  0.1714 -0.4016
 2151TIP3    H127944   2.550   5.332  14.471  1.1334 -0.8583  0.3716
 2151TIP3    H227945   2.631   5.371  14.349  1.7897 -0.3409  0.9623
 2152TIP3   OH227946   4.275   3.995  11.685  0.0233 -0.3307 -0.3675
 2152TIP3    H127947   4.183   3.981  11.660  0.2072  0.4872 -1.5730
 2152TIP3    H227948   4.319   3.915  11.658 -0.3212 -0.6995  0.1489
 2153TIP3   OH227949   4.894   2.312  13.540  0.3481 -0.1866 -0.6917
 2153TIP3    H127950   4.958   2.268  13.596  0.5011 -1.9694 -2.1892
 2153TIP3    H227951   4.813   2.262  13.552 -0.1246  0.5761 -0.6383
 2154TIP3   OH227952   0.245   4.758   5.182 -0.2795  0.2565  0.2281
 2154TIP3    H127953   0.308   4.714   5.239  0.3631  0.2018 -0.5047
 2154TIP3    H227954   0.210   4.687   5.127 -0.1710  0.4583 -0.1029
 2155TIP3   OH227955   4.092   1.935  13.101 -0.2985  0.4511  0.1840
 2155TIP3    H127956   4.014   1.900  13.142  0.2212 -0.0600  0.7460
 2155TIP3    H227957   4.124   1.865  13.044 -0.0471  0.5241  0.2315
 2156TIP3   OH227958   6.444   2.389  14.721 -0.1292 -0.1396 -0.2182
 2156TIP3    H127959   6.374   2.417  14.780  0.7064 -0.2310  0.8467
 2156TIP3    H227960   6.481   2.471  14.688  1.2922  0.0508  1.6825
 2157TIP3   OH227961   4.727   1.544  11.841 -0.1009 -0.1365 -0.0098
 2157TIP3    H127962   4.694   1.625  11.881 -2.7788 -0.4016 -1.4320
 2157TIP3    H227963   4.694   1.475  11.897  1.2713 -0.3302  0.5990
 2158TIP3   OH227964   0.002   6.825   1.611 -0.7314 -0.0830 -0.0545
 2158TIP3    H127965   0.023   6.896   1.671  4.3085 -1.2685  0.0485
 2158TIP3    H227966  -0.024   6.753   1.668  0.1280 -0.0260  0.4388
 2159TIP3   OH227967   3.397   1.411   6.232  0.0258 -0.2421 -0.4731
 2159TIP3    H127968   3.336   1.430   6.161 -0.2234  0.0999 -0.1696
 2159TIP3    H227969   3.410   1.495   6.277  0.0354 -0.4878 -0.0052
 2160TIP3   OH227970   5.207   5.788   1.801 -0.0078  0.5188 -0.4483
 2160TIP3    H127971   5.264   5.862   1.822  0.2844  0.1425  0.1298
 2160TIP3    H227972   5.250   5.713   1.842  0.9813 -0.4165 -3.0352
 2161TIP3   OH227973   4.226   4.964   5.863  0.7206  0.4152 -0.7196
 2161TIP3    H127974   4.251   4.934   5.950  0.6148  2.8810  0.2565
 2161TIP3    H227975   4.190   4.887   5.820 -0.2099 -0.6702  1.7953
 2162TIP3   OH227976   0.362   3.754  16.880  0.0342  0.1095  0.0626
 2162TIP3    H127977   0.443   3.728  16.923  0.3289  0.1152 -0.4808
 2162TIP3    H227978   0.380   3.745  16.786 -0.6238  0.0065 -0.0634
 2163TIP3   OH227979   2.684   2.514  14.091 -0.0766  0.2121  0.6151
 2163TIP3    H127980   2.682   2.519  14.187  0.8929  0.7430  0.6296
 2163TIP3    H227981   2.773   2.541  14.068  0.3943 -1.9436 -0.3269
 2164TIP3   OH227982   4.362   1.790   0.908  0.3433 -0.1426 -0.0562
 2164TIP3    H127983   4.292   1.807   0.971  0.5607 -1.1596  0.4919
 2164TIP3    H227984   4.442   1.809   0.956  0.4487  1.6972 -0.9030
 2165TIP3   OH227985   1.741   0.409  15.990  0.3466  0.0259 -0.1656
 2165TIP3    H127986   1.796   0.352  15.936  2.0640  2.7308 -1.5245
 2165TIP3    H227987   1.684   0.454  15.927 -0.8575 -0.0607  0.8278
 2166TIP3   OH227988   6.114   6.385   5.725 -0.4377  0.2041  0.1364
 2166TIP3    H127989   6.098   6.295   5.696  1.1291 -0.2747  0.7137
 2166TIP3    H227990   6.116   6.380   5.820  0.9524  0.5974  0.1497
 2167TIP3   OH227991   2.030   5.606  14.968 -0.6001  0.3592  0.6830
 2167TIP3    H127992   1.976   5.543  15.015  0.0979 -0.2597  0.6690
 2167TIP3    H227993   2.031   5.576  14.877 -0.5936  0.6155  0.5962
 2168TIP3   OH227994   2.698   0.268  16.035 -0.4077 -0.1403  0.2052
 2168TIP3    H127995   2.716   0.191  16.088  0.4602  0.0492  0.1995
 2168TIP3    H227996   2.623   0.310  16.077 -0.5010 -0.6615  0.5564
 2169TIP3   OH227997   0.746   6.274  15.033  0.1323  0.3477  0.1060
 2169TIP3    H127998   0.722   6.335  14.962 -1.4022  1.9695  1.8899
 2169TIP3    H227999   0.830   6.307  15.065  0.5070  0.0124 -0.5142
 2170TIP3   OH228000   5.074   4.270   5.707  0.0384  0.1590 -0.0840
 2170TIP3    H128001   5.098   4.355   5.670 -0.4411  0.6477  0.7025
 2170TIP3    H228002   5.151   4.244   5.756  0.4765 -0.2392 -0.9538
 2171TIP3   OH228003   1.392   0.672   4.860  0.3114  0.0151  0.3906
 2171TIP3    H128004   1.416   0.657   4.769  0.1028  0.9561  0.1716
 2171TIP3    H228005   1.443   0.749   4.886 -1.6638  1.4530  0.2092
 2172TIP3   OH228006   3.273   6.470  13.006  0.2281 -0.3901  0.1106
 2172TIP3    H128007   3.210   6.510  13.065  1.9041  0.8428  1.1448
 2172TIP3    H228008   3.304   6.543  12.951  0.6252 -1.0062 -0.5028
 2173TIP3   OH228009   0.304   0.374   0.728  0.2539 -0.2741 -0.0772
 2173TIP3    H128010   0.245   0.357   0.802  0.4165 -0.5877 -0.0177
 2173TIP3    H228011   0.247   0.403   0.657  0.0690 -0.2195  0.0934
 2174TIP3   OH228012   6.713   4.289  15.848 -0.5486  0.6822 -0.0347
 2174TIP3    H128013   6.783   4.294  15.783  0.6443  1.6599  1.2690
 2174TIP3    H228014   6.680   4.379  15.854  0.2275  0.9006  1.5824
 2175TIP3   OH228015   0.557   6.071   0.089 -0.6090 -0.1769  0.0387
 2175TIP3    H128016   0.617   6.080   0.162  1.1091  0.7454 -1.4134
 2175TIP3    H228017   0.476   6.113   0.118  0.0977  0.3131  1.3223
 2176TIP3   OH228018   4.612   0.928   0.437 -0.9190  0.3619  0.4446
 2176TIP3    H128019   4.558   0.970   0.369  0.4042  1.4098 -0.0063
 2176TIP3    H228020   4.691   0.982   0.441  0.8888 -2.0789 -0.1214
 2177TIP3   OH228021   3.281   6.461  16.458  0.5376  0.1583 -0.2908
 2177TIP3    H128022   3.332   6.445  16.537 -1.3318 -0.4924  0.8727
 2177TIP3    H228023   3.260   6.554  16.461  0.2455  0.0833  0.1546
 2178TIP3   OH228024   4.321   4.618  14.690 -0.2778  0.0875  0.1955
 2178TIP3    H128025   4.256   4.687  14.694 -1.0987 -0.6629  0.1420
 2178TIP3    H228026   4.293   4.562  14.617  1.1866  0.4825 -0.7270
 2179TIP3   OH228027   1.988   3.318   2.274 -0.7936 -1.1766  0.1749
 2179TIP3    H128028   1.964   3.324   2.181 -0.1477  1.1422  0.0969
 2179TIP3    H228029   1.924   3.257   2.311 -1.7773 -1.2879 -1.5730
 2180TIP3   OH228030   2.577   6.157   0.034 -0.9986 -0.4830  0.4448
 2180TIP3    H128031   2.494   6.200   0.012 -0.0462  1.7774  0.9066
 2180TIP3    H228032   2.625   6.224   0.084  0.8015 -1.9904  0.8266
 2181TIP3   OH228033   6.334   6.192   1.718  0.8766 -0.1874  0.3188
 2181TIP3    H128034   6.342   6.175   1.624 -1.8754 -0.6866  0.0820
 2181TIP3    H228035   6.334   6.288   1.724 -3.4077  0.1183 -0.9063
 2182TIP3   OH228036   0.392   6.375  10.814 -0.0602 -0.5114 -0.3640
 2182TIP3    H128037   0.481   6.398  10.841 -0.4866  1.5398 -0.5314
 2182TIP3    H228038   0.403   6.329  10.731  0.8632 -0.7910 -0.0999
 2183TIP3   OH228039   0.657   0.740  11.197 -0.2365 -0.2963  0.5001
 2183TIP3    H128040   0.674   0.809  11.132  1.0292  1.1162  2.2361
 2183TIP3    H228041   0.650   0.660  11.145 -0.1870  0.8921 -1.4506
 2184TIP3   OH228042   4.306   5.382  17.209 -0.2080 -0.4051 -0.2923
 2184TIP3    H128043   4.345   5.454  17.260  1.4039 -1.6849  0.3642
 2184TIP3    H228044   4.222   5.365  17.252  0.6324 -0.7193  1.2948
 2185TIP3   OH228045   2.148   1.924  17.032 -0.3146 -0.3340 -0.3252
 2185TIP3    H128046   2.072   1.866  17.027  0.5369 -1.4370 -0.7635
 2185TIP3    H228047   2.195   1.895  17.111 -0.9683  1.1487  0.6465
 2186TIP3   OH228048   6.119   3.828  10.640  0.3937 -0.0899 -0.1488
 2186TIP3    H128049   6.061   3.753  10.630  1.8449 -1.0904 -1.7503
 2186TIP3    H228050   6.199   3.792  10.676  1.6173  0.3472 -2.2391
 2187TIP3   OH228051   0.331   0.803   3.382  0.1257  0.1622 -0.0778
 2187TIP3    H128052   0.314   0.835   3.293  0.5801  1.2252  0.2066
 2187TIP3    H228053   0.407   0.746   3.373 -0.9938 -1.3030 -0.6727
 2188TIP3   OH228054   2.113   5.640  16.217  0.2688  0.7903  0.0847
 2188TIP3    H128055   2.176   5.591  16.163  0.7802 -0.0113  1.3571
 2188TIP3    H228056   2.028   5.623  16.176  0.3193 -1.8466  0.9044
 2189TIP3   OH228057   5.384   4.343   1.900  0.2105  0.0068 -0.1834
 2189TIP3    H128058   5.407   4.408   1.966 -0.0613  0.2886 -0.3606
 2189TIP3    H228059   5.292   4.362   1.879 -0.3416 -1.3545  0.8137
 2190TIP3   OH228060   1.767   2.879  15.333  0.0369 -0.7922 -0.5259
 2190TIP3    H128061   1.816   2.957  15.359  3.2185 -2.7813  0.0342
 2190TIP3    H228062   1.675   2.901  15.350  0.4717  3.5578 -2.5432
 2191TIP3   OH228063   6.747   6.282   3.683 -0.2198  0.2515 -0.1221
 2191TIP3    H128064   6.833   6.261   3.721  0.4007  1.1573 -0.9612
 2191TIP3    H228065   6.766   6.352   3.621 -1.5883  0.4780 -0.3012
 2192TIP3   OH228066   1.858   1.796   1.077  0.1768  0.2735 -0.1397
 2192TIP3    H128067   1.935   1.743   1.056 -0.8237 -1.4616  0.3326
 2192TIP3    H228068   1.880   1.839   1.159 -0.3807 -2.6253  1.6738
 2193TIP3   OH228069   1.118   5.615  17.285  1.3744 -0.5424 -0.5406
 2193TIP3    H128070   1.062   5.538  17.287 -0.1190  0.4799 -1.2442
 2193TIP3    H228071   1.090   5.663  17.207 -0.1491  2.3983  1.6297
 2194TIP3   OH228072   0.770   3.876  16.267 -0.2826 -0.0539 -0.1661
 2194TIP3    H128073   0.745   3.817  16.196 -0.1630 -0.4226  0.1037
 2194TIP3    H228074   0.847   3.923  16.233  0.2821 -0.8206  0.0332
 2195TIP3   OH228075   3.927   6.199  16.321 -0.0916 -0.0738  0.3325
 2195TIP3    H128076   3.991   6.164  16.383 -0.0302 -0.0407  0.2893
 2195TIP3    H228077   3.844   6.160  16.347 -0.3642  1.1683  1.4127
 2196TIP3   OH228078   3.814   3.916   4.284 -0.3343  0.3837  0.0812
 2196TIP3    H128079   3.802   3.860   4.207 -0.7949  1.0117 -0.3216
 2196TIP3    H228080   3.904   3.947   4.277  0.1658 -0.8681  0.7069
 2197TIP3   OH228081   1.586   0.032   5.742  0.6387 -0.2007 -0.2394
 2197TIP3    H128082   1.545  -0.043   5.785 -0.2172 -0.1852 -1.0195
 2197TIP3    H228083   1.651   0.062   5.806 -0.8358  0.0427  1.2088
 2198TIP3   OH228084   6.343   6.763  12.063 -0.2068 -0.3718 -0.4810
 2198TIP3    H128085   6.438   6.763  12.070  0.0701 -2.2053 -2.7268
 2198TIP3    H228086   6.315   6.841  12.111  2.3035 -0.3781  1.1965
 2199TIP3   OH228087   4.099   4.456  10.477 -0.1026  0.2952 -0.1932
 2199TIP3    H128088   4.060   4.368  10.473 -0.0484  0.2798 -0.4034
 2199TIP3    H228089   4.165   4.456  10.408 -0.1001  0.5008 -0.1911
 2200TIP3   OH228090   6.282   1.583   1.966 -0.5231 -0.6259 -0.0801
 2200TIP3    H128091   6.356   1.562   2.023 -0.3772 -1.8055 -0.6731
 2200TIP3    H228092   6.293   1.526   1.890 -1.7691 -0.4647 -0.4072
 2201TIP3   OH228093   5.131   2.845   3.973  0.1017 -0.4136 -0.4049
 2201TIP3    H128094   5.108   2.754   3.987 -0.5894 -0.0727  0.8301
 2201TIP3    H228095   5.215   2.856   4.020 -1.3410  0.2924  2.2418
 2202TIP3   OH228096   3.170   0.076  12.695  0.2703  0.3123 -0.1911
 2202TIP3    H128097   3.211   0.049  12.777 -0.3618  0.7641  0.2808
 2202TIP3    H228098   3.190   0.005  12.633 -1.5194 -1.3575  1.0465
 2203TIP3   OH228099   4.898   3.746   3.439  0.3948  0.1545 -0.7507
 2203TIP3    H128100   4.973   3.767   3.494  0.8459  0.3807 -1.4418
 2203TIP3    H228101   4.866   3.663   3.473  0.3352  0.5465  0.1914
 2204TIP3   OH228102   0.228   1.606  11.722 -0.3492  0.0221  0.6559
 2204TIP3    H128103   0.137   1.588  11.746 -0.5005 -0.5689 -0.3353
 2204TIP3    H228104   0.226   1.692  11.681 -0.5335 -0.1670  0.2635
 2205TIP3   OH228105   0.592   5.227  12.778  0.8107 -0.2834  0.6586
 2205TIP3    H128106   0.595   5.294  12.847  0.7984 -0.0750  0.4578
 2205TIP3    H228107   0.675   5.181  12.787  1.1446  0.2339  0.3339
 2206TIP3   OH228108   6.419   0.635  16.062 -0.6405 -0.9443 -0.3210
 2206TIP3    H128109   6.475   0.712  16.077  0.0417 -1.4334 -0.3385
 2206TIP3    H228110   6.471   0.561  16.094 -0.1680 -1.7333 -2.7349
 2207TIP3   OH228111   0.513   0.199  15.676  0.6202  0.7469 -0.5245
 2207TIP3    H128112   0.542   0.213  15.766  2.1683  1.1245 -1.0358
 2207TIP3    H228113   0.520   0.285  15.635  0.4813  0.4707 -1.1420
 2208TIP3   OH228114   3.234   0.830   0.389 -0.0415  0.1439 -0.1329
 2208TIP3    H128115   3.264   0.861   0.475 -1.9983 -0.1430  0.6992
 2208TIP3    H228116   3.306   0.775   0.358  1.7964  2.2356  0.1461
 2209TIP3   OH228117   0.808   6.399  16.078  0.4364 -0.1425  0.3058
 2209TIP3    H128118   0.814   6.303  16.081 -1.3324 -0.3212 -0.5819
 2209TIP3    H228119   0.889   6.426  16.034  0.7368 -1.2630  0.1189
 2210TIP3   OH228120   1.431   4.162   1.889 -0.0168  0.5681 -0.8136
 2210TIP3    H128121   1.444   4.190   1.980  1.3509 -0.6238 -0.5988
 2210TIP3    H228122   1.365   4.222   1.855 -1.8038  0.0512  1.4421
 2211TIP3   OH228123   0.391   3.694   3.799  0.4574 -0.0596 -0.1219
 2211TIP3    H128124   0.420   3.784   3.784  1.7116 -0.0487  1.9688
 2211TIP3    H228125   0.471   3.647   3.824 -0.3404 -1.5543 -0.2805
 2212TIP3   OH228126   2.950   0.550   5.333 -0.3823  0.1445 -0.6249
 2212TIP3    H128127   2.942   0.629   5.279  0.6064  0.9349  0.3465
 2212TIP3    H228128   3.034   0.513   5.309 -0.1348  0.2574  0.0484
 2213TIP3   OH228129   3.160   0.915  16.497 -0.2831 -0.2066  0.5204
 2213TIP3    H128130   3.229   0.849  16.508 -0.7438 -0.5948  1.1407
 2213TIP3    H228131   3.115   0.889  16.416 -0.1684 -0.3756  0.5095
 2214TIP3   OH228132   0.276   4.334  12.315  0.3997  0.1226  0.4190
 2214TIP3    H128133   0.209   4.391  12.353  1.0322  1.3815 -0.2890
 2214TIP3    H228134   0.355   4.388  12.313  0.8777 -0.5809 -0.8153
 2215TIP3   OH228135   3.038   5.577  13.997 -0.1498  0.0231  0.4795
 2215TIP3    H128136   3.115   5.625  14.029 -0.6087  1.3405 -0.3095
 2215TIP3    H228137   3.050   5.573  13.902  0.1240 -1.9455  0.5433
 2216TIP3   OH228138   6.151   3.795   0.303 -0.1738  0.2490  0.2317
 2216TIP3    H128139   6.172   3.837   0.387 -3.3591  1.1071  0.7514
 2216TIP3    H228140   6.159   3.702   0.320  0.2193  0.4435  1.2080
 2217TIP3   OH228141   2.330   6.524   5.652 -0.0249 -0.4424 -0.2482
 2217TIP3    H128142   2.240   6.508   5.681 -0.2032 -0.9438 -1.0224
 2217TIP3    H228143   2.383   6.516   5.731 -0.6788 -0.0075  0.2393
 2218TIP3   OH228144   1.450   2.531   3.518  0.4552  0.4084 -0.3905
 2218TIP3    H128145   1.360   2.497   3.526  0.8900 -0.5089  1.2588
 2218TIP3    H228146   1.448   2.586   3.440 -0.5995 -2.5426 -2.6667
 2219TIP3   OH228147   3.539   0.973  11.552 -0.5117 -0.3106  0.3480
 2219TIP3    H128148   3.479   0.918  11.603 -1.9322  1.4785  0.6963
 2219TIP3    H228149   3.540   0.933  11.465  0.0743 -2.0173  1.0994
 2220TIP3   OH228150   2.357   2.602   0.779 -0.1130  0.9124 -0.6366
 2220TIP3    H128151   2.265   2.621   0.763  0.1602  1.2635 -1.9002
 2220TIP3    H228152   2.363   2.507   0.775 -0.1137  0.9601 -2.4982
 2221TIP3   OH228153   1.080   6.386  12.243 -0.3166 -0.5356 -0.1110
 2221TIP3    H128154   1.165   6.343  12.239 -0.4756 -0.8182 -0.4401
 2221TIP3    H228155   1.087   6.459  12.181  0.0082  0.0246  0.5646
 2222TIP3   OH228156   5.074   0.655  13.871 -0.3770  0.1390  0.4207
 2222TIP3    H128157   5.128   0.668  13.950  0.3259 -0.1756 -0.0040
 2222TIP3    H228158   5.113   0.713  13.806  1.3894 -2.2810 -0.8240
 2223TIP3   OH228159   5.743   3.721   1.721 -0.3529 -0.3423 -0.1389
 2223TIP3    H128160   5.674   3.661   1.749 -1.0958  1.7184  2.9936
 2223TIP3    H228161   5.824   3.681   1.754 -0.3570 -1.3034 -1.2230
 2224TIP3   OH228162   2.528   2.677   3.266  0.6089 -0.6054 -0.0579
 2224TIP3    H128163   2.591   2.723   3.210 -0.1441  0.6495  0.0928
 2224TIP3    H228164   2.578   2.654   3.344  1.2061 -0.8001 -0.4815
 2225TIP3   OH228165   2.670   5.675   3.494  0.2620 -0.3672  0.0816
 2225TIP3    H128166   2.669   5.615   3.419 -0.0489  1.0746 -1.1115
 2225TIP3    H228167   2.582   5.668   3.532  0.2440 -0.6986 -0.0212
 2226TIP3   OH228168   0.103   2.753  14.476  0.1641 -0.4014  0.4350
 2226TIP3    H128169   0.151   2.828  14.510  0.9960 -1.0652  0.7840
 2226TIP3    H228170   0.105   2.689  14.548 -0.4539 -0.7842  0.1199
 2227TIP3   OH228171   4.402   4.090   5.767 -0.3644  0.3714  0.2108
 2227TIP3    H128172   4.337   4.136   5.714  0.4225 -0.7259 -1.8280
 2227TIP3    H228173   4.399   3.999   5.736  1.0466 -0.0423  1.1424
 2228TIP3   OH228174   3.302   6.570   2.668 -0.0282 -0.2798 -0.1717
 2228TIP3    H128175   3.390   6.535   2.684 -0.0359  0.5084  1.8868
 2228TIP3    H228176   3.316   6.646   2.612  0.6124 -0.1026  0.2219
 2229TIP3   OH228177   0.706   0.837  15.135 -0.5159 -0.4617 -0.2018
 2229TIP3    H128178   0.761   0.786  15.196 -0.9409  0.5016  1.0351
 2229TIP3    H228179   0.667   0.905  15.190 -0.7669  0.5749 -1.6159
 2230TIP3   OH228180   0.739   6.641  13.975 -0.2061 -0.4607 -0.2067
 2230TIP3    H128181   0.664   6.658  13.918  0.3375 -1.5328 -1.2864
 2230TIP3    H228182   0.705   6.584  14.044 -0.6810  0.1925  0.1137
 2231TIP3   OH228183   1.266   4.792  16.186 -0.2708 -0.1502  0.1502
 2231TIP3    H128184   1.314   4.712  16.165  0.8044  0.8848 -1.5809
 2231TIP3    H228185   1.322   4.863  16.155 -0.1163  1.4704  3.6701
 2232TIP3   OH228186   3.416   0.209  15.665  0.1257  0.2793  0.1482
 2232TIP3    H128187   3.364   0.160  15.729  1.4651  0.6989  1.6236
 2232TIP3    H228188   3.355   0.226  15.593 -1.3641 -0.4582  1.1703
 2233TIP3   OH228189   0.866   6.485  12.005  0.1082 -0.9833 -0.2559
 2233TIP3    H128190   0.857   6.402  12.052  1.1891 -0.7810  0.3391
 2233TIP3    H228191   0.947   6.476  11.955  0.5882 -0.0553  0.3216
 2234TIP3   OH228192   5.510   4.451  16.697 -0.1361 -0.2745 -0.1327
 2234TIP3    H128193   5.603   4.440  16.674 -0.1107 -1.2494  0.3883
 2234TIP3    H228194   5.510   4.459  16.792 -0.6557 -1.0977 -0.0568
 2235TIP3   OH228195   6.024   1.029  12.135  0.3067 -0.1546  0.1018
 2235TIP3    H128196   5.999   0.941  12.163 -0.0964 -0.4845 -1.2266
 2235TIP3    H228197   5.950   1.084  12.160 -0.3740 -0.5732 -0.9231
 2236TIP3   OH228198   6.795   5.044   5.914  0.5174 -0.0106 -0.7551
 2236TIP3    H128199   6.741   4.998   5.850 -1.9416  0.7237  0.6521
 2236TIP3    H228200   6.749   5.033   5.997  2.0881  1.4067  0.3782
 2237TIP3   OH228201   6.625   5.296   2.635 -0.6274  0.2199 -0.0627
 2237TIP3    H128202   6.679   5.265   2.708  0.8834  1.0316 -0.8046
 2237TIP3    H228203   6.548   5.335   2.678  0.4395  1.0721  1.1392
 2238TIP3   OH228204   1.392   2.513   4.061  0.2091  0.5000 -0.0529
 2238TIP3    H128205   1.373   2.428   4.100 -0.3788  1.0876  0.9706
 2238TIP3    H228206   1.478   2.537   4.096  1.5710 -0.7273 -2.2428
 2239TIP3   OH228207   5.347   4.126   2.232  0.3809 -0.1008 -0.3353
 2239TIP3    H128208   5.320   4.053   2.177 -0.1683 -0.4950  0.4291
 2239TIP3    H228209   5.355   4.088   2.320  0.8569  0.5911 -0.0664
 2240TIP3   OH228210   0.043   5.465   3.768 -0.1069  1.1456 -0.3172
 2240TIP3    H128211   0.060   5.527   3.697  1.7119  1.2366  0.1551
 2240TIP3    H228212   0.120   5.472   3.825 -0.7448 -0.1699  0.7589
 2241TIP3   OH228213   1.616   1.647   3.302  0.0428 -0.3928 -0.1032
 2241TIP3    H128214   1.696   1.699   3.317  1.0847 -1.7162 -0.8653
 2241TIP3    H228215   1.575   1.641   3.388  0.3520  0.9549  0.1649
 2242TIP3   OH228216   1.192   3.678  15.492 -0.0726 -0.8760  0.4183
 2242TIP3    H128217   1.184   3.603  15.433  0.8839  0.0795 -0.9881
 2242TIP3    H228218   1.271   3.724  15.462 -0.7826  0.8445  1.0487
 2243TIP3   OH228219   0.403   0.937  12.323  0.4599 -1.0162 -0.0609
 2243TIP3    H128220   0.359   0.972  12.246  1.1970  0.2901  0.0737
 2243TIP3    H228221   0.333   0.898  12.376 -0.7081  1.6142  0.4937
 2244TIP3   OH228222   2.941   0.421   0.780  0.0855  0.8999  0.0943
 2244TIP3    H128223   2.876   0.378   0.726  0.3427 -0.1008  0.5694
 2244TIP3    H228224   3.022   0.372   0.764 -0.0987 -0.2293  2.3183
 2245TIP3   OH228225   0.110   0.856  15.458 -0.7876  0.4773  0.1249
 2245TIP3    H128226   0.148   0.939  15.487 -1.6926  0.8657  0.2426
 2245TIP3    H228227   0.017   0.863  15.480 -0.4665 -1.6856  2.8093
 2246TIP3   OH228228   4.717   1.959   4.281 -0.4486  0.0578 -0.2520
 2246TIP3    H128229   4.738   1.932   4.370  0.4479 -2.2857 -1.0824
 2246TIP3    H228230   4.799   1.948   4.232 -0.2709  3.4654 -0.9978
 2247TIP3   OH228231   3.459   2.697  14.851  0.4282  0.5676  0.0234
 2247TIP3    H128232   3.487   2.657  14.933  1.5669  1.3852  0.0647
 2247TIP3    H228233   3.368   2.669  14.840  0.5836 -0.3913  1.0297
 2248TIP3   OH228234   1.951   1.747   2.265  0.3992 -0.2845 -0.4899
 2248TIP3    H128235   1.857   1.759   2.253  0.8398  1.7009 -2.7937
 2248TIP3    H228236   1.983   1.834   2.292  1.4869 -1.1947  1.3522
 2249TIP3   OH228237   2.599   1.861   2.615  0.7287 -0.1696 -0.4021
 2249TIP3    H128238   2.619   1.814   2.695 -0.2072 -1.8614 -1.1073
 2249TIP3    H228239   2.673   1.842   2.557 -0.6053 -2.6949 -1.4391
 2250TIP3   OH228240   2.717   3.383  15.825  0.0976  0.8615  0.2633
 2250TIP3    H128241   2.741   3.354  15.913 -0.7508 -0.5594  0.0488
 2250TIP3    H228242   2.800   3.414  15.787  1.0638 -1.2077  0.5516
 2251TIP3   OH228243   5.325   6.210  12.375  0.0172  0.4198  0.4493
 2251TIP3    H128244   5.347   6.232  12.284 -0.4754 -0.7257  0.0266
 2251TIP3    H228245   5.342   6.116  12.381  0.4676  0.5575  1.6805
 2252TIP3   OH228246   3.231   4.258   4.610  0.2692 -0.2107  0.1622
 2252TIP3    H128247   3.221   4.202   4.688 -3.3939 -1.6004 -1.1034
 2252TIP3    H228248   3.174   4.332   4.627  1.3156  0.7158 -0.2641
 2253TIP3   OH228249   5.473   1.885   3.972  0.3112  0.0207  0.0049
 2253TIP3    H128250   5.568   1.879   3.962  0.2600 -1.4565  0.2723
 2253TIP3    H228251   5.438   1.839   3.896 -0.2562  1.9832 -1.0120
 2254TIP3   OH228252   0.383   3.350  13.537 -0.5086  0.4157 -0.1084
 2254TIP3    H128253   0.326   3.278  13.510  0.8448 -0.9581  0.5226
 2254TIP3    H228254   0.325   3.411  13.583 -1.9937  0.5800 -2.0741
 2255TIP3   OH228255   3.636   5.252   4.091  0.2420  0.1762  0.2379
 2255TIP3    H128256   3.730   5.255   4.070  0.5338  1.4058  1.5291
 2255TIP3    H228257   3.634   5.258   4.187 -1.1790  0.7525  0.1848
 2256TIP3   OH228258   2.916   3.581  13.775 -0.3537 -0.2508 -0.8314
 2256TIP3    H128259   2.881   3.549  13.858  0.0678 -1.4907 -1.1093
 2256TIP3    H228260   2.983   3.645  13.800 -2.9429  2.4475 -0.2949
 2257TIP3   OH228261   5.037   5.613   0.721  0.1409 -0.0559  0.7642
 2257TIP3    H128262   4.973   5.672   0.680 -0.2347 -0.4537  0.7726
 2257TIP3    H228263   4.992   5.580   0.799  1.2964  1.6694  2.2313
 2258TIP3   OH228264   3.234   1.394   0.584 -0.5066 -0.7249 -0.3204
 2258TIP3    H128265   3.175   1.338   0.634 -0.8594 -1.3790 -1.4442
 2258TIP3    H228266   3.188   1.478   0.578 -0.5278 -0.6843  0.2956
 2259TIP3   OH228267   3.476   2.219  12.756 -0.3223 -0.3866 -0.3316
 2259TIP3    H128268   3.430   2.281  12.813  0.4636  0.1514 -0.2744
 2259TIP3    H228269   3.415   2.145  12.748 -0.6085 -0.3049  0.8732
 2260TIP3   OH228270   0.428   2.079   5.576  0.3362 -0.7122 -0.6980
 2260TIP3    H128271   0.434   2.173   5.558  0.0246 -0.6809 -0.6376
 2260TIP3    H228272   0.341   2.055   5.546  0.3602 -0.9528 -0.5706
 2261TIP3   OH228273   5.517   5.193  15.163  0.3245 -0.1963  0.0113
 2261TIP3    H128274   5.612   5.186  15.155  0.2992 -0.4992 -0.0378
 2261TIP3    H228275   5.487   5.221  15.077  0.6384  2.9280  0.7963
 2262TIP3   OH228276   6.596   4.845   3.068  0.4514  0.2304  0.5634
 2262TIP3    H128277   6.622   4.757   3.096 -0.8323 -0.1711  0.5796
 2262TIP3    H228278   6.506   4.854   3.100  0.6154  1.6146  0.6849
 2263TIP3   OH228279   1.638   6.566   2.673 -0.2987 -0.5090 -0.1633
 2263TIP3    H128280   1.676   6.545   2.588 -0.4612  0.2413 -0.4305
 2263TIP3    H228281   1.714   6.574   2.731  0.0026  1.1354 -0.7297
 2264TIP3   OH228282   1.399   0.009   2.789  0.1342 -0.5671  0.2305
 2264TIP3    H128283   1.487  -0.024   2.772  0.7266  0.7846  0.5543
 2264TIP3    H228284   1.384  -0.008   2.882  0.7575  0.7291  0.5915
 2265TIP3   OH228285   6.721   4.226   2.765  0.4385  0.3391 -0.5041
 2265TIP3    H128286   6.807   4.250   2.730 -0.2200  0.7741 -1.8932
 2265TIP3    H228287   6.665   4.301   2.747 -0.6865 -0.6542 -1.3467
 2266TIP3   OH228288   0.758   6.014   3.347  0.3254  0.0104  0.2583
 2266TIP3    H128289   0.668   5.986   3.329  1.5133 -3.3086 -1.4023
 2266TIP3    H228290   0.778   6.075   3.276 -0.0580 -0.6797 -0.4574
 2267TIP3   OH228291   3.696   0.412  13.525 -0.0549  0.2975  0.4535
 2267TIP3    H128292   3.665   0.484  13.579  0.2315  0.5899  0.2351
 2267TIP3    H228293   3.616   0.372  13.490 -0.2680 -0.2346  1.5118
 2268TIP3   OH228294   0.095   3.669  12.558  0.0059  0.1093  0.9116
 2268TIP3    H128295   0.028   3.708  12.616 -1.2560  0.5086 -0.7344
 2268TIP3    H228296   0.048   3.653  12.476  1.5697 -1.0942  0.2152
 2269TIP3   OH228297   3.875   3.726   5.364  0.3808 -0.1198 -0.3139
 2269TIP3    H128298   3.829   3.655   5.410  0.2991  0.6290  0.8093
 2269TIP3    H228299   3.963   3.692   5.350  0.1465 -0.7009 -0.4144
 2270TIP3   OH228300   3.857   3.733  12.908  0.0815  0.0672 -0.3276
 2270TIP3    H128301   3.881   3.824  12.925  1.0166 -0.0172 -1.0579
 2270TIP3    H228302   3.832   3.732  12.816 -2.4288  0.0568  0.2979
 2271TIP3   OH228303   2.225   3.988   4.427 -0.2971 -0.4682  0.3117
 2271TIP3    H128304   2.237   4.083   4.432 -0.9847 -0.1591 -2.2722
 2271TIP3    H228305   2.135   3.977   4.397 -0.3887 -1.9789  1.0436
 2272TIP3   OH228306   2.049   4.950   4.037  0.1199 -0.1393  0.0164
 2272TIP3    H128307   2.025   4.875   4.091  1.5194 -1.7755 -1.5376
 2272TIP3    H228308   1.973   4.964   3.981 -1.3418  1.5573  2.2132
 2273TIP3   OH228309   6.230   1.542   4.022  0.3699 -0.1006 -0.9860
 2273TIP3    H128310   6.192   1.457   4.042 -0.4186  0.2672 -0.8830
 2273TIP3    H228311   6.227   1.548   3.926  0.3559 -0.1611 -0.9891
 2274TIP3   OH228312   0.228   0.644  13.153  0.0044 -0.5637 -0.5363
 2274TIP3    H128313   0.293   0.611  13.216  0.1214  0.3463 -0.1450
 2274TIP3    H228314   0.279   0.701  13.095 -0.4833  0.4167 -0.0263
 2275TIP3   OH228315   3.843   6.583  14.468  0.2517  0.0007 -0.3080
 2275TIP3    H128316   3.866   6.497  14.505  0.3643  0.0316 -0.3057
 2275TIP3    H228317   3.911   6.600  14.403 -0.0671 -0.1517 -0.6886
 2276TIP3   OH228318   1.037   0.602   2.865  0.4864  0.5115  0.1696
 2276TIP3    H128319   1.095   0.584   2.791  0.8893  0.2563  0.5372
 2276TIP3    H228320   1.036   0.520   2.914  0.9406  0.9499  0.9290
 2277TIP3   OH228321   0.006   5.483  13.270  0.1492 -0.1663 -0.4948
 2277TIP3    H128322   0.034   5.559  13.218 -0.8483  0.3521 -0.3023
 2277TIP3    H228323  -0.017   5.416  13.205  1.1690 -0.3626 -0.6642
 2278TIP3   OH228324   5.583   0.757  12.868 -0.3613  0.3983  0.2006
 2278TIP3    H128325   5.563   0.691  12.800 -0.3236  1.2222 -0.6267
 2278TIP3    H228326   5.618   0.831  12.819  1.1265  0.4393  1.2823
 2279TIP3   OH228327   2.969   4.020   5.609  0.2631 -0.3188 -0.0324
 2279TIP3    H128328   2.920   4.044   5.530  2.2788 -0.1711 -1.3094
 2279TIP3    H228329   3.029   4.093   5.624  1.2194 -1.1806  0.5186
 2280TIP3   OH228330   2.735   1.760   2.045  0.2155 -0.6723  0.1478
 2280TIP3    H128331   2.664   1.745   2.108 -0.0650  2.6769  0.8120
 2280TIP3    H228332   2.690   1.788   1.965  0.6665  2.1934  0.7929
 2281TIP3   OH228333   5.100   4.357  14.733  0.2057  0.5415 -0.1294
 2281TIP3    H128334   5.177   4.338  14.679 -1.2911 -0.3782 -2.0524
 2281TIP3    H228335   5.096   4.286  14.797  1.3410  1.0117  0.4955
 2282TIP3   OH228336   0.868   0.310   6.017 -0.1309  0.2803 -0.2450
 2282TIP3    H128337   0.931   0.286   6.084  1.6162  0.9426 -1.5630
 2282TIP3    H228338   0.783   0.301   6.059  0.8598 -0.0515  1.7938
 2283TIP3   OH228339   3.980   5.443  13.326  0.3382  0.3244  0.0200
 2283TIP3    H128340   4.025   5.519  13.362 -0.7783  0.9916  0.0398
 2283TIP3    H228341   3.902   5.433  13.381  0.8506 -1.3146  0.5185
 2284TIP3   OH228342   3.485   3.236   3.516 -0.6204  0.0369 -0.3257
 2284TIP3    H128343   3.456   3.286   3.592  0.6548  0.4378 -0.0869
 2284TIP3    H228344   3.537   3.297   3.464 -0.9679 -0.4026 -1.2208
 2285TIP3   OH228345   5.841   1.464   1.759 -0.6870  0.1450 -0.1602
 2285TIP3    H128346   5.771   1.526   1.738  0.9159  2.2239  0.2585
 2285TIP3    H228347   5.876   1.496   1.843 -0.2911 -1.8188  0.4645
 2286TIP3   OH228348   3.852   6.502   5.115 -0.1528  0.0810 -0.4488
 2286TIP3    H128349   3.913   6.429   5.098  1.4334  0.9558  1.1359
 2286TIP3    H228350   3.791   6.500   5.041  1.5487 -1.1197 -1.9161
 2287TIP3   OH228351   1.764   4.609   1.052  0.8606 -0.2025  0.4695
 2287TIP3    H128352   1.750   4.578   1.142 -0.8430 -1.1624 -0.0708
 2287TIP3    H228353   1.820   4.543   1.012  2.9648  1.0350  1.2144
 2288TIP3   OH228354   5.644   0.456  12.143  0.3091  0.0909  0.4102
 2288TIP3    H128355   5.687   0.403  12.076  0.6450 -1.3526  1.7109
 2288TIP3    H228356   5.663   0.546  12.117  0.1485 -0.3863 -1.5950
 2289TIP3   OH228357   2.284   6.358   0.684  0.8885  0.0191  0.0332
 2289TIP3    H128358   2.222   6.318   0.622  0.9428  0.0362 -0.0322
 2289TIP3    H228359   2.255   6.328   0.770 -0.3813  1.5714  0.1906
 2290TIP3   OH228360   3.938   0.488   2.133  0.0194  0.9693  0.0258
 2290TIP3    H128361   3.861   0.434   2.149  0.9268 -0.4218 -0.1463
 2290TIP3    H228362   4.009   0.441   2.176  0.8369  2.0361 -0.1369
 2291TIP3   OH228363   2.479   3.332   1.801 -0.3621  0.2142  0.0771
 2291TIP3    H128364   2.490   3.251   1.750 -3.0488 -1.7562  2.3444
 2291TIP3    H228365   2.437   3.393   1.741  1.8686  0.0880 -1.7415
 2292TIP3   OH228366   6.309   2.534   4.765 -0.3559 -0.1384  0.3001
 2292TIP3    H128367   6.294   2.440   4.758  0.8764 -0.6233  2.9874
 2292TIP3    H228368   6.356   2.557   4.685 -0.2285 -1.9195 -0.1669
 2293TIP3   OH228369   1.541   6.175  13.777  0.2300  0.1453 -0.1276
 2293TIP3    H128370   1.495   6.124  13.844 -0.9989 -0.8499 -1.6637
 2293TIP3    H228371   1.632   6.144  13.782 -0.0115 -0.4870  0.5347
 2294TIP3   OH228372   0.181   1.174   4.821  0.5606  0.6090  0.0136
 2294TIP3    H128373   0.252   1.113   4.838  0.3352  1.0558  3.0575
 2294TIP3    H228374   0.184   1.188   4.726  1.1110 -3.4142 -0.7291
 2295TIP3   OH228375   3.048   4.761  16.802  0.6662  0.4950  0.3801
 2295TIP3    H128376   3.086   4.678  16.776  0.3486  0.4412  0.0768
 2295TIP3    H228377   3.105   4.827  16.764  1.2281  0.4184  1.0850
 2296TIP3   OH228378   2.424   0.157   5.438 -0.2897 -0.1729  0.2206
 2296TIP3    H128379   2.396   0.083   5.492 -0.2087 -0.2459  0.1616
 2296TIP3    H228380   2.481   0.208   5.495  0.6866 -0.8321 -0.1394
 2297TIP3   OH228381   3.750   6.298   6.465  0.2439  0.0687 -0.2277
 2297TIP3    H128382   3.750   6.274   6.558  1.2922 -2.6245 -0.8090
 2297TIP3    H228383   3.837   6.332   6.449 -0.1748  1.2363 -0.1068
 2298TIP3   OH228384   6.786   1.663  12.631 -0.0244 -0.8329 -0.1684
 2298TIP3    H128385   6.852   1.731  12.648  0.2513 -1.0407 -0.4115
 2298TIP3    H228386   6.817   1.618  12.553  1.1689 -2.9246  1.3937
 2299TIP3   OH228387   0.339   3.783  15.531 -0.1991 -0.9561 -0.2917
 2299TIP3    H128388   0.397   3.745  15.466  0.2080  1.9581 -1.8197
 2299TIP3    H228389   0.368   3.874  15.538 -2.5104 -0.2546  1.3524
 2300TIP3   OH228390   2.829   0.876  15.766  0.3066 -0.3652  0.0156
 2300TIP3    H128391   2.826   0.969  15.745  2.0471 -0.1773  0.4840
 2300TIP3    H228392   2.788   0.869  15.852 -0.0539 -0.0785 -0.1309
 2301TIP3   OH228393   3.998   5.146   2.283  0.4622  0.2819 -0.0556
 2301TIP3    H128394   4.013   5.147   2.378  0.3699  0.3605 -0.0417
 2301TIP3    H228395   3.954   5.229   2.265  0.1574  0.1096 -0.1157
 2302TIP3   OH228396   6.363   4.733  12.251 -0.0084  0.0428 -0.0999
 2302TIP3    H128397   6.397   4.652  12.214  0.4467  0.6723 -1.0814
 2302TIP3    H228398   6.395   4.802  12.194 -1.1721  0.8464  0.1697
 2303TIP3   OH228399   3.458   1.109   1.743 -0.5951 -0.3963 -0.6113
 2303TIP3    H128400   3.479   1.154   1.825 -3.4679 -0.2387  0.1617
 2303TIP3    H228401   3.537   1.058   1.722  0.0701 -0.9000  2.5735
 2304TIP3   OH228402   1.068   3.719   5.676 -0.3106  0.0881  0.1436
 2304TIP3    H128403   1.020   3.636   5.682  0.4817 -0.3384  0.7118
 2304TIP3    H228404   1.068   3.753   5.766 -0.0822  0.3901  0.0308
 2305TIP3   OH228405   6.367   0.554   3.613  0.1257  0.3335  0.0391
 2305TIP3    H128406   6.341   0.613   3.542  1.3804 -0.7121 -1.3686
 2305TIP3    H228407   6.445   0.594   3.650 -0.1144  0.5123  0.3549
 2306TIP3   OH228408   4.236   2.606  11.239  0.2984 -0.2429 -0.0647
 2306TIP3    H128409   4.244   2.695  11.272 -3.3788  0.8232 -1.5277
 2306TIP3    H228410   4.276   2.551  11.307  0.2791  2.3395  2.1821
 2307TIP3   OH228411   4.966   5.801  14.625  0.1319 -0.0240 -0.1533
 2307TIP3    H128412   4.965   5.853  14.705 -2.0618  0.4551 -0.4395
 2307TIP3    H228413   4.993   5.862  14.557  1.3913 -0.2806  0.0871
 2308TIP3   OH228414   4.986   1.119   2.981 -0.1391  0.1375  0.2183
 2308TIP3    H128415   5.076   1.139   2.956 -0.5399  0.8017 -0.7247
 2308TIP3    H228416   4.995   1.067   3.061  1.0984 -0.2338 -0.1361
 2309TIP3   OH228417   1.938   5.346   2.803 -0.8808 -0.1371  0.0872
 2309TIP3    H128418   2.026   5.361   2.771 -1.0005  0.5265  0.0447
 2309TIP3    H228419   1.930   5.251   2.810  0.4425 -0.1735  1.7703
 2310TIP3   OH228420   1.402   3.668  16.001 -0.2361  0.1180 -0.5468
 2310TIP3    H128421   1.485   3.644  15.958  0.0808 -0.9864  0.6491
 2310TIP3    H228422   1.337   3.663  15.931  0.3720 -1.0668 -1.0612
 2311TIP3   OH228423   5.989   4.634  15.991  0.0199 -0.0377 -0.3078
 2311TIP3    H128424   6.079   4.628  15.958 -0.0069 -1.9009 -0.1431
 2311TIP3    H228425   5.954   4.546  15.981 -0.7364 -0.1440  2.6019
 2312TIP3   OH228426   4.042   2.931  14.428 -0.1146  0.0199 -0.0175
 2312TIP3    H128427   4.041   2.992  14.502  1.4418 -0.5355  0.5113
 2312TIP3    H228428   4.074   2.982  14.354 -0.2640  0.2144  0.0513
 2313TIP3   OH228429   5.478   0.978   3.133 -0.2949  0.6610 -0.0154
 2313TIP3    H128430   5.555   0.953   3.083 -0.9256 -0.1973 -0.5937
 2313TIP3    H228431   5.507   1.050   3.188  1.1626 -0.2397  0.4501
 2314TIP3   OH228432   5.757   1.145   0.725 -0.5209  0.1114  0.5482
 2314TIP3    H128433   5.679   1.158   0.778 -1.0345 -0.7630  0.0419
 2314TIP3    H228434   5.808   1.080   0.773 -1.5701 -1.6190 -0.5720
 2315TIP3   OH228435   1.088   0.450  12.605  0.0321 -0.4594  0.3286
 2315TIP3    H128436   1.006   0.463  12.558  0.4589  1.0598 -0.0667
 2315TIP3    H228437   1.155   0.452  12.537  0.3781 -2.6570  0.5260
 2316TIP3   OH228438   0.286   1.833  14.502 -0.0517 -0.4163  0.0256
 2316TIP3    H128439   0.362   1.889  14.488  0.0293 -0.7482 -0.9890
 2316TIP3    H228440   0.243   1.868  14.580 -0.0650  1.1201 -0.6505
 2317TIP3   OH228441   1.616   6.359   5.994  0.3515  0.4711 -0.1608
 2317TIP3    H128442   1.526   6.328   6.008  1.0247 -2.8305 -2.1556
 2317TIP3    H228443   1.634   6.411   6.072 -2.3294 -1.1441  1.7584
 2318TIP3   OH228444   4.113   1.834   2.451 -0.6794 -0.0028  0.4330
 2318TIP3    H128445   4.150   1.752   2.419 -0.4005 -0.2540  1.3556
 2318TIP3    H228446   4.041   1.806   2.508 -1.5195  0.4440 -0.3882
 2319TIP3   OH228447   5.234   4.151   0.707 -0.0576  0.3983 -0.2461
 2319TIP3    H128448   5.226   4.081   0.772  0.1911 -1.2033 -1.8772
 2319TIP3    H228449   5.327   4.174   0.708 -0.2110  1.0510  0.5922
 2320TIP3   OH228450   4.941   0.904   2.480  0.0513  1.0398 -0.2698
 2320TIP3    H128451   4.999   0.960   2.532  0.0445 -0.1094  1.0157
 2320TIP3    H228452   4.952   0.816   2.516 -0.8648  0.4053 -1.4355
 2321TIP3   OH228453   5.209   0.263  15.996  0.0866  0.3293  0.1645
 2321TIP3    H128454   5.222   0.176  16.034 -2.3435 -0.7257 -1.1530
 2321TIP3    H228455   5.257   0.261  15.913 -2.6173 -1.1172 -1.5083
 2322TIP3   OH228456   0.981   6.531  13.734  0.0691 -0.1038 -0.0504
 2322TIP3    H128457   0.976   6.626  13.748 -0.5069 -0.0842 -0.3606
 2322TIP3    H228458   1.011   6.522  13.643 -0.6975 -0.2117 -0.2996
 2323TIP3   OH228459   6.225   5.578  13.404  0.5553 -0.1331  0.2486
 2323TIP3    H128460   6.132   5.585  13.383  0.6642  1.0812  0.1435
 2323TIP3    H228461   6.269   5.572  13.319  0.6217 -0.0644  0.2774
 2324TIP3   OH228462   4.197   1.417   0.882  0.0189  0.0886 -0.0086
 2324TIP3    H128463   4.264   1.398   0.816  1.1186 -2.8895  1.7736
 2324TIP3    H228464   4.241   1.472   0.946 -0.6437  1.8186 -0.9683
 2325TIP3   OH228465   1.664   3.982   2.818 -0.6833  0.2628  0.1261
 2325TIP3    H128466   1.717   3.905   2.838 -0.6845  0.2004 -0.1121
 2325TIP3    H228467   1.609   3.955   2.745  1.0245  1.2500 -1.6041
 2326TIP3   OH228468   5.392   0.996   4.876  0.1615 -0.1228  0.1214
 2326TIP3    H128469   5.457   0.934   4.844  1.5606  1.3177  0.0014
 2326TIP3    H228470   5.417   1.011   4.968  0.5875  1.1080 -0.1726
 2327TIP3   OH228471   5.417   0.237  14.505 -0.1623 -0.0087 -0.0147
 2327TIP3    H128472   5.503   0.233  14.547 -0.5924  0.9896  1.0514
 2327TIP3    H228473   5.356   0.205  14.572 -0.5787 -1.3935 -1.0032
 2328TIP3   OH228474   2.952   6.255   2.125  0.3048 -0.1374 -0.5110
 2328TIP3    H128475   2.951   6.264   2.030  1.6821 -1.2276 -0.6536
 2328TIP3    H228476   2.860   6.240   2.149  0.0691 -0.7748 -1.7572
 2329TIP3   OH228477   6.359   2.494   1.287  0.2927 -0.2822 -0.2408
 2329TIP3    H128478   6.399   2.531   1.365 -0.3627  1.3073 -0.6185
 2329TIP3    H228479   6.270   2.473   1.313  0.0577  0.2975 -0.5573
 2330TIP3   OH228480   5.983   5.373  16.271 -0.0747  0.1532  0.3933
 2330TIP3    H128481   6.028   5.330  16.199 -0.6791  0.5830 -0.2603
 2330TIP3    H228482   5.990   5.466  16.251 -1.3781  0.2305  0.1727
 2331TIP3   OH228483   5.979   0.543   1.373  0.2430  0.3762  0.6740
 2331TIP3    H128484   5.981   0.487   1.295  0.4788 -2.2722  2.4687
 2331TIP3    H228485   6.059   0.520   1.420 -0.4791  1.0346  2.2745
 2332TIP3   OH228486   3.038   1.067  16.727  0.7338 -1.0908  0.0973
 2332TIP3    H128487   2.978   1.068  16.652  1.8201  0.8170 -0.8166
 2332TIP3    H228488   3.125   1.073  16.688  1.2618  3.2255  1.4120
 2333TIP3   OH228489   5.955   2.700   3.380 -0.4694  0.1507 -0.1437
 2333TIP3    H128490   5.885   2.701   3.315  1.6963 -1.1738 -2.6590
 2333TIP3    H228491   6.008   2.777   3.360  0.9738 -0.9969 -0.9335
 2334TIP3   OH228492   1.356   6.204   2.990 -0.0411  0.6218 -0.0960
 2334TIP3    H128493   1.411   6.271   2.949 -0.7905  0.0989 -2.0853
 2334TIP3    H228494   1.403   6.179   3.069  1.2294  2.0719 -0.3466
 2335TIP3   OH228495   6.729   3.801  12.706  0.3702 -0.1225  0.4359
 2335TIP3    H128496   6.673   3.877  12.688 -0.8025 -1.1399 -0.3334
 2335TIP3    H228497   6.676   3.746  12.763  0.9571 -0.6817  0.4452
 2336TIP3   OH228498   2.383   1.980  15.223 -0.0596 -0.7455  0.6605
 2336TIP3    H128499   2.388   2.074  15.207  0.7760 -0.7577  0.8055
 2336TIP3    H228500   2.304   1.952  15.177 -0.1144 -0.0334  0.3122
 2337TIP3   OH228501   6.767   6.623  14.960  0.1754 -0.3590 -0.2011
 2337TIP3    H128502   6.731   6.577  15.036 -1.2718  1.2130  0.1399
 2337TIP3    H228503   6.695   6.625  14.897  0.4537  0.7045 -0.5108
 2338TIP3   OH228504   1.410   1.498  13.711 -0.0736 -0.4573 -0.1998
 2338TIP3    H128505   1.474   1.442  13.667  1.0095  1.0087 -0.5895
 2338TIP3    H228506   1.463   1.567  13.751 -1.4682  2.0026 -2.2957
 2339TIP3   OH228507   1.229   3.730   5.458 -0.6159  0.3274 -0.0912
 2339TIP3    H128508   1.273   3.645   5.461 -2.8769 -0.9192  0.4519
 2339TIP3    H228509   1.216   3.753   5.550  0.0631  1.3328 -0.2358
 2340TIP3   OH228510   4.759   4.474  12.759 -0.2293 -0.1408 -0.4354
 2340TIP3    H128511   4.755   4.451  12.852  1.9273 -0.6901 -0.4257
 2340TIP3    H228512   4.753   4.389  12.713  2.4487 -0.3244 -0.6003
 2341TIP3   OH228513   2.427   2.342  13.531  0.5946  0.1571 -0.2913
 2341TIP3    H128514   2.422   2.247  13.527 -1.0789  0.2409 -0.9536
 2341TIP3    H228515   2.514   2.363  13.496  1.0764 -1.1221  0.0902
 2342TIP3   OH228516   1.691   2.986  12.731  0.3755 -0.4960  0.3683
 2342TIP3    H128517   1.673   2.896  12.757  2.8454 -0.9718  0.7213
 2342TIP3    H228518   1.786   2.995  12.742  0.2416  2.0390 -0.0249
 2343TIP3   OH228519   0.373   1.404   0.123  0.4357 -0.2300  0.0882
 2343TIP3    H128520   0.461   1.375   0.142 -0.3988 -2.2286  1.1569
 2343TIP3    H228521   0.316   1.337   0.160 -1.5252  0.4410 -1.4931
 2344TIP3   OH228522   6.367   1.796   0.489 -0.2179 -0.4203  0.0670
 2344TIP3    H128523   6.271   1.793   0.488 -0.2422  0.3642 -0.2509
 2344TIP3    H228524   6.389   1.880   0.448  0.6084 -0.6396  0.0505
 2345TIP3   OH228525   2.180   6.428  14.649 -0.2529  0.4191  0.1105
 2345TIP3    H128526   2.141   6.365  14.710  0.3500  0.5084  0.5994
 2345TIP3    H228527   2.114   6.440  14.581 -0.4967 -0.5092  0.1759
 2346TIP3   OH228528   5.532   0.030  12.029 -0.3177  0.4054  0.1308
 2346TIP3    H128529   5.454  -0.018  12.001 -0.4737  0.1343  0.9827
 2346TIP3    H228530   5.596   0.017  11.959 -1.2474  1.1802 -0.9095
 2347TIP3   OH228531   1.070   2.345   1.541 -0.1520  0.2633  0.9398
 2347TIP3    H128532   1.072   2.319   1.449 -1.0287  0.5559  0.8328
 2347TIP3    H228533   1.106   2.434   1.542  0.5547 -0.0163  0.9860
 2348TIP3   OH228534   0.088   4.361   3.131  0.2651 -0.2360  0.6058
 2348TIP3    H128535   0.019   4.364   3.066  1.9532 -1.7275 -1.3750
 2348TIP3    H228536   0.053   4.305   3.201 -1.0027  0.1328  0.2864
 2349TIP3   OH228537   5.304   4.133   1.001 -0.2230 -0.9054  0.1711
 2349TIP3    H128538   5.346   4.116   1.085  1.8791  1.2914 -0.3005
 2349TIP3    H228539   5.260   4.217   1.013  1.9271  0.5625 -1.4061
 2350TIP3   OH228540   2.843   4.226   1.962 -0.3114 -0.9229 -0.4641
 2350TIP3    H128541   2.801   4.280   2.029  2.2226  0.3964  0.2152
 2350TIP3    H228542   2.831   4.276   1.881 -1.8720 -1.6645 -0.7347
 2351TIP3   OH228543   5.240   0.953  11.716 -0.4894  0.4910  0.4651
 2351TIP3    H128544   5.173   0.976  11.781 -0.2391 -0.1812  0.9696
 2351TIP3    H228545   5.203   0.878  11.669 -0.7568  1.0971 -0.3165
 2352TIP3   OH228546   2.370   5.500  17.044 -0.2385  0.5303 -0.3494
 2352TIP3    H128547   2.352   5.504  16.950 -0.0649  0.0689 -0.4065
 2352TIP3    H228548   2.449   5.446  17.051 -0.7849 -0.2151  0.1240
 2353TIP3   OH228549   6.389   2.349  16.580 -0.1821 -0.3320 -0.3002
 2353TIP3    H128550   6.438   2.270  16.559 -0.5004  0.2143 -3.8681
 2353TIP3    H228551   6.432   2.418  16.528 -0.8085  1.5410  1.5467
 2354TIP3   OH228552   4.508   3.800   4.251  0.2188 -0.3484  0.9411
 2354TIP3    H128553   4.546   3.888   4.254 -0.3100 -0.1247  3.8623
 2354TIP3    H228554   4.570   3.748   4.200  2.5796  0.8434  2.4315
 2355TIP3   OH228555   6.090   1.224   0.093  0.0518 -0.1080 -0.4758
 2355TIP3    H128556   5.997   1.216   0.113  0.6104 -0.0147  2.6778
 2355TIP3    H228557   6.119   1.303   0.140  1.5200  0.5203 -2.3185
 2356TIP3   OH228558   2.300   6.225  11.146  0.6970  0.0723  0.1987
 2356TIP3    H128559   2.245   6.273  11.084  0.3750 -0.0457  0.3913
 2356TIP3    H228560   2.388   6.261  11.134  0.4973  0.5527  0.1851
 2357TIP3   OH228561   2.550   2.157  15.593 -0.8864 -0.7569 -0.0285
 2357TIP3    H128562   2.500   2.153  15.674  0.1775 -1.2323  0.6180
 2357TIP3    H228563   2.627   2.209  15.615  0.4505 -2.6012 -0.1366
 2358TIP3   OH228564   4.218   5.505   4.029  0.5214 -0.0401  0.7732
 2358TIP3    H128565   4.295   5.530   3.978  0.6548  0.7264  1.3384
 2358TIP3    H228566   4.149   5.565   3.999  0.2855 -0.3737  0.6455
 2359TIP3   OH228567   1.773   0.560  14.991  0.1482  0.1694 -0.2071
 2359TIP3    H128568   1.824   0.510  15.054 -0.9328 -0.0262  0.5384
 2359TIP3    H228569   1.770   0.505  14.912  0.3375 -0.2080  0.0500
 2360TIP3   OH228570   1.085   4.239  16.781  0.3506  0.1468 -0.2351
 2360TIP3    H128571   1.061   4.296  16.854  0.3890  1.4803 -1.2333
 2360TIP3    H228572   1.051   4.153  16.806 -0.3187  0.7395  0.9967
 2361TIP3   OH228573   0.926   1.647  14.735 -0.2432 -0.8676  0.3088
 2361TIP3    H128574   0.847   1.594  14.729  0.6076 -2.0886 -0.3091
 2361TIP3    H228575   0.945   1.673  14.645  0.1701 -0.7171  0.4388
 2362TIP3   OH228576   5.908   1.050   3.511  0.0240 -0.6288  0.0486
 2362TIP3    H128577   5.838   1.097   3.558 -0.5981 -2.3423  0.9022
 2362TIP3    H228578   5.866   0.970   3.480  1.1162 -0.7355 -1.2219
 2363TIP3   OH228579   0.332   0.960  17.129 -0.4492 -0.0565 -0.1161
 2363TIP3    H128580   0.343   1.042  17.080  0.3776  0.7578  1.3213
 2363TIP3    H228581   0.276   0.985  17.203  0.5301 -0.5331  0.8230
 2364TIP3   OH228582   5.240   3.780   3.948  0.1973 -0.2697  0.1481
 2364TIP3    H128583   5.264   3.783   4.041  2.6365 -0.3880 -0.4274
 2364TIP3    H228584   5.323   3.775   3.902 -1.0085 -1.9868 -1.9993
 2365TIP3   OH228585   1.269   1.422   3.882 -0.3152  0.7158 -0.2780
 2365TIP3    H128586   1.265   1.328   3.864 -0.7859  0.6343  0.2490
 2365TIP3    H228587   1.318   1.458   3.808 -1.0625  0.2065 -1.0361
 2366TIP3   OH228588   0.620   3.967  12.084 -0.6629 -0.8127 -0.3294
 2366TIP3    H128589   0.581   4.012  12.159  0.2749  1.5131 -1.1382
 2366TIP3    H228590   0.558   3.896  12.064 -2.1976  0.0519  1.0846
 2367TIP3   OH228591   1.235   1.218  14.577  0.5667  0.6537 -0.2642
 2367TIP3    H128592   1.289   1.265  14.641  1.8234  0.8804 -1.4327
 2367TIP3    H228593   1.276   1.131  14.572 -1.4143 -0.4629  1.4856
 2368TIP3   OH228594   3.689   4.152  17.017  0.2687 -0.8434 -0.3808
 2368TIP3    H128595   3.700   4.178  16.926 -0.6797 -0.0964 -0.3021
 2368TIP3    H228596   3.638   4.223  17.056  2.1916 -0.2369  1.1927
 2369TIP3   OH228597   3.655   6.062  16.005 -0.5533 -0.8739 -0.1698
 2369TIP3    H128598   3.589   6.010  16.050  0.1591 -2.4519 -0.8541
 2369TIP3    H228599   3.664   6.020  15.920 -0.2999  0.7155 -0.9565
 2370TIP3   OH228600   0.576   3.311   4.584  0.0733 -0.1871 -0.4280
 2370TIP3    H128601   0.588   3.322   4.489  1.0653  1.2626 -0.1627
 2370TIP3    H228602   0.496   3.361   4.604  0.6349  0.6795 -0.3050
 2371TIP3   OH228603   1.792   0.112   3.882  0.2245 -0.1469  0.2076
 2371TIP3    H128604   1.752   0.164   3.812  0.2473  1.2712  1.2124
 2371TIP3    H228605   1.871   0.077   3.842 -1.0897 -1.6118 -1.2906
 2372TIP3   OH228606   5.504   6.458   0.736 -0.0353  0.5104  0.0893
 2372TIP3    H128607   5.419   6.485   0.703 -0.0273 -0.9084 -1.2520
 2372TIP3    H228608   5.501   6.362   0.735  1.9332  0.3867 -1.1037
 2373TIP3   OH228609   0.034   2.657  12.483 -0.0612  0.0501  0.1535
 2373TIP3    H128610  -0.003   2.739  12.515 -1.5332 -1.1708  1.7790
 2373TIP3    H228611  -0.002   2.647  12.395 -1.0317  0.4631  0.4931
 2374TIP3   OH228612   5.326   6.713  11.222  0.6760 -0.0490  0.0422
 2374TIP3    H128613   5.332   6.710  11.126  0.3072  0.7655 -0.0211
 2374TIP3    H228614   5.415   6.696  11.253  0.2379 -3.5860 -0.3154
 2375TIP3   OH228615   0.965   5.114  14.078  0.2790  0.4133 -0.2476
 2375TIP3    H128616   0.917   5.107  13.996  0.7130 -1.1467 -0.4110
 2375TIP3    H228617   0.952   5.029  14.121  3.2389 -0.3030 -0.5324
 2376TIP3   OH228618   3.911   1.584  11.349 -0.1991  0.0743 -0.1594
 2376TIP3    H128619   3.842   1.634  11.305 -0.1558  0.4285  0.1639
 2376TIP3    H228620   3.911   1.499  11.306  0.3957  0.6839 -1.4002
 2377TIP3   OH228621   1.503   6.406   5.326 -0.3195 -0.3018  0.1272
 2377TIP3    H128622   1.516   6.460   5.404  0.1810 -0.1895 -0.0268
 2377TIP3    H228623   1.424   6.355   5.344 -0.3574 -0.0792  0.5942
 2378TIP3   OH228624   4.413   3.270   0.382 -0.4322 -0.0186 -0.5727
 2378TIP3    H128625   4.392   3.353   0.425 -0.6596 -0.4271  0.1363
 2378TIP3    H228626   4.448   3.295   0.297  0.2500  0.8414 -0.0663
 2379TIP3   OH228627   3.498   2.615  15.593 -0.1506 -0.1601 -0.5990
 2379TIP3    H128628   3.515   2.562  15.671 -1.3681 -1.1451 -0.9649
 2379TIP3    H228629   3.522   2.704  15.619  1.9505 -0.8528  0.0213
 2380TIP3   OH228630   4.313   3.720   2.047 -0.1738 -0.2191 -0.1618
 2380TIP3    H128631   4.266   3.722   1.964  0.7296  0.6185 -0.6798
 2380TIP3    H228632   4.394   3.768   2.030  0.9356 -1.7063  0.6585
 2381TIP3   OH228633   1.756   2.941  16.422  1.3740 -0.1715 -0.1762
 2381TIP3    H128634   1.782   2.995  16.348  0.8577  1.3002  0.6785
 2381TIP3    H228635   1.838   2.913  16.462  1.6631  0.7577 -0.0970
 2382TIP3   OH228636   2.134   4.560   1.501  0.4872 -0.0457 -0.4985
 2382TIP3    H128637   2.147   4.652   1.523 -0.3476 -0.1613  0.5457
 2382TIP3    H228638   2.108   4.519   1.583  3.3018 -1.7480 -0.3418
 2383TIP3   OH228639   6.613   0.621   2.895  0.0166 -0.0171  0.3269
 2383TIP3    H128640   6.612   0.714   2.873  1.1095 -0.1430 -0.3413
 2383TIP3    H228641   6.524   0.591   2.875  0.0049  0.6270 -0.6604
 2384TIP3   OH228642   0.240   6.282   3.801 -0.3370 -0.5730 -0.2819
 2384TIP3    H128643   0.333   6.296   3.816 -0.2365 -0.6200 -0.8360
 2384TIP3    H228644   0.200   6.367   3.816 -0.2392 -0.6173  0.2297
 2385TIP3   OH228645   3.189   5.014   4.647 -0.1724  0.1744  0.0275
 2385TIP3    H128646   3.110   4.970   4.677  0.8979 -0.9236  1.3715
 2385TIP3    H228647   3.188   5.003   4.552 -0.9414 -1.0284  0.1528
 2386TIP3   OH228648   2.398   5.050  15.512 -0.7059  0.3595 -0.2230
 2386TIP3    H128649   2.421   5.129  15.464 -0.9642  0.4332 -0.2263
 2386TIP3    H228650   2.459   5.049  15.587 -2.3420  1.9498  1.2332
 2387TIP3   OH228651   2.344   0.575   3.348 -0.2425 -0.1700  0.7196
 2387TIP3    H128652   2.338   0.506   3.282 -1.4028  2.3348 -2.0232
 2387TIP3    H228653   2.415   0.632   3.319 -1.8449  1.8996  0.6048
 2388TIP3   OH228654   0.034   0.228   4.482  0.6926  0.3378  0.1049
 2388TIP3    H128655   0.040   0.134   4.499 -1.1442  0.0640 -0.5772
 2388TIP3    H228656   0.118   0.250   4.441  1.0578 -1.0417  0.0622
 2389TIP3   OH228657   3.863   1.682  11.666  0.3993  0.1931  0.2334
 2389TIP3    H128658   3.847   1.776  11.672  2.9872  0.8343 -1.5138
 2389TIP3    H228659   3.813   1.654  11.589  2.3064  0.9146 -1.3559
 2390TIP3   OH228660   1.504   0.738   5.443  0.1256 -0.0419  0.2524
 2390TIP3    H128661   1.559   0.703   5.513 -0.5099 -1.1525  0.2363
 2390TIP3    H228662   1.444   0.798   5.488 -0.1190 -0.5609  0.6373
 2391TIP3   OH228663   4.921   5.703   5.158 -0.2563  0.1109  0.7313
 2391TIP3    H128664   5.008   5.697   5.197  0.3029  2.1715 -0.0771
 2391TIP3    H228665   4.871   5.758   5.220  0.3515  2.5745 -0.8287
 2392TIP3   OH228666   2.190   3.069  13.210  0.3296 -0.1902  0.1498
 2392TIP3    H128667   2.243   3.043  13.134 -0.5210 -1.5890 -0.0003
 2392TIP3    H228668   2.162   3.158  13.191  1.3888  0.0158 -0.4661
 2393TIP3   OH228669   0.390   5.790  14.606 -0.6829  0.5127 -0.1703
 2393TIP3    H128670   0.339   5.871  14.599 -1.5136 -0.0946 -1.5693
 2393TIP3    H228671   0.410   5.767  14.515 -1.4405 -1.4436  0.1222
 2394TIP3   OH228672   3.918   0.703  14.190  0.2310 -0.3549 -0.1361
 2394TIP3    H128673   3.951   0.644  14.258  2.9489  0.6179 -0.5071
 2394TIP3    H228674   3.887   0.780  14.239  1.7128  0.1316  0.0997
 2395TIP3   OH228675   4.882   4.549  11.277  0.1420  0.1851 -0.7826
 2395TIP3    H128676   4.855   4.615  11.341 -2.2656 -0.2346 -1.2778
 2395TIP3    H228677   4.978   4.544  11.287  0.0173  1.1870  1.7116
 2396TIP3   OH228678   1.458   2.943  15.419 -0.0533  0.3391  0.4794
 2396TIP3    H128679   1.464   2.978  15.508 -1.2183  0.4994  0.5173
 2396TIP3    H228680   1.506   3.006  15.365 -1.0002  1.3122  0.7319
 2397TIP3   OH228681   2.941   2.924   4.933  0.8815  0.1164 -0.3138
 2397TIP3    H128682   2.851   2.954   4.919 -0.2671 -2.1415  1.5399
 2397TIP3    H228683   2.951   2.848   4.875  0.5869 -1.3053  1.4241
 2398TIP3   OH228684   2.261   2.999  14.681 -0.2083  0.1768  0.0477
 2398TIP3    H128685   2.303   3.085  14.675  0.8654 -0.4307 -1.9227
 2398TIP3    H228686   2.307   2.955  14.753  0.8250  0.4608 -0.4113
 2399TIP3   OH228687   1.687   6.105   1.487  0.1290  0.5796  0.2314
 2399TIP3    H128688   1.744   6.159   1.432  0.7014 -0.3694 -0.1349
 2399TIP3    H228689   1.747   6.052   1.539 -0.3948 -0.6060 -0.3240
 2400TIP3   OH228690   3.263   3.033  13.812  0.2119 -0.4153 -0.0551
 2400TIP3    H128691   3.315   3.034  13.732  0.2476  0.2341 -0.0303
 2400TIP3    H228692   3.321   3.072  13.878 -0.2148  0.0787  0.0315
 2401TIP3   OH228693   6.678   2.470  13.453  0.0518  0.8207 -0.1108
 2401TIP3    H128694   6.663   2.391  13.506 -0.3625  0.4111 -0.8329
 2401TIP3    H228695   6.771   2.467  13.433 -0.1437 -0.0554 -1.0010
 2402TIP3   OH228696   4.075   0.914   1.206  0.1553  0.0184  0.4072
 2402TIP3    H128697   4.086   0.912   1.302  0.3836  1.9098  0.4506
 2402TIP3    H228698   3.985   0.943   1.194 -0.2128 -1.2147  0.0130
 2403TIP3   OH228699   0.010   4.705   4.549  0.4588 -0.0567  0.1123
 2403TIP3    H128700   0.033   4.725   4.639  1.7436  1.7314 -0.5642
 2403TIP3    H228701  -0.023   4.615   4.552  2.3325 -0.7622  2.0386
 2404TIP3   OH228702   1.422   3.662  17.293  0.1697  0.4518  0.4822
 2404TIP3    H128703   1.446   3.578  17.255 -1.5019 -0.5890  1.5665
 2404TIP3    H228704   1.339   3.686  17.250  0.3465  1.2782  0.5746
 2405TIP3   OH228705   5.026   5.897  10.982  0.1175 -0.1459  0.0357
 2405TIP3    H128706   5.052   5.950  10.907  1.4419  0.5896  0.9792
 2405TIP3    H228707   4.943   5.936  11.010 -0.1431 -0.1190 -0.7465
 2406TIP3   OH228708   1.419   4.247   2.163  0.0956  0.0946 -0.1191
 2406TIP3    H128709   1.328   4.251   2.134  0.4357  1.0069 -1.1251
 2406TIP3    H228710   1.414   4.241   2.258 -1.0175 -0.4324 -0.1974
 2407TIP3   OH228711   5.619   0.795  15.911 -0.3628 -0.1439  0.7616
 2407TIP3    H128712   5.668   0.819  15.990  4.1481 -0.7798 -1.5300
 2407TIP3    H228713   5.642   0.704  15.894 -0.5706  0.1897 -1.6700
 2408TIP3   OH228714   2.964   0.307   5.861  0.3065 -0.1593  0.0108
 2408TIP3    H128715   2.970   0.273   5.950  0.7038  0.1327  0.0978
 2408TIP3    H228716   2.870   0.317   5.846  0.2256 -0.4667  0.2976
 2409TIP3   OH228717   4.893   2.963  12.047 -0.0808  0.2845 -0.0612
 2409TIP3    H128718   4.825   2.930  11.989 -0.0267  1.6115 -0.9235
 2409TIP3    H228719   4.850   2.970  12.132  0.1148 -2.6099  0.3441
 2410TIP3   OH228720   5.679   2.788  13.995  1.0858  0.6750 -0.1096
 2410TIP3    H128721   5.730   2.834  14.062  1.7331  1.6341 -1.2120
 2410TIP3    H228722   5.595   2.835  13.992  0.5286 -0.2211  0.9487
 2411TIP3   OH228723   3.590   6.279  10.711  0.3220  0.2708 -0.5270
 2411TIP3    H128724   3.645   6.221  10.763  0.9065 -0.0749 -1.4986
 2411TIP3    H228725   3.607   6.253  10.620 -0.1514  1.3123 -0.9298
 2412TIP3   OH228726   6.566   1.295  16.077  0.1066  0.0416 -0.2692
 2412TIP3    H128727   6.601   1.378  16.108  1.9563 -0.6021 -0.5048
 2412TIP3    H228728   6.471   1.305  16.083  0.2999  2.0237  0.0379
 2413TIP3   OH228729   5.735   6.008  16.157  0.0594 -0.0307 -0.0859
 2413TIP3    H128730   5.801   6.070  16.188 -1.0086  1.6133 -0.9508
 2413TIP3    H228731   5.681   6.058  16.096 -2.2488 -1.1872  0.8791
 2414TIP3   OH228732   1.245   0.831  15.763  0.2397 -0.3876 -0.0464
 2414TIP3    H128733   1.313   0.895  15.783 -0.2559 -0.0326  0.5179
 2414TIP3    H228734   1.186   0.834  15.838 -0.0063 -1.2225 -0.1977
 2415TIP3   OH228735   1.022   0.866   1.485  0.0219  0.3803  0.1531
 2415TIP3    H128736   1.040   0.783   1.529  0.8791  0.4278 -0.0790
 2415TIP3    H228737   1.053   0.933   1.546 -0.5311  0.5275  0.2767
 2416TIP3   OH228738   0.405   3.419  16.178  0.2072 -0.4938  0.0481
 2416TIP3    H128739   0.420   3.497  16.125  0.0597 -0.1935  0.4383
 2416TIP3    H228740   0.311   3.419  16.194  0.1859 -0.8380 -0.0772
 2417TIP3   OH228741   0.882   3.735  11.766  0.3485 -0.0525  0.5456
 2417TIP3    H128742   0.897   3.719  11.859  0.9384 -0.8093  0.3283
 2417TIP3    H228743   0.930   3.665  11.721 -0.4689 -0.0803 -0.3110
 2418TIP3   OH228744   2.702   2.013  14.814  0.7972 -0.0872 -0.3581
 2418TIP3    H128745   2.613   2.007  14.848  1.6037 -1.6240  1.7209
 2418TIP3    H228746   2.701   1.959  14.735 -0.4574  1.2604 -1.3178
 2419TIP3   OH228747   5.406   1.874   0.204 -0.4178  0.2089  0.0618
 2419TIP3    H128748   5.488   1.825   0.198  1.4432  3.1120  0.2292
 2419TIP3    H228749   5.423   1.956   0.159 -3.1442  1.0901  0.4368
 2420TIP3   OH228750   6.496   6.729  13.314  0.6346  0.1986 -0.9337
 2420TIP3    H128751   6.525   6.642  13.341 -0.4007 -0.1100 -0.7711
 2420TIP3    H228752   6.559   6.789  13.354  0.5437 -0.4003  0.1533
 2421TIP3   OH228753   6.260   3.499   6.108 -0.2653 -0.4331 -0.6847
 2421TIP3    H128754   6.245   3.437   6.179  1.8964 -0.0410  0.1909
 2421TIP3    H228755   6.205   3.574   6.129 -0.0506 -0.5395  0.2989
 2422TIP3   OH228756   6.118   2.347  12.132  0.5799  0.5438  0.1255
 2422TIP3    H128757   6.067   2.424  12.107 -0.8563 -0.1280  0.8533
 2422TIP3    H228758   6.120   2.349  12.227 -0.4595 -0.8957  0.2103
 2423TIP3   OH228759   1.372   6.328   2.000 -0.0996 -0.2621 -0.3044
 2423TIP3    H128760   1.419   6.410   2.019 -0.6957 -0.6320  3.5648
 2423TIP3    H228761   1.282   6.345   2.026 -0.8438 -1.4102 -1.9529
 2424TIP3   OH228762   3.847   0.221  16.276 -0.2894 -0.3837  0.1618
 2424TIP3    H128763   3.857   0.250  16.367  0.4166 -1.3484  0.4013
 2424TIP3    H228764   3.844   0.126  16.281 -0.6312 -0.4357 -0.7984
 2425TIP3   OH228765   4.583   6.687   0.942  0.4896  0.5301  0.0736
 2425TIP3    H128766   4.600   6.736   0.861  0.4117  1.8553  0.8259
 2425TIP3    H228767   4.489   6.700   0.957 -0.0360 -1.7685 -0.9002
 2426TIP3   OH228768   0.012   2.873  16.158 -0.3701 -0.0972  0.1077
 2426TIP3    H128769   0.006   2.920  16.242  0.8198  1.0439 -0.4085
 2426TIP3    H228770  -0.056   2.913  16.104 -1.7362 -1.4290  0.7503
 2427TIP3   OH228771   3.152   6.407  12.114 -0.2559  0.3023  0.1464
 2427TIP3    H128772   3.114   6.455  12.040 -0.8009  0.4417  0.5078
 2427TIP3    H228773   3.130   6.316  12.098 -0.2727  0.3185  0.0776
 2428TIP3   OH228774   5.612   0.133  14.354 -0.4379 -0.2689 -0.0381
 2428TIP3    H128775   5.613   0.103  14.445 -0.7722 -1.8879 -0.5396
 2428TIP3    H228776   5.519   0.148  14.336 -0.1868  3.8284  0.9839
 2429TIP3   OH228777   3.798   2.803  15.388  0.1351  0.1802  0.2708
 2429TIP3    H128778   3.814   2.809  15.294  0.1118 -0.8890  0.1902
 2429TIP3    H228779   3.869   2.852  15.428 -0.0377  0.9202 -0.3103
 2430TIP3   OH228780   6.610   3.976   2.867  0.1584 -0.4388 -0.2128
 2430TIP3    H128781   6.628   4.061   2.827  1.4055  0.3182  1.7766
 2430TIP3    H228782   6.696   3.937   2.880 -0.3373 -1.5152 -0.0879
 2431TIP3   OH228783   1.616   2.145  12.268  0.5091  0.3854 -0.0354
 2431TIP3    H128784   1.680   2.074  12.259  0.5310  0.4659 -0.5180
 2431TIP3    H228785   1.670   2.225  12.267  0.3698  0.4788 -0.9059
 2432TIP3   OH228786   3.237   5.964  13.164 -0.4816  0.0093 -0.0552
 2432TIP3    H128787   3.294   5.970  13.087 -0.4703  1.1791  0.0248
 2432TIP3    H228788   3.190   6.047  13.165 -1.3103 -0.4536  0.5692
 2433TIP3   OH228789   4.589   0.866   5.855  0.5259 -0.0405 -0.4379
 2433TIP3    H128790   4.658   0.898   5.797 -0.3558 -0.5456 -1.8346
 2433TIP3    H228791   4.564   0.942   5.907  0.7702  0.6814 -1.3355
 2434TIP3   OH228792   0.526   6.229  13.227  0.2843  0.2958  0.3955
 2434TIP3    H128793   0.609   6.189  13.201  0.8862  2.6241 -1.6797
 2434TIP3    H228794   0.462   6.193  13.165  0.2326  0.3460  0.4197
 2435TIP3   OH228795   3.909   1.283  12.532  0.4460  0.0971  0.0256
 2435TIP3    H128796   3.913   1.187  12.531  2.5163  0.1456  0.0795
 2435TIP3    H228797   3.910   1.308  12.440  0.6959  0.0840  0.0243
 2436TIP3   OH228798   5.530   3.970   5.556 -0.1958  0.0045 -0.3526
 2436TIP3    H128799   5.451   4.024   5.563 -0.8804 -1.0254  0.1122
 2436TIP3    H228800   5.497   3.880   5.551  0.9765 -0.5302  0.9718
 2437TIP3   OH228801   1.114   5.520   1.798  0.4042  0.3804  0.8237
 2437TIP3    H128802   1.199   5.502   1.838  0.5790  0.4152  0.4686
 2437TIP3    H228803   1.121   5.484   1.710 -0.2349 -0.3631  1.0625
 2438TIP3   OH228804   0.231   2.416  14.130  0.1242  0.2365 -0.7466
 2438TIP3    H128805   0.257   2.387  14.042 -1.1655 -0.6011 -0.8935
 2438TIP3    H228806   0.135   2.405  14.131  0.2396 -1.2616  1.2634
 2439TIP3   OH228807   2.520   4.859   4.936 -0.2784  0.5105  0.6097
 2439TIP3    H128808   2.475   4.825   5.014  0.6000 -3.2681 -0.3475
 2439TIP3    H228809   2.606   4.818   4.938  0.1921  1.2534 -1.7441
 2440TIP3   OH228810   1.214   4.602  12.546 -0.1782 -0.2796 -0.4769
 2440TIP3    H128811   1.235   4.581  12.637 -1.0472 -3.1848 -0.8453
 2440TIP3    H228812   1.253   4.530  12.496 -1.3630  0.2377 -2.2179
 2441TIP3   OH228813   2.898   0.113   3.608 -0.2927  0.1101  0.2827
 2441TIP3    H128814   2.945   0.044   3.655  1.0550  0.1905 -0.8667
 2441TIP3    H228815   2.927   0.194   3.651 -1.0671  0.0411  0.9565
 2442TIP3   OH228816   0.150   2.343   5.942  0.8728  0.1944 -0.4547
 2442TIP3    H128817   0.141   2.429   5.901 -2.5674 -0.6023 -1.7626
 2442TIP3    H228818   0.148   2.362   6.036  0.5393  1.5917 -0.7082
 2443TIP3   OH228819   3.951   5.350  14.174 -0.2813 -0.2451  0.2152
 2443TIP3    H128820   3.989   5.383  14.256  0.2313 -1.5331  0.5211
 2443TIP3    H228821   3.857   5.347  14.191 -0.1368 -0.9627  0.9384
 2444TIP3   OH228822   5.545   0.611   5.158 -0.2167  0.3393 -0.0234
 2444TIP3    H128823   5.562   0.531   5.109 -0.2984  0.4473 -0.2331
 2444TIP3    H228824   5.470   0.651   5.113 -0.6641  0.1516  0.5458
 2445TIP3   OH228825   4.593   3.217  16.436  0.3302 -0.1871 -0.5445
 2445TIP3    H128826   4.612   3.133  16.479  2.0825 -0.3615 -1.5768
 2445TIP3    H228827   4.678   3.248  16.405  0.0460  2.8643  1.3190
 2446TIP3   OH228828   4.883   4.737  15.189 -0.1544  0.6187 -0.2392
 2446TIP3    H128829   4.837   4.744  15.105  1.3640  0.3871 -1.1257
 2446TIP3    H228830   4.814   4.749  15.255 -1.4652  0.3472 -1.5008
 2447TIP3   OH228831   1.404   0.574  15.524  0.0681  0.4615 -0.5967
 2447TIP3    H128832   1.493   0.549  15.500  0.3861  1.4765 -0.4841
 2447TIP3    H228833   1.400   0.668  15.510 -0.4355  0.7404  1.1334
 2448TIP3   OH228834   3.780   4.426  11.195  0.3587 -0.8830 -0.1791
 2448TIP3    H128835   3.828   4.480  11.132  2.2722 -1.7919  0.4099
 2448TIP3    H228836   3.718   4.486  11.236  1.1212  0.4112 -0.8484
 2449TIP3   OH228837   5.868   3.472   0.650 -0.1776  0.1397  0.1456
 2449TIP3    H128838   5.798   3.523   0.692 -0.8728  1.0784 -1.9773
 2449TIP3    H228839   5.899   3.529   0.579  1.8806 -0.7976  0.2312
 2450TIP3   OH228840   1.665   4.417  14.044 -0.3074  0.0863 -0.1642
 2450TIP3    H128841   1.629   4.421  14.133 -3.4687 -2.9838 -1.0679
 2450TIP3    H228842   1.593   4.446  13.988 -0.0227 -2.2638 -1.8909
 2451TIP3   OH228843   6.538   2.795   2.939  0.3208 -0.3190  0.4000
 2451TIP3    H128844   6.524   2.727   2.874 -0.2205 -0.0479  0.2345
 2451TIP3    H228845   6.593   2.860   2.894  0.8236 -0.6282  0.5532
 2452TIP3   OH228846   0.785   6.428   3.976 -0.6591 -0.4427 -0.3642
 2452TIP3    H128847   0.713   6.371   4.001 -1.1118 -0.1671 -1.0155
 2452TIP3    H228848   0.822   6.387   3.897 -0.8746  0.0673 -0.7325
 2453TIP3   OH228849   2.299   6.259  15.473 -0.2415  0.4381 -0.1069
 2453TIP3    H128850   2.285   6.330  15.410  0.1039  1.7569  1.2316
 2453TIP3    H228851   2.238   6.191  15.446  0.2661  0.7139 -2.1726
 2454TIP3   OH228852   4.907   0.019  14.310 -0.1986  0.1454 -0.0703
 2454TIP3    H128853   4.854   0.097  14.296 -0.7038 -0.0474  0.6903
 2454TIP3    H228854   4.973   0.022  14.241  0.5107  1.8495  0.6238
 2455TIP3   OH228855   2.171   5.376  13.407 -0.0783  0.5882 -0.9614
 2455TIP3    H128856   2.159   5.369  13.502  0.2314 -1.5757 -1.0392
 2455TIP3    H228857   2.116   5.450  13.382 -0.2278  1.1676  0.8874
 2456TIP3   OH228858   3.931   5.188   3.062 -0.5081  0.4771 -0.0786
 2456TIP3    H128859   3.860   5.216   3.003 -0.1823  0.5975 -0.4157
 2456TIP3    H228860   3.887   5.135   3.128 -0.4980 -2.3164 -2.1569
 2457TIP3   OH228861   0.439   5.550   3.132 -0.0756 -0.1368 -0.5180
 2457TIP3    H128862   0.377   5.619   3.108  0.4275 -0.1639 -1.9993
 2457TIP3    H228863   0.525   5.592   3.129  0.1745 -0.6538 -0.7743
 2458TIP3   OH228864   0.295   1.729   4.716 -0.1635 -0.1293 -0.2884
 2458TIP3    H128865   0.296   1.763   4.627 -1.3288 -0.9305 -0.6324
 2458TIP3    H228866   0.333   1.642   4.710  1.6675  0.5738  0.3780
 2459TIP3   OH228867   0.082   1.916  13.673  0.2981 -0.0845 -0.1597
 2459TIP3    H128868   0.002   1.881  13.711 -0.6597  1.4449 -0.6786
 2459TIP3    H228869   0.080   1.889  13.582  0.8754 -0.8557  0.0455
 2460TIP3   OH228870   1.684   4.455   2.090 -0.2920  0.1282  0.0783
 2460TIP3    H128871   1.615   4.518   2.072 -0.4705 -0.2445 -0.5711
 2460TIP3    H228872   1.645   4.370   2.072  0.6578 -0.0251 -1.4453
 2461TIP3   OH228873   6.497   1.160  15.129  0.0782  0.2289  0.0698
 2461TIP3    H128874   6.504   1.234  15.189 -1.9450  0.2520  0.3483
 2461TIP3    H228875   6.431   1.103  15.168  0.4393 -0.9536 -0.9522
 2462TIP3   OH228876   0.043   4.891   0.655 -0.5046  0.5502 -0.3290
 2462TIP3    H128877   0.113   4.859   0.598 -0.0948  0.7095  0.0800
 2462TIP3    H228878   0.083   4.964   0.703 -0.9347  0.6043 -0.0487
 2463TIP3   OH228879   5.602   1.241  17.075 -0.0995  0.5582 -0.0150
 2463TIP3    H128880   5.563   1.183  17.009 -0.0130  0.4068  0.0688
 2463TIP3    H228881   5.543   1.317  17.076  0.1835  0.7918 -0.6365
 2464TIP3   OH228882   1.835   0.105   1.508  0.2838  0.3656  0.2649
 2464TIP3    H128883   1.822   0.199   1.511 -1.3522  0.1975 -0.3515
 2464TIP3    H228884   1.866   0.087   1.419  1.5215  0.4023  0.6746
 2465TIP3   OH228885   4.284   3.710   1.472 -0.4880 -0.5962  0.1139
 2465TIP3    H128886   4.276   3.630   1.421  1.1128 -0.5047 -0.3438
 2465TIP3    H228887   4.276   3.780   1.408 -1.6177 -0.3691  0.4764
 2466TIP3   OH228888   3.606   1.698   0.145  0.4307  0.5793  0.1181
 2466TIP3    H128889   3.657   1.677   0.224  1.6916 -1.1646 -1.0872
 2466TIP3    H228890   3.582   1.613   0.109 -0.9471  1.3630 -0.8960
 2467TIP3   OH228891   2.929   1.963   1.943 -0.2175 -0.0760  0.1905
 2467TIP3    H128892   2.849   1.916   1.967 -0.2526  0.8332  2.0489
 2467TIP3    H228893   2.959   1.921   1.862 -0.8710 -2.4600  1.1276
 2468TIP3   OH228894   4.979   5.793  13.679 -0.4488  0.4897  0.0084
 2468TIP3    H128895   5.023   5.746  13.750 -1.2408 -2.1268 -1.1429
 2468TIP3    H228896   5.046   5.853  13.645  0.1503  1.3278  2.4524
 2469TIP3   OH228897   3.220   0.581  16.383 -0.0359  0.0331  0.1898
 2469TIP3    H128898   3.301   0.532  16.375  0.2248  0.6169 -1.0780
 2469TIP3    H228899   3.198   0.578  16.476  0.6132 -1.4215  0.3087
 2470TIP3   OH228900   0.108   0.326   0.917 -0.4481 -0.0290  0.3706
 2470TIP3    H128901   0.118   0.297   1.008 -0.1900  0.0199  0.3580
 2470TIP3    H228902   0.081   0.248   0.869 -0.3387 -0.1117  0.4438
 2471TIP3   OH228903   2.809   1.709  13.745 -0.6379  0.1151  0.5481
 2471TIP3    H128904   2.812   1.659  13.664 -0.9031 -2.1196  1.8376
 2471TIP3    H228905   2.722   1.749  13.746 -0.9627 -0.5658  0.1386
 2472TIP3   OH228906   1.805   4.542  13.016 -0.2065  0.0127 -0.0990
 2472TIP3    H128907   1.853   4.584  12.945  0.2173 -1.3615 -0.6592
 2472TIP3    H228908   1.848   4.573  13.096  0.2309  0.4542 -0.5016
 2473TIP3   OH228909   1.915   5.197   0.377 -0.1875 -0.0233 -0.0902
 2473TIP3    H128910   1.884   5.191   0.287  0.0518 -0.4790 -0.1444
 2473TIP3    H228911   2.010   5.184   0.372  0.1621  2.1420 -0.0142
 2474TIP3   OH228912   3.633   1.550  12.301 -0.2130 -0.5413 -0.3297
 2474TIP3    H128913   3.616   1.460  12.330 -0.4414 -0.3359  0.1748
 2474TIP3    H228914   3.635   1.601  12.381 -0.0294 -0.0985 -0.6129
 2475TIP3   OH228915   1.436   4.587  12.317 -0.1515  0.2600  0.6558
 2475TIP3    H128916   1.422   4.602  12.224  0.1584  1.4000  0.7766
 2475TIP3    H228917   1.394   4.502  12.334 -0.7002  0.3005 -0.3944
 2476TIP3   OH228918   5.216   2.648  14.238 -0.0538 -0.0811  0.1994
 2476TIP3    H128919   5.135   2.683  14.200  0.3122 -0.2449 -0.7462
 2476TIP3    H228920   5.281   2.716  14.220  0.2657 -0.4555 -0.0593
 2477TIP3   OH228921   5.779   6.539  15.423 -0.2975  0.3541 -0.3188
 2477TIP3    H128922   5.697   6.587  15.442 -0.8271 -0.1419 -1.2881
 2477TIP3    H228923   5.836   6.605  15.383 -1.2731  0.0873 -2.2972
 2478TIP3   OH228924   5.846   1.214   0.176  0.6288 -0.5453 -0.0194
 2478TIP3    H128925   5.832   1.202   0.270  0.3691  0.8269  0.1359
 2478TIP3    H228926   5.773   1.268   0.148  0.3487 -1.4818 -1.1620
 2479TIP3   OH228927   1.446   1.886   3.843 -0.0502 -0.1795 -0.4110
 2479TIP3    H128928   1.456   1.791   3.847 -1.1387 -0.3119 -0.7191
 2479TIP3    H228929   1.360   1.903   3.880 -0.1445  0.6262 -0.9837
 2480TIP3   OH228930   5.175   0.933   0.762 -0.3109 -0.0452 -0.0314
 2480TIP3    H128931   5.164   0.842   0.735  0.7637  0.3470 -1.9365
 2480TIP3    H228932   5.204   0.927   0.853 -1.1275 -1.5588  0.1623
 2481TIP3   OH228933   2.182   5.131   3.475  0.5409  0.1968  0.3891
 2481TIP3    H128934   2.244   5.060   3.461 -0.9317 -1.1732  0.5513
 2481TIP3    H228935   2.187   5.183   3.395  1.4662 -0.2138  0.1672
 2482TIP3   OH228936   5.934   3.059   0.830  0.1519 -0.2793  0.3972
 2482TIP3    H128937   5.974   2.972   0.829 -1.1532 -0.8976  0.0468
 2482TIP3    H228938   5.840   3.042   0.837 -0.3597  0.9927 -2.0389
 2483TIP3   OH228939   1.639   3.967  11.589  0.0245  0.4342  0.0091
 2483TIP3    H128940   1.635   3.952  11.683 -0.8565  2.3880  0.3328
 2483TIP3    H228941   1.728   3.998  11.573  0.8285 -1.7979 -0.1735
 2484TIP3   OH228942   6.169   4.480  12.927  0.0861 -0.6228 -0.6280
 2484TIP3    H128943   6.210   4.481  12.841  1.4415  3.6089 -0.1655
 2484TIP3    H228944   6.084   4.521  12.914  1.1765  2.1680  0.1863
 2485TIP3   OH228945   6.716   3.166   1.376 -0.4157 -0.7309  0.1624
 2485TIP3    H128946   6.645   3.125   1.326  0.2312 -1.2793 -0.3205
 2485TIP3    H228947   6.795   3.143   1.328  0.0211  0.6410  0.1837
 2486TIP3   OH228948   1.836   4.326  12.116  0.4845 -0.5515  0.1867
 2486TIP3    H128949   1.811   4.375  12.037  0.6135 -1.9218 -0.7381
 2486TIP3    H228950   1.921   4.287  12.094 -0.0798 -2.0066  0.5043
 2487TIP3   OH228951   5.170   4.553   0.964  0.4351 -0.3453  0.0672
 2487TIP3    H128952   5.133   4.470   0.933  0.1273  0.2033 -1.1134
 2487TIP3    H228953   5.160   4.549   1.059  0.4918 -1.6852  0.0475
 2488TIP3   OH228954   3.590   1.451   2.066  0.4227  0.0903  0.1181
 2488TIP3    H128955   3.590   1.393   2.142  1.0699 -1.3351 -0.9405
 2488TIP3    H228956   3.666   1.425   2.015  0.6799  1.8184 -0.4616
 2489TIP3   OH228957   4.071   4.996  11.113  0.5411  0.2935 -0.1600
 2489TIP3    H128958   4.134   5.033  11.052  2.1300 -1.3120  0.4488
 2489TIP3    H228959   3.987   5.002  11.067  1.3939  0.8273 -1.7231
 2490TIP3   OH228960   1.389   5.694  14.626 -0.5593 -0.1605  0.1131
 2490TIP3    H128961   1.355   5.775  14.663  0.0282 -0.6175  1.7642
 2490TIP3    H228962   1.333   5.676  14.551 -2.4842  0.3147  1.3716
 2491TIP3   OH228963   2.758   6.113  12.488 -0.1755 -0.1852  0.0801
 2491TIP3    H128964   2.794   6.045  12.431  1.3161  2.1382 -1.9478
 2491TIP3    H228965   2.811   6.107  12.568 -0.5785 -1.8231  0.2645
 2492TIP3   OH228966   5.811   1.932   5.457 -0.1974 -0.0646 -1.3478
 2492TIP3    H128967   5.738   1.871   5.464 -1.1648  1.1495 -0.4525
 2492TIP3    H228968   5.812   1.957   5.365 -0.8453 -0.1716 -1.3909
 2493TIP3   OH228969   2.211   0.447  11.110 -0.4683 -0.8656  0.2043
 2493TIP3    H128970   2.151   0.400  11.167 -2.3448  0.9123 -0.2098
 2493TIP3    H228971   2.178   0.430  11.021 -1.2119  1.1548  0.0447
 2494TIP3   OH228972   0.996   4.600  13.490  0.2270 -0.3451 -0.4956
 2494TIP3    H128973   0.914   4.651  13.496  0.2307 -0.5683  2.5714
 2494TIP3    H228974   1.058   4.647  13.545  1.3195 -1.7808 -0.4478
 2495TIP3   OH228975   0.319   6.027   0.729 -0.2859  0.1287  0.1366
 2495TIP3    H128976   0.294   6.079   0.805  1.4711 -0.2814  1.0580
 2495TIP3    H228977   0.378   6.084   0.679  0.7356 -0.5264  0.5520
 2496TIP3   OH228978   1.516   5.525  14.985 -0.1720  0.1668 -0.1983
 2496TIP3    H128979   1.569   5.569  14.918  0.2375 -0.7640 -0.5018
 2496TIP3    H228980   1.483   5.597  15.039  0.4859  0.8539 -0.6689
 2497TIP3   OH228981   6.020   2.607   4.911 -0.0174  0.5954  0.0654
 2497TIP3    H128982   6.112   2.595   4.890  0.2459  0.5176  1.1621
 2497TIP3    H228983   5.974   2.601   4.827  1.1097  2.2319 -0.7167
 2498TIP3   OH228984   5.883   5.895   5.577 -1.0751  0.9317  0.0971
 2498TIP3    H128985   5.924   5.819   5.619 -0.0662  1.3179 -0.1356
 2498TIP3    H228986   5.863   5.864   5.488 -0.2599  1.0431 -0.1414
 2499TIP3   OH228987   2.459   1.375   3.050  0.1526  0.0559  0.8411
 2499TIP3    H128988   2.494   1.376   3.139 -0.1906  1.7167  0.9916
 2499TIP3    H228989   2.364   1.374   3.061  0.0866 -1.8614  0.4496
 2500TIP3   OH228990   2.674   3.317   0.186  0.1001 -1.1959  0.0828
 2500TIP3    H128991   2.739   3.281   0.246  0.0173 -1.5792 -0.0535
 2500TIP3    H228992   2.717   3.393   0.146  0.2433 -1.0888  0.4383
 2501TIP3   OH228993   4.226   4.793  10.480 -0.0854  0.2857  0.1081
 2501TIP3    H128994   4.175   4.873  10.476 -1.4605 -0.6010 -1.0575
 2501TIP3    H228995   4.177   4.735  10.539 -0.0170 -0.3007 -0.3991
 2502TIP3   OH228996   5.392   3.632   1.808 -0.9201  0.0828  0.1350
 2502TIP3    H128997   5.433   3.717   1.825 -0.2140  0.1237 -1.5712
 2502TIP3    H228998   5.456   3.568   1.840  0.2581  0.1658 -1.8345
 2503TIP3   OH228999   1.568   2.334  17.266 -0.1355 -0.6023 -0.1702
 2503TIP3    H129000   1.571   2.262  17.204 -1.5279  0.2276 -1.2472
 2503TIP3    H229001   1.660   2.358  17.279  0.1827 -0.7338 -1.9753
 2504TIP3   OH229002   2.301   5.569   3.904 -0.3348  0.5066 -0.2009
 2504TIP3    H129003   2.270   5.593   3.817 -1.1984  0.1656 -0.0071
 2504TIP3    H229004   2.235   5.506   3.935  1.1544 -1.1101 -0.1980
 2505TIP3   OH229005   2.842   5.020  14.783 -0.0038 -1.0448  0.0152
 2505TIP3    H129006   2.868   4.943  14.733  1.1064 -0.1060 -0.9257
 2505TIP3    H229007   2.917   5.040  14.838  0.2104  0.0576 -0.6430
 2506TIP3   OH229008   2.358   0.501   5.231 -0.8473 -1.0039  0.5806
 2506TIP3    H129009   2.379   0.412   5.203 -0.5944 -0.9335  0.5461
 2506TIP3    H229010   2.434   0.529   5.282  0.1694  0.0750 -1.4094
 2507TIP3   OH229011   6.225   5.380  13.841 -0.2850 -0.2795 -0.0531
 2507TIP3    H129012   6.316   5.348  13.841  0.1786  0.9674  0.9667
 2507TIP3    H229013   6.230   5.465  13.885 -1.5369  1.0337 -2.2987
 2508TIP3   OH229014   4.185   3.686   0.387  0.0985  0.3766  0.0333
 2508TIP3    H129015   4.182   3.764   0.333 -2.2928 -0.1960 -0.7545
 2508TIP3    H229016   4.278   3.665   0.394  0.5713  1.3093 -2.6099
 2509TIP3   OH229017   4.419   0.935  16.071  0.1033  0.3153  0.1832
 2509TIP3    H129018   4.337   0.940  16.021  1.3740  0.5834 -1.9794
 2509TIP3    H229019   4.459   1.021  16.060  1.0088 -0.0371  0.6238
 2510TIP3   OH229020   0.023   1.739  13.959  0.2851  0.3767  0.2183
 2510TIP3    H129021   0.062   1.663  13.916 -1.3059 -0.2743 -0.1654
 2510TIP3    H229022   0.073   1.750  14.040  1.7956  0.1447 -0.6474
 2511TIP3   OH229023   2.987   6.596  14.996  0.0266  0.4870  0.1990
 2511TIP3    H129024   2.993   6.556  14.909 -0.1661 -0.3636  0.5660
 2511TIP3    H229025   2.896   6.626  15.002  0.6687  2.9244 -0.8792
 2512TIP3   OH229026   3.089   6.755  13.040  0.0470  0.6449 -0.1304
 2512TIP3    H129027   3.137   6.769  13.122 -1.3718  0.7182  0.7379
 2512TIP3    H229028   3.087   6.842  12.998  0.6842  0.6314 -0.1925
 2513TIP3   OH229029   4.027   3.783  12.324  0.1619  0.0611 -0.1375
 2513TIP3    H129030   3.991   3.849  12.265  0.5582  0.9924  0.6326
 2513TIP3    H229031   4.000   3.699  12.286 -0.5853  0.6672 -0.9832
 2514TIP3   OH229032   2.955   2.708  16.297  0.2934  0.5758  0.1477
 2514TIP3    H129033   2.926   2.650  16.368 -0.3758 -1.4096 -1.6396
 2514TIP3    H229034   3.019   2.657  16.249  0.3924  1.6992 -0.9573
 2515TIP3   OH229035   3.258   0.184   4.948 -0.3751 -0.1081 -0.2906
 2515TIP3    H129036   3.207   0.155   4.872 -0.8831  0.9837 -0.3832
 2515TIP3    H229037   3.203   0.250   4.990  0.8461  0.9041 -0.2284
 2516TIP3   OH229038   3.508   0.646  16.086 -0.3493  0.1820  0.0435
 2516TIP3    H129039   3.515   0.568  16.141 -1.0204  0.6538  0.8230
 2516TIP3    H229040   3.594   0.654  16.044 -0.2735 -0.9670 -0.0463
 2517TIP3   OH229041   1.260   2.831  11.949 -0.6826  0.0521 -0.2095
 2517TIP3    H129042   1.247   2.820  11.855 -2.4291 -0.3750  0.0460
 2517TIP3    H229043   1.216   2.755  11.988  1.7936 -0.9156  0.8966
 2518TIP3   OH229044   1.785   4.942   0.366  0.7134 -0.0975  0.0785
 2518TIP3    H129045   1.804   5.031   0.395  0.8483 -0.1183  0.0546
 2518TIP3    H229046   1.695   4.926   0.396  1.3411 -0.6357  1.7992
 2519TIP3   OH229047   6.728   0.466   2.668 -0.6045  0.0340  0.1375
 2519TIP3    H129048   6.816   0.474   2.631 -1.0792  0.5740 -0.9298
 2519TIP3    H229049   6.737   0.493   2.759  0.1545  1.0230 -0.2109
 2520TIP3   OH229050   6.403   4.188   2.329 -0.2473 -0.0082 -0.1847
 2520TIP3    H129051   6.460   4.254   2.289  1.4361 -2.3838 -1.9651
 2520TIP3    H229052   6.462   4.137   2.385 -1.4400 -0.2296  0.9124
 2521TIP3   OH229053   1.915   6.256   3.443  0.2943 -0.0994 -0.6009
 2521TIP3    H129054   1.939   6.234   3.533  0.4011 -0.1387 -0.6394
 2521TIP3    H229055   1.929   6.175   3.394  3.4533  0.7446 -1.3216
 2522TIP3   OH229056   0.393   1.415  11.798  0.3471 -0.1936  0.6835
 2522TIP3    H129057   0.349   1.490  11.758  1.2273  0.5963  1.1267
 2522TIP3    H229058   0.447   1.378  11.728  0.3434 -0.0529  0.6066
 2523TIP3   OH229059   6.509   2.496   3.480 -0.0408  0.9947 -0.2646
 2523TIP3    H129060   6.429   2.506   3.428  0.1057  3.0849 -0.1990
 2523TIP3    H229061   6.567   2.444   3.426 -0.7878  1.0209 -1.1270
 2524TIP3   OH229062   1.502   1.248   4.919 -0.2032 -0.2078  0.6391
 2524TIP3    H129063   1.550   1.325   4.950 -0.6886  0.3207  0.0933
 2524TIP3    H229064   1.428   1.283   4.870 -1.5684 -0.9956  2.0167
 2525TIP3   OH229065   4.061   4.495   5.767 -0.7334 -0.1920  0.1441
 2525TIP3    H129066   4.102   4.437   5.703  0.8661  1.5395 -0.5080
 2525TIP3    H229067   4.117   4.573   5.768 -2.5318  1.1736  1.2770
 2526TIP3   OH229068   6.482   0.098  11.529  0.1850 -0.6886 -0.3301
 2526TIP3    H129069   6.407   0.040  11.515  0.8633 -1.2206 -1.9890
 2526TIP3    H229070   6.554   0.056  11.482  1.6004 -0.2765  1.3536
 2527TIP3   OH229071   1.081   2.277   1.961  0.0609 -0.5170 -0.6108
 2527TIP3    H129072   1.027   2.246   1.889 -0.5716  1.2674 -0.9693
 2527TIP3    H229073   1.018   2.298   2.031  0.4821 -0.3940 -0.2604
 2528TIP3   OH229074   6.099   0.199  12.431 -0.1156  0.1093  0.4005
 2528TIP3    H129075   6.080   0.216  12.338  0.3228 -0.2684  0.2343
 2528TIP3    H229076   6.164   0.265  12.454  2.0913 -1.6462 -0.4287
 2529TIP3   OH229077   2.485   2.170   4.524  0.8532 -0.2557  0.1212
 2529TIP3    H129078   2.429   2.094   4.537  0.9560 -0.4297 -0.4575
 2529TIP3    H229079   2.573   2.139   4.543  0.8782 -0.2398  0.0286
 2530TIP3   OH229080   2.861   2.037   4.126 -0.4547  0.4921  0.3616
 2530TIP3    H129081   2.837   1.947   4.145  0.1960  0.0309 -0.8865
 2530TIP3    H229082   2.796   2.090   4.172 -0.4852 -0.5879  1.6148
 2531TIP3   OH229083   0.133   0.891   0.656 -0.8461  0.5979 -0.0599
 2531TIP3    H129084   0.208   0.950   0.643 -0.5661  0.5445  1.2104
 2531TIP3    H229085   0.117   0.854   0.569  1.4001 -0.3362 -0.1629
 2532TIP3   OH229086   3.013   3.964   3.905  0.3753 -0.0546  0.6748
 2532TIP3    H129087   3.021   3.869   3.902 -2.2819 -0.3434 -0.4075
 2532TIP3    H229088   3.051   3.989   3.989 -0.2181 -2.2484  1.6617
 2533TIP3   OH229089   6.539   0.224   1.033 -0.2785 -0.2697  0.0195
 2533TIP3    H129090   6.449   0.222   1.000 -1.0217 -0.1287  1.8731
 2533TIP3    H229091   6.553   0.315   1.059  0.0082 -0.4961  0.6819
 2534TIP3   OH229092   3.352   3.938   1.511  0.2565 -0.1289 -0.3567
 2534TIP3    H129093   3.354   4.032   1.495 -1.1214 -0.0701 -0.3022
 2534TIP3    H229094   3.405   3.926   1.590  0.4421  0.5998 -0.3633
 2535TIP3   OH229095   3.945   1.280   5.875  0.3111  0.2860  0.1516
 2535TIP3    H129096   3.977   1.291   5.786  0.4135  0.3689  0.1987
 2535TIP3    H229097   3.975   1.358   5.921 -1.7513  1.4279 -0.3100
 2536TIP3   OH229098   4.079   4.389  15.692 -0.2556  0.1722  0.3823
 2536TIP3    H129099   4.115   4.477  15.704 -0.9016  0.8015 -1.8636
 2536TIP3    H229100   4.034   4.370  15.775 -2.6813  3.2068 -0.0582
 2537TIP3   OH229101   1.890   0.491   2.554 -0.0452  0.0982  0.3512
 2537TIP3    H129102   1.928   0.553   2.492  0.2755 -0.0035  0.4475
 2537TIP3    H229103   1.816   0.452   2.506 -0.7957  1.1782  0.5953
 2538TIP3   OH229104   6.042   6.443  15.535 -0.1552 -0.2315  0.4063
 2538TIP3    H129105   6.005   6.528  15.561  2.7261  1.2437  0.0412
 2538TIP3    H229106   6.041   6.444  15.440 -0.4866 -0.8290  0.3953
 2539TIP3   OH229107   4.467   3.308  12.054  0.0729  0.8651  0.1593
 2539TIP3    H129108   4.384   3.331  12.013 -0.9570 -1.2437  0.9026
 2539TIP3    H229109   4.481   3.376  12.120 -0.5716  1.7533 -0.5933
 2540TIP3   OH229110   5.288   1.735   0.447 -0.2814 -0.2991 -0.4299
 2540TIP3    H129111   5.266   1.768   0.360  1.3039  1.8140 -0.1023
 2540TIP3    H229112   5.225   1.778   0.506 -0.4260 -0.5971 -0.3635
 2541TIP3   OH229113   5.420   0.245   3.666 -0.3682  0.4193 -0.3349
 2541TIP3    H129114   5.327   0.262   3.653 -0.0013  3.0026 -0.0834
 2541TIP3    H229115   5.429   0.238   3.761 -0.5611 -1.9093 -0.4373
 2542TIP3   OH229116   6.333   2.677   2.505 -0.4027  0.3527 -0.1638
 2542TIP3    H129117   6.253   2.686   2.453 -2.2044 -1.4879  2.0476
 2542TIP3    H229118   6.394   2.630   2.449  0.0733  3.6530 -2.7110
 2543TIP3   OH229119   6.614   1.052   1.616  0.3217 -0.0138 -0.1754
 2543TIP3    H129120   6.645   1.138   1.586  1.4557 -0.7664 -1.2880
 2543TIP3    H229121   6.672   0.990   1.572 -1.0422 -1.3951 -0.0898
 2544TIP3   OH229122   1.014   2.043  16.499  0.1755  0.3828 -0.4755
 2544TIP3    H129123   1.106   2.033  16.527  0.2383 -1.8920 -1.2973
 2544TIP3    H229124   0.965   2.052  16.581  1.1395  2.1307 -0.0410
 2545TIP3   OH229125   3.664   3.961   0.049  0.7925 -0.2196  0.7954
 2545TIP3    H129126   3.581   3.926   0.079 -0.1328  1.0482 -0.1806
 2545TIP3    H229127   3.648   4.054   0.033  1.3245 -0.5784 -2.8368
 2546TIP3   OH229128   4.376   0.500   1.540 -0.3298  0.2835  0.0879
 2546TIP3    H129129   4.419   0.478   1.623 -0.9290  0.7062  0.5224
 2546TIP3    H229130   4.447   0.527   1.482  0.2188 -1.0056  0.1196
 2547TIP3   OH229131   3.786   4.824   4.636 -0.4219 -0.6096 -0.3766
 2547TIP3    H129132   3.774   4.913   4.670  1.3953 -0.2591 -0.5629
 2547TIP3    H229133   3.706   4.806   4.586 -1.2607  0.5082  0.5163
 2548TIP3   OH229134   3.803   3.225   3.410 -0.4157 -0.1547  0.0950
 2548TIP3    H129135   3.804   3.214   3.505 -2.5466 -2.2565 -0.0096
 2548TIP3    H229136   3.758   3.147   3.378 -1.3397  1.3212 -2.5064
 2549TIP3   OH229137   2.204   3.231   4.396 -1.2899 -0.1931 -0.4393
 2549TIP3    H129138   2.184   3.227   4.490 -0.5895  0.6551 -0.2398
 2549TIP3    H229139   2.290   3.272   4.391 -2.0174  1.3509 -1.5031
 2550TIP3   OH229140   4.316   4.841   6.089 -0.2898 -0.4196 -0.3859
 2550TIP3    H129141   4.273   4.795   6.161 -0.0197 -0.0007  0.0481
 2550TIP3    H229142   4.404   4.803   6.086 -0.6736 -1.2894 -1.2838
 2551TIP3   OH229143   3.840   2.474   1.700  0.1440 -0.1265  0.3176
 2551TIP3    H129144   3.893   2.416   1.645 -1.9093 -1.5381 -0.3009
 2551TIP3    H229145   3.894   2.490   1.777  1.4251 -1.5765 -0.2188
 2552TIP3   OH229146   0.617   0.800  16.392 -0.0361  0.2279  0.1503
 2552TIP3    H129147   0.567   0.882  16.389 -0.5051 -0.0835 -0.9313
 2552TIP3    H229148   0.624   0.781  16.486  0.9853  2.0245  0.4908
 2553TIP3   OH229149   5.074   3.735   1.664 -0.7985  0.1572  0.1370
 2553TIP3    H129150   5.013   3.669   1.628 -0.7199  0.4921 -0.6246
 2553TIP3    H229151   5.161   3.704   1.638 -0.8390  1.3273 -1.5751
 2554TIP3   OH229152   0.434   4.314  11.021 -0.1438  0.6786 -0.5812
 2554TIP3    H129153   0.524   4.281  11.015  0.3601  2.1367 -1.4888
 2554TIP3    H229154   0.391   4.279  10.943  0.0548  1.1805 -0.9181
 2555TIP3   OH229155   1.890   2.571   2.857 -0.3280  0.2044 -0.0237
 2555TIP3    H129156   1.896   2.585   2.762  0.0907 -0.1376 -0.0520
 2555TIP3    H229157   1.980   2.578   2.888 -0.4637  0.3168  0.3523
 2556TIP3   OH229158   1.491   5.082   1.133  0.1667  0.0723 -0.1873
 2556TIP3    H129159   1.442   5.077   1.052  2.1465 -2.7216 -1.3597
 2556TIP3    H229160   1.429   5.053   1.201 -1.4921  2.4153 -0.5916
 2557TIP3   OH229161   1.797   4.319   4.961 -0.0976 -0.3189  0.2937
 2557TIP3    H129162   1.828   4.228   4.954  0.3569 -0.2370  1.0346
 2557TIP3    H229163   1.773   4.329   5.053  0.8003  0.5992  0.4489
 2558TIP3   OH229164   3.697   2.000  15.952 -0.2182  0.1415  0.3384
 2558TIP3    H129165   3.648   2.006  15.870  0.2033  1.6059  0.1705
 2558TIP3    H229166   3.669   1.917  15.990 -1.7835  0.2888 -0.4145
 2559TIP3   OH229167   3.160   4.789   0.656  0.2670 -0.1088 -0.0198
 2559TIP3    H129168   3.093   4.792   0.725 -0.7552  0.3707 -0.9968
 2559TIP3    H229169   3.212   4.868   0.669 -1.3182  1.1683 -1.1204
 2560TIP3   OH229170   1.487   3.795   3.634  0.0921 -0.5540 -0.2598
 2560TIP3    H129171   1.517   3.780   3.724  0.8678 -0.0691 -0.4260
 2560TIP3    H229172   1.455   3.710   3.605 -0.2841 -0.6844  0.5192
 2561TIP3   OH229173   2.497   6.155   4.967  0.5620  0.3266  0.2196
 2561TIP3    H129174   2.506   6.061   4.982  0.4660  0.1888 -0.5444
 2561TIP3    H229175   2.524   6.196   5.049 -0.8864 -0.4251  1.1121
 2562TIP3   OH229176   0.157   3.774  14.887 -0.3298  0.1513  0.2587
 2562TIP3    H129177   0.172   3.865  14.860  0.1326  0.1675  0.5662
 2562TIP3    H229178   0.218   3.723  14.834 -0.2897  0.0586  0.3964
 2563TIP3   OH229179   6.289   2.221  11.668  0.3666 -0.1244 -0.2376
 2563TIP3    H129180   6.280   2.316  11.672 -1.8240 -0.2893  0.1786
 2563TIP3    H229181   6.353   2.200  11.736 -0.5775  0.9279  1.0376
 2564TIP3   OH229182   5.430   6.093   2.396 -0.0766  0.2627 -0.3242
 2564TIP3    H129183   5.341   6.130   2.395 -0.4293 -0.5685 -0.3263
 2564TIP3    H229184   5.487   6.169   2.388 -0.8024  0.7461 -1.1320
 2565TIP3   OH229185   0.125   2.460   3.262  0.3119  0.3361  0.2561
 2565TIP3    H129186   0.103   2.542   3.305 -2.9396 -0.8802  1.1781
 2565TIP3    H229187   0.042   2.430   3.223  1.1953 -2.7891  0.4958
 2566TIP3   OH229188   4.683   3.149   4.164  0.2107 -0.3606 -0.2314
 2566TIP3    H129189   4.631   3.218   4.123  2.3340  1.3982 -0.1797
 2566TIP3    H229190   4.763   3.145   4.110  1.5455 -0.4220  1.6613
 2567TIP3   OH229191   3.278   4.016  15.524 -0.0127  0.0041 -0.5658
 2567TIP3    H129192   3.216   3.964  15.473 -0.9777  0.7305 -0.1704
 2567TIP3    H229193   3.363   4.001  15.483 -0.4288 -1.1190 -1.0395
 2568TIP3   OH229194   2.205   2.240  11.175  0.1457  0.3906 -0.4524
 2568TIP3    H129195   2.112   2.254  11.193  0.2986  0.3255  0.4282
 2568TIP3    H229196   2.250   2.286  11.245  0.7334 -1.5459  0.5208
 2569TIP3   OH229197   5.831   6.057  12.186  0.4067 -0.1969 -0.0161
 2569TIP3    H129198   5.846   5.963  12.201 -0.4337 -0.0723  2.0970
 2569TIP3    H229199   5.918   6.096  12.191  0.8091 -0.8637 -1.2369
 2570TIP3   OH229200   1.808   0.295   2.732  0.4553  0.9109  0.5410
 2570TIP3    H129201   1.716   0.319   2.740 -0.1083 -0.1636 -1.7821
 2570TIP3    H229202   1.848   0.367   2.683  0.2219  0.2354 -0.7013
 2571TIP3   OH229203   3.091   2.495   4.363 -0.5733  0.0930  0.6564
 2571TIP3    H129204   3.090   2.590   4.353  1.5765  0.3320  2.1555
 2571TIP3    H229205   3.114   2.462   4.276 -5.1513  0.5489 -1.0471
 2572TIP3   OH229206   2.482   3.384  13.128  0.0123  0.0163 -0.2813
 2572TIP3    H129207   2.389   3.381  13.149 -0.9493  2.0943 -3.5523
 2572TIP3    H229208   2.496   3.309  13.070 -0.4995  1.4043 -2.3265
 2573TIP3   OH229209   2.801   4.346   4.355  0.2322  0.3193 -0.4125
 2573TIP3    H129210   2.816   4.256   4.384 -1.9236 -0.0548 -0.3122
 2573TIP3    H229211   2.816   4.344   4.261 -0.4117 -0.3124 -0.5136
 2574TIP3   OH229212   1.199   2.694   3.609  0.0106  0.9294 -0.1956
 2574TIP3    H129213   1.238   2.629   3.667 -2.7101  0.0274  0.7909
 2574TIP3    H229214   1.221   2.664   3.521 -0.9874 -1.2942  0.2326
 2575TIP3   OH229215   0.147   4.440   4.715 -0.8648 -0.6816 -0.1329
 2575TIP3    H129216   0.083   4.375   4.685 -1.0172 -0.0952 -1.1188
 2575TIP3    H229217   0.207   4.450   4.641  0.3429 -1.1618  0.7423
 2576TIP3   OH229218   4.221   4.231  13.782 -0.0442 -0.2026  0.2564
 2576TIP3    H129219   4.180   4.173  13.718  0.9055  0.0835 -0.6387
 2576TIP3    H229220   4.273   4.292  13.730  1.5972 -0.6119  1.3273
 2577TIP3   OH229221   4.252   0.048   0.222  0.3871 -0.0667  0.3606
 2577TIP3    H129222   4.192  -0.022   0.246  1.4907 -0.5273  1.9882
 2577TIP3    H229223   4.198   0.127   0.219 -0.3853 -0.5356  1.3826
 2578TIP3   OH229224   6.704   5.580  12.562 -0.2280 -0.4523  0.0827
 2578TIP3    H129225   6.716   5.671  12.536 -0.5532 -0.6866 -0.9102
 2578TIP3    H229226   6.628   5.581  12.621 -0.3945 -0.1207 -0.1373
 2579TIP3   OH229227   0.085   2.032   4.827  0.1302  0.2150  0.1747
 2579TIP3    H129228   0.027   2.029   4.903 -1.1975  0.8870 -0.7698
 2579TIP3    H229229   0.035   1.992   4.756  1.4984 -0.7817 -0.2803
 2580TIP3   OH229230   3.688   0.018  14.398  0.4127  0.4713 -0.3654
 2580TIP3    H129231   3.750  -0.050  14.371 -1.0714 -1.2002  0.2146
 2580TIP3    H229232   3.602  -0.024  14.390 -0.7176  2.7781 -1.3974
 2581TIP3   OH229233   2.792   1.265   0.673 -0.0515  0.0511  0.0536
 2581TIP3    H129234   2.812   1.240   0.583 -0.6979 -0.1091 -0.0427
 2581TIP3    H229235   2.866   1.321   0.699  0.0571  0.2262 -0.6262
 2582TIP3   OH229236   6.268   4.291  16.698 -0.6302  0.2247 -1.1499
 2582TIP3    H129237   6.200   4.235  16.737  0.6523 -0.2794  0.4824
 2582TIP3    H229238   6.278   4.256  16.609 -0.1198 -1.9836 -0.3052
 2583TIP3   OH229239   3.810   5.372  13.524 -0.3458 -0.2877  0.0390
 2583TIP3    H129240   3.877   5.331  13.578  1.5549 -0.5531 -2.3686
 2583TIP3    H229241   3.728   5.333  13.555  0.6066 -0.3548  2.7157
 2584TIP3   OH229242   6.666   1.934  14.034  0.2949  0.3344  0.6083
 2584TIP3    H129243   6.611   1.939  14.112 -2.5193 -2.3092 -0.9937
 2584TIP3    H229244   6.713   1.851  14.042 -0.4458 -0.2402 -0.7047
 2585TIP3   OH229245   5.043   4.946  17.138  0.2127 -0.1161 -0.6412
 2585TIP3    H129246   4.983   4.917  17.207 -0.7753 -0.5195 -1.6503
 2585TIP3    H229247   5.084   4.865  17.106  0.5345  0.0510 -0.6578
 2586TIP3   OH229248   5.515   3.386   0.347  0.1856  0.6870  0.0902
 2586TIP3    H129249   5.420   3.391   0.346  0.0623 -0.8639 -1.3546
 2586TIP3    H229250   5.538   3.356   0.435 -0.6127  1.5000  0.5844
 2587TIP3   OH229251   5.764   2.315   3.024  0.2361  0.0220 -0.0120
 2587TIP3    H129252   5.740   2.228   2.992  1.1791  0.0302 -0.7875
 2587TIP3    H229253   5.824   2.298   3.097  0.9260  0.0082 -0.5698
 2588TIP3   OH229254   6.060   0.226  10.224 -0.3090 -0.0376  0.3936
 2588TIP3    H129255   6.009   0.145  10.225  0.4172 -0.4935  0.6776
 2588TIP3    H229256   6.037   0.270  10.307  0.8391 -0.9320  1.2150
 2589TIP3   OH229257   2.545   0.520  14.384  0.5387 -0.0342  0.0866
 2589TIP3    H129258   2.474   0.568  14.426 -0.1792 -0.3413 -0.7324
 2589TIP3    H229259   2.623   0.540  14.436 -0.2014  0.0724  1.1793
 2590TIP3   OH229260   5.949   0.248   1.769 -0.0434 -0.0890  0.3401
 2590TIP3    H129261   5.888   0.306   1.722 -2.6362 -2.5610  0.4260
 2590TIP3    H229262   5.959   0.172   1.712  1.3406 -0.6723  1.3027
 2591TIP3   OH229263   5.331   3.739  11.379 -0.1182 -1.0003 -0.2393
 2591TIP3    H129264   5.385   3.677  11.429  0.6321 -1.0620 -1.0955
 2591TIP3    H229265   5.344   3.713  11.287 -0.8095 -0.3736 -0.5232
 2592TIP3   OH229266   6.597   0.756  11.525 -0.0738 -0.1554 -0.0945
 2592TIP3    H129267   6.571   0.720  11.440 -2.0466  0.0660  0.3674
 2592TIP3    H229268   6.691   0.741  11.529 -0.0154 -0.6565 -2.0862
 2593TIP3   OH229269   4.198   1.517  11.398  0.0723  0.2367  0.5722
 2593TIP3    H129270   4.124   1.509  11.458  0.0392  2.3630  0.8699
 2593TIP3    H229271   4.163   1.563  11.322  0.5625 -0.8119 -0.3324
 2594TIP3   OH229272   1.642   5.226  13.946 -0.3456 -0.2239 -0.3945
 2594TIP3    H129273   1.659   5.209  13.853  0.1385 -0.7839 -0.2094
 2594TIP3    H229274   1.573   5.164  13.969  0.0922 -0.6425 -0.1888
 2595TIP3   OH229275   5.379   6.052  15.600  0.1788 -0.1880  0.1368
 2595TIP3    H129276   5.355   6.036  15.691 -1.1168  0.6061 -0.0343
 2595TIP3    H229277   5.296   6.077  15.558  1.2230  2.2248 -0.6322
 2596TIP3   OH229278   5.515   3.381  14.314 -0.3037  0.1054  0.1248
 2596TIP3    H129279   5.568   3.451  14.353  0.1020 -1.5618  2.7784
 2596TIP3    H229280   5.465   3.425  14.245  2.3477  2.3127 -0.5632
 2597TIP3   OH229281   6.163   4.511   5.778  0.4344 -0.7008 -0.5491
 2597TIP3    H129282   6.145   4.565   5.856 -0.7337 -0.8655 -0.6926
 2597TIP3    H229283   6.099   4.539   5.714 -0.5044 -2.5588 -0.4815
 2598TIP3   OH229284   2.296   3.388   4.998 -0.5672 -0.3477 -0.1292
 2598TIP3    H129285   2.271   3.421   4.912 -1.1705 -0.7424 -0.1145
 2598TIP3    H229286   2.384   3.352   4.985 -1.3484 -2.0487 -1.0411
 2599TIP3   OH229287   5.605   5.163  14.529 -0.0373 -0.2542  0.1337
 2599TIP3    H129288   5.668   5.173  14.600 -0.3112  0.8225  0.2539
 2599TIP3    H229289   5.523   5.140  14.572 -0.5004  1.5760  0.3315
 2600TIP3   OH229290   4.895   3.492  11.071  0.6395  0.0367  0.3715
 2600TIP3    H129291   4.886   3.505  11.166  2.7972  1.4392  0.4487
 2600TIP3    H229292   4.906   3.398  11.060  2.8626  0.0625  1.8199
 2601TIP3   OH229293   6.079   4.846   2.764 -0.0471 -0.1433 -0.5727
 2601TIP3    H129294   6.119   4.930   2.744 -0.1395 -0.3785 -1.7765
 2601TIP3    H229295   6.008   4.836   2.701 -0.1118 -1.0691 -0.3736
 2602TIP3   OH229296   5.304   0.687   3.156  0.3118 -0.4895 -0.0338
 2602TIP3    H129297   5.328   0.594   3.154 -0.7281 -0.7936  0.8663
 2602TIP3    H229298   5.388   0.733   3.165  0.8706 -1.3115 -0.8809
 2603TIP3   OH229299   6.161   6.060   3.113 -0.4159 -0.1599  0.2427
 2603TIP3    H129300   6.160   6.022   3.201  0.5901 -0.9375 -0.0566
 2603TIP3    H229301   6.089   6.017   3.067 -0.0718 -0.7898  0.2834
 2604TIP3   OH229302   2.215   3.386   3.595  0.1341 -0.0299 -0.2231
 2604TIP3    H129303   2.148   3.349   3.653  1.7379  0.7873  2.3235
 2604TIP3    H229304   2.291   3.328   3.607  0.3104 -0.2580 -2.1333
 2605TIP3   OH229305   1.686   2.582   4.836 -0.2040  0.2294 -0.1929
 2605TIP3    H129306   1.636   2.505   4.864  0.0906 -0.2895 -1.0770
 2605TIP3    H229307   1.761   2.584   4.895  1.1481 -1.6623 -1.7277
 2606TIP3   OH229308   4.617   2.608  15.997 -0.4733 -0.0135  0.1381
 2606TIP3    H129309   4.604   2.654  16.080 -2.0653 -0.4753  0.1673
 2606TIP3    H229310   4.547   2.544  15.994 -0.7741  0.3588 -1.8095
 2607TIP3   OH229311   4.343   2.927  15.599  0.7339 -0.2690  0.0211
 2607TIP3    H129312   4.337   2.879  15.516  0.0814 -0.8707  0.4104
 2607TIP3    H229313   4.437   2.929  15.619  0.8081 -0.9225 -0.2645
 2608TIP3   OH229314   5.014   3.236   4.861 -0.1832 -0.6043  0.0255
 2608TIP3    H129315   4.995   3.157   4.811  0.2522 -1.3024  0.9326
 2608TIP3    H229316   4.932   3.257   4.905  0.6297 -2.9344  3.0038
 2609TIP3   OH229317   2.059   5.014   2.024  0.0430  0.2479 -0.3145
 2609TIP3    H129318   2.097   5.020   2.111 -1.7589  1.4427  0.4400
 2609TIP3    H229319   1.993   5.083   2.021  0.9792  1.1932 -3.1310
 2610TIP3   OH229320   0.491   0.366  13.589 -0.4785 -0.0197 -0.3362
 2610TIP3    H129321   0.583   0.382  13.565 -0.4970  0.9326  0.2153
 2610TIP3    H229322   0.444   0.443  13.558 -0.9362 -0.0354  0.3025
 2611TIP3   OH229323   5.541   1.903   2.049  0.0804 -0.5347  0.2653
 2611TIP3    H129324   5.518   1.855   1.970 -2.4037  0.4788  0.2693
 2611TIP3    H229325   5.562   1.991   2.018 -0.0068 -0.3745  0.6572
 2612TIP3   OH229326   5.144   1.716   6.123  0.0085 -0.1514 -0.1613
 2612TIP3    H129327   5.188   1.633   6.101 -0.1418 -0.3177  0.1517
 2612TIP3    H229328   5.061   1.712   6.077 -0.1932 -0.3820  0.2121
 2613TIP3   OH229329   3.185   3.226  16.319 -0.3117 -0.1290 -0.1088
 2613TIP3    H129330   3.247   3.226  16.246  1.3285 -0.0936  1.2360
 2613TIP3    H229331   3.236   3.196  16.394 -1.1984  2.3731  1.6359
 2614TIP3   OH229332   1.384   6.531  11.356  0.7891 -0.0291  0.2366
 2614TIP3    H129333   1.404   6.453  11.407  1.0199 -0.7911 -0.9756
 2614TIP3    H229334   1.465   6.550  11.308  0.7297  0.9478  0.4986
 2615TIP3   OH229335   0.496   4.241  14.871 -0.6695  0.1028 -0.1394
 2615TIP3    H129336   0.580   4.216  14.908 -0.8984 -1.0783 -0.4010
 2615TIP3    H229337   0.462   4.162  14.831 -1.2728  0.9131 -1.2810
 2616TIP3   OH229338   2.710   3.034   5.700  0.0740 -0.2286 -0.3006
 2616TIP3    H129339   2.757   3.024   5.784  0.4894 -0.0765 -0.5098
 2616TIP3    H229340   2.777   3.068   5.640  0.1496 -1.6436 -1.0560
 2617TIP3   OH229341   0.297   1.991  12.283  0.0923 -0.0537 -0.1366
 2617TIP3    H129342   0.318   1.898  12.283  1.1726  0.1585 -1.3747
 2617TIP3    H229343   0.364   2.031  12.228 -2.6166  0.8981 -3.0804
 2618TIP3   OH229344   5.834   2.175  10.679  0.4486  0.0594 -0.7749
 2618TIP3    H129345   5.763   2.113  10.695  1.5091 -1.3324 -1.1903
 2618TIP3    H229346   5.885   2.134  10.609  3.7069 -0.8902  1.8877
 2619TIP3   OH229347   2.214   3.557   1.623 -0.2380  0.1181 -0.7343
 2619TIP3    H129348   2.180   3.468   1.611 -1.5044  0.7014 -1.8481
 2619TIP3    H229349   2.189   3.580   1.713  2.5271 -1.5729  0.5953
 2620TIP3   OH229350   6.282   5.471  12.706 -0.1511  0.4342 -0.2795
 2620TIP3    H129351   6.294   5.564  12.688 -1.4879  0.6589 -0.0670
 2620TIP3    H229352   6.362   5.446  12.753 -0.1722  1.6817  0.4663
 2621TIP3   OH229353   4.691   1.670   3.172  0.3474 -0.5400  0.1751
 2621TIP3    H129354   4.734   1.746   3.132  0.0923 -0.6990 -0.4096
 2621TIP3    H229355   4.752   1.641   3.240  0.2907  0.3995  0.6416
 2622TIP3   OH229356   6.630   1.577  13.121 -0.0438 -0.0085  0.3699
 2622TIP3    H129357   6.625   1.552  13.029  2.3512 -2.3551  0.7580
 2622TIP3    H229358   6.680   1.659  13.122 -0.1882  0.0933 -0.4054
 2623TIP3   OH229359   0.676   5.887   5.348 -0.1948 -0.3359 -0.0628
 2623TIP3    H129360   0.766   5.854   5.348  0.2116  0.7061 -1.2254
 2623TIP3    H229361   0.635   5.846   5.273 -1.0671 -1.6917  1.1091
 2624TIP3   OH229362   5.101   6.245   5.557  0.5983 -0.4764 -0.1849
 2624TIP3    H129363   5.101   6.150   5.565  2.2262 -0.6945 -1.9304
 2624TIP3    H229364   5.115   6.277   5.646 -0.1794 -1.8423  0.4546
 2625TIP3   OH229365   0.057   4.650  14.754  0.2252 -0.0544 -0.3891
 2625TIP3    H129366   0.146   4.623  14.776  0.8449  1.8761 -0.4009
 2625TIP3    H229367   0.015   4.666  14.838 -0.3149 -1.4623 -0.3601
 2626TIP3   OH229368   2.504   4.692  12.479 -0.0411  0.0629 -0.5983
 2626TIP3    H129369   2.524   4.760  12.544 -1.2235 -1.7885  1.8954
 2626TIP3    H229370   2.505   4.611  12.529 -2.1403 -1.3797 -2.6930
 2627TIP3   OH229371   1.439   6.645  11.793  0.0329  0.2725  0.4532
 2627TIP3    H129372   1.347   6.647  11.764  0.1760 -1.2044 -0.2251
 2627TIP3    H229373   1.436   6.600  11.877  0.3090 -1.7573 -0.5573
 2628TIP3   OH229374   6.515   3.335  15.539  0.4279 -0.0980 -0.3116
 2628TIP3    H129375   6.436   3.376  15.503  0.0765 -1.0312 -0.6193
 2628TIP3    H229376   6.578   3.337  15.467  0.5197  0.1804 -0.2263
 2629TIP3   OH229377   4.052   6.632  11.807  0.3693 -0.5635 -0.7879
 2629TIP3    H129378   3.975   6.682  11.835 -0.4950 -2.4411  0.3493
 2629TIP3    H229379   4.123   6.663  11.863 -0.4634 -1.4920  0.8553
 2630TIP3   OH229380   2.341   4.955   1.845  0.1921  0.1797 -0.1851
 2630TIP3    H129381   2.373   4.962   1.935  0.0057  1.4529 -0.2135
 2630TIP3    H229382   2.403   5.007   1.793  0.2813 -0.5184 -0.8032
 2631TIP3   OH229383   0.957   4.377   1.851  0.5152 -0.1997  0.2087
 2631TIP3    H129384   0.961   4.444   1.783  1.3410 -0.7829 -0.3297
 2631TIP3    H229385   0.919   4.301   1.807 -0.4788 -0.0734  0.8332
 2632TIP3   OH229386   1.963   0.769   1.811 -0.0636  0.5213  0.5609
 2632TIP3    H129387   1.950   0.817   1.729 -0.8863  0.2246  0.5163
 2632TIP3    H229388   2.045   0.722   1.798 -0.5593 -0.1068 -0.3775
 2633TIP3   OH229389   4.536   2.284   0.179  0.1414  0.1039 -0.0159
 2633TIP3    H129390   4.459   2.286   0.236 -1.1329  0.0217 -1.6671
 2633TIP3    H229391   4.553   2.191   0.165  1.6307  0.0650  1.6817
 2634TIP3   OH229392   0.475   2.088   1.245  0.5162 -0.2855  1.3210
 2634TIP3    H129393   0.437   2.014   1.292 -0.8320  0.8548  2.0888
 2634TIP3    H229394   0.529   2.133   1.310  1.0697 -0.3931  0.9442
 2635TIP3   OH229395   0.476   2.081   6.707  0.1005 -0.2738 -0.3699
 2635TIP3    H129396   0.551   2.130   6.672  0.7064 -1.8111 -1.3632
 2635TIP3    H229397   0.437   2.039   6.630 -2.0341  0.7462  0.0711
 2636TIP3   OH229398   3.872   1.103   6.356 -0.2252  0.4479 -0.3211
 2636TIP3    H129399   3.899   1.012   6.350  0.7659  0.6849  0.3695
 2636TIP3    H229400   3.776   1.099   6.362 -0.1584 -0.5787  0.3127
 2637TIP3   OH229401   1.788   3.845  16.893  0.3113 -0.4378  0.4861
 2637TIP3    H129402   1.775   3.756  16.859 -2.2415  0.6379 -1.6695
 2637TIP3    H229403   1.738   3.847  16.974  3.7829 -2.0372  2.9610
 2638TIP3   OH229404   6.044   0.930  15.341 -0.4362  0.4492  0.4304
 2638TIP3    H129405   5.957   0.964  15.321 -1.0825 -1.5178 -0.3457
 2638TIP3    H229406   6.083   0.911  15.255  1.1244  2.0749  0.7272
 2639TIP3   OH229407   4.490   4.396  12.418 -0.5272 -0.6012 -0.5962
 2639TIP3    H129408   4.496   4.304  12.441  1.5774 -0.1341  1.1166
 2639TIP3    H229409   4.462   4.439  12.499  1.5814  0.5243 -0.3855
 2640TIP3   OH229410   5.880   1.531  13.824  0.2945 -0.4204  0.3961
 2640TIP3    H129411   5.856   1.534  13.732 -2.1530  0.6403  0.9957
 2640TIP3    H229412   5.798   1.515  13.870  0.9697  1.5998  2.5332
 2641TIP3   OH229413   4.555   5.440   4.909  0.0531 -0.3521 -0.4598
 2641TIP3    H129414   4.508   5.523   4.895 -0.7694 -0.9090 -1.0592
 2641TIP3    H229415   4.645   5.467   4.930 -0.3478  0.7082 -0.0479
 2642TIP3   OH229416   4.541   3.601  15.789  0.6019  0.1488 -0.3232
 2642TIP3    H129417   4.571   3.546  15.862  2.0022 -0.4480 -1.3089
 2642TIP3    H229418   4.447   3.584  15.784  0.2389  0.9902  1.9660
 2643TIP3   OH229419   4.175   6.750  12.592 -0.0007 -0.3185 -0.0531
 2643TIP3    H129420   4.232   6.747  12.515 -0.1060 -1.9158 -0.1036
 2643TIP3    H229421   4.087   6.742  12.556 -0.1852  0.7183  0.1301
 2644TIP3   OH229422   0.305   6.136   4.060 -0.2526  0.7020 -0.6941
 2644TIP3    H129423   0.290   6.060   4.004 -0.1983 -0.4646  0.8180
 2644TIP3    H229424   0.252   6.206   4.021 -1.0015 -0.3489 -1.6077
 2645TIP3   OH229425   3.073   5.915  13.440 -0.0169  0.1131 -0.6274
 2645TIP3    H129426   3.075   5.826  13.404 -2.2830 -0.0300 -0.5519
 2645TIP3    H229427   3.141   5.962  13.391  0.2531 -1.2824 -1.6704
 2646TIP3   OH229428   6.151   5.965  14.493 -0.2667 -0.0384 -0.5472
 2646TIP3    H129429   6.060   5.938  14.485 -0.0428 -1.1451  0.3964
 2646TIP3    H229430   6.195   5.890  14.535  0.8164  0.9528  0.1560
 2647TIP3   OH229431   5.280   3.211  13.934  0.1865 -0.9944 -0.4406
 2647TIP3    H129432   5.212   3.168  13.986  0.0183 -2.8579 -2.0692
 2647TIP3    H229433   5.363   3.178  13.970  0.1293 -1.0405 -0.3494
 2648TIP3   OH229434   5.352   5.432   4.205  0.1819  0.2843 -0.3765
 2648TIP3    H129435   5.390   5.500   4.260 -1.3754 -1.4284  3.1557
 2648TIP3    H229436   5.264   5.462   4.185  0.3606  0.3938 -1.0424
 2649TIP3   OH229437   1.801   4.378  15.330 -0.7062 -0.1579 -0.1358
 2649TIP3    H129438   1.871   4.373  15.395 -0.2516 -1.3438 -0.6892
 2649TIP3    H229439   1.827   4.448  15.271  1.2291 -2.0056 -1.6557
 2650TIP3   OH229440   3.129   1.807  10.697  0.0673 -0.0270 -0.1879
 2650TIP3    H129441   3.093   1.775  10.614  0.6497 -2.1556  0.3061
 2650TIP3    H229442   3.142   1.728  10.749  0.8901  1.1462  1.4783
 2651TIP3   OH229443   6.483   3.720   3.460  0.2857 -0.0406  0.5728
 2651TIP3    H129444   6.488   3.707   3.365  1.4968 -1.7820  0.8274
 2651TIP3    H229445   6.563   3.766   3.482  1.1929 -1.7431  1.0026
 2652TIP3   OH229446   2.787   1.851   0.064 -0.4608  0.2078 -0.7799
 2652TIP3    H129447   2.725   1.803   0.120  1.2754 -0.7278  0.4612
 2652TIP3    H229448   2.816   1.786   0.000  0.8813 -0.0640  0.0582
 2653TIP3   OH229449   5.980   6.507   2.702 -0.1616  0.2966  0.1662
 2653TIP3    H129450   5.961   6.475   2.790 -2.0744 -1.4145 -0.8018
 2653TIP3    H229451   5.909   6.567   2.681 -1.8613 -2.0880 -1.4852
 2654TIP3   OH229452   1.010   0.343   4.229 -0.1548  0.4779  0.1042
 2654TIP3    H129453   0.990   0.387   4.312  0.3231 -1.0811  1.0940
 2654TIP3    H229454   0.962   0.393   4.163  0.4400  2.5139  1.1208
 2655TIP3   OH229455   0.446   0.325  16.807  0.2571  0.0524 -0.2521
 2655TIP3    H129456   0.468   0.281  16.889  1.6262 -1.1575 -1.2045
 2655TIP3    H229457   0.478   0.415  16.819  0.1702 -0.0265  0.6366
 2656TIP3   OH229458   2.360   0.266  13.895 -0.2385 -0.4001  0.3313
 2656TIP3    H129459   2.370   0.340  13.835  1.3875  0.1585  1.2199
 2656TIP3    H229460   2.449   0.234  13.909 -0.7247 -1.3712  1.3858
 2657TIP3   OH229461   2.478   1.036  10.924 -0.0742 -0.4065 -0.2991
 2657TIP3    H129462   2.446   1.062  10.838 -1.0476  1.2822  0.5349
 2657TIP3    H229463   2.569   1.010  10.908 -0.2566 -0.2015 -1.8341
 2658TIP3   OH229464   5.188   1.896   1.656  0.0198 -0.1401  0.0596
 2658TIP3    H129465   5.145   1.928   1.576  0.0592  1.9458  0.7934
 2658TIP3    H229466   5.238   1.971   1.687  1.8658 -1.6170  0.8228
 2659TIP3   OH229467   5.197   4.277   1.641 -0.3230 -0.1547  0.3275
 2659TIP3    H129468   5.139   4.235   1.705 -1.7415  0.4411 -0.5010
 2659TIP3    H229469   5.184   4.227   1.560  0.5473 -0.1795  0.1923
 2660TIP3   OH229470   1.064   1.690  12.368  0.0665  0.1475  0.6201
 2660TIP3    H129471   1.130   1.651  12.426  0.6648  2.2494  1.4494
 2660TIP3    H229472   1.023   1.758  12.421 -1.3788  0.2377 -0.5531
 2661TIP3   OH229473   6.288   0.259  15.030 -0.4613 -0.5124 -0.1170
 2661TIP3    H129474   6.369   0.215  15.005 -0.8925 -0.6930 -1.2293
 2661TIP3    H229475   6.283   0.248  15.125  0.6505 -0.7752 -0.0793
 2662TIP3   OH229476   2.813   0.484  14.237  0.2424 -0.1915 -0.0249
 2662TIP3    H129477   2.757   0.413  14.267 -1.0854  0.9855  0.3668
 2662TIP3    H229478   2.808   0.550  14.306 -1.5779  1.8923 -1.9773
 2663TIP3   OH229479   3.692   6.072   5.146  0.4899 -0.3804  0.1590
 2663TIP3    H129480   3.689   5.979   5.168 -0.2621 -0.1412  1.1461
 2663TIP3    H229481   3.639   6.114   5.214  1.0722  0.7996 -0.0936
 2664TIP3   OH229482   6.510   0.609  15.000 -0.3440 -0.1537  0.3549
 2664TIP3    H129483   6.488   0.561  15.080  0.5044 -0.8240  0.2053
 2664TIP3    H229484   6.508   0.542  14.931  2.3156 -0.3627  0.3651
 2665TIP3   OH229485   1.605   6.026   4.287 -0.0615  0.1408  0.0677
 2665TIP3    H129486   1.554   6.022   4.206 -0.0065  0.5030  0.0139
 2665TIP3    H229487   1.545   6.062   4.352 -0.7454 -1.9675  0.7032
 2666TIP3   OH229488   1.701   3.931  12.323  0.3050 -0.2588 -0.5116
 2666TIP3    H129489   1.658   3.998  12.270 -1.3336  1.2201  2.4336
 2666TIP3    H229490   1.642   3.856  12.319  1.7283 -1.3845 -3.1248
 2667TIP3   OH229491   2.996   6.281  14.457 -0.1662  0.4757  0.3467
 2667TIP3    H129492   3.013   6.318  14.371 -1.8033 -1.1121 -0.7283
 2667TIP3    H229493   2.900   6.273  14.462 -0.0052 -2.4740  0.9083
 2668TIP3   OH229494   4.746   5.008  12.712 -0.2240 -0.2183 -0.2412
 2668TIP3    H129495   4.812   4.986  12.647  0.3498 -0.9794  0.5713
 2668TIP3    H229496   4.796   5.046  12.785 -0.8314  0.4337 -0.1458
 2669TIP3   OH229497   6.669   1.523  12.856 -0.0419  0.1074 -0.0912
 2669TIP3    H129498   6.715   1.568  12.786 -0.3639  0.1328 -0.2892
 2669TIP3    H229499   6.677   1.430  12.835  3.2543 -0.2195  1.9058
 2670TIP3   OH229500   2.782   4.175  14.627 -0.4014 -0.0449  0.3373
 2670TIP3    H129501   2.747   4.175  14.716  0.0739  2.3952  0.6043
 2670TIP3    H229502   2.773   4.266  14.598  1.6589 -0.2553 -1.2037
 2671TIP3   OH229503   3.448   4.710   2.394 -0.1355 -0.5249  0.2192
 2671TIP3    H129504   3.465   4.647   2.324  1.5092  1.3010 -1.1265
 2671TIP3    H229505   3.415   4.787   2.349 -2.2084 -0.3858  1.8404
 2672TIP3   OH229506   0.478   4.423   0.946 -0.0839  0.1765 -0.0002
 2672TIP3    H129507   0.538   4.371   0.893 -0.6362  0.3525 -0.8072
 2672TIP3    H229508   0.535   4.483   0.995  0.3959  0.3978 -0.8175
 2673TIP3   OH229509   1.447   1.976   5.513  0.2127  0.3272 -0.1845
 2673TIP3    H129510   1.422   2.034   5.441  0.9878 -2.4037 -2.9152
 2673TIP3    H229511   1.538   1.954   5.495 -0.4184 -2.7603 -0.2313
 2674TIP3   OH229512   2.202   3.046  10.422 -0.3147  0.1866 -0.1093
 2674TIP3    H129513   2.134   2.978  10.426 -1.5102  1.3779  0.4312
 2674TIP3    H229514   2.205   3.071  10.330  0.0541 -0.4958 -0.2955
 2675TIP3   OH229515   0.766   3.216  13.270 -0.2844 -0.9315  0.5173
 2675TIP3    H129516   0.724   3.215  13.184 -2.1585  0.0077  1.3653
 2675TIP3    H229517   0.769   3.125  13.297  0.8056 -1.2935 -0.7383
 2676TIP3   OH229518   4.777   4.263   3.975  0.1362 -0.1520  0.0769
 2676TIP3    H129519   4.717   4.309   3.916  0.1395  0.6054  0.6462
 2676TIP3    H229520   4.733   4.265   4.060  0.0629 -1.3689  0.0824
 2677TIP3   OH229521   6.055   3.363  16.574  0.5814 -0.1400 -0.3622
 2677TIP3    H129522   6.030   3.304  16.645  1.0678  0.8700  0.6622
 2677TIP3    H229523   6.049   3.451  16.611 -0.7874  0.5420 -2.0623
 2678TIP3   OH229524   1.195   0.903   5.075 -0.5638  0.3225 -0.6818
 2678TIP3    H129525   1.273   0.894   5.020 -2.0966  2.0368 -3.3291
 2678TIP3    H229526   1.225   0.951   5.152  1.5927 -1.9088  0.0086
 2679TIP3   OH229527   2.187   4.305  15.706  0.0715 -0.0626  0.2817
 2679TIP3    H129528   2.261   4.251  15.680  0.1014 -0.2429  0.7297
 2679TIP3    H229529   2.224   4.371  15.765 -0.1863 -0.4323  0.8757
 2680TIP3   OH229530   4.736   0.679  13.097 -0.6227 -0.4899  0.2177
 2680TIP3    H129531   4.762   0.771  13.095  0.8627 -0.8943 -1.6109
 2680TIP3    H229532   4.720   0.656  13.006 -1.2016 -2.0083  0.6668
 2681TIP3   OH229533   0.489   2.514   0.363 -0.0796 -0.6541  0.2086
 2681TIP3    H129534   0.408   2.487   0.320 -0.5676  0.2581  0.5039
 2681TIP3    H229535   0.552   2.445   0.343  0.2083  0.4061 -3.2949
 2682TIP3   OH229536   6.375   1.040  10.994 -0.0394 -0.1687 -0.0819
 2682TIP3    H129537   6.342   0.972  10.936 -0.0689 -0.3540  0.1506
 2682TIP3    H229538   6.351   1.122  10.952 -2.0253 -0.2716  0.7378
 2683TIP3   OH229539   4.609   2.862   4.865  0.0878 -0.7115 -1.0682
 2683TIP3    H129540   4.594   2.904   4.780  0.1757 -2.3072 -1.9097
 2683TIP3    H229541   4.690   2.902   4.897 -0.6826  0.9276 -1.0328
 2684TIP3   OH229542   5.388   2.926  12.831 -0.3202  0.1844  0.8314
 2684TIP3    H129543   5.436   3.001  12.797 -0.0082  0.0454  0.9622
 2684TIP3    H229544   5.298   2.957  12.842  0.0533  0.8895  2.0433
 2685TIP3   OH229545   4.751   6.549  14.098 -0.0810 -0.6019 -0.3565
 2685TIP3    H129546   4.847   6.556  14.097  0.0814 -2.1001  0.8137
 2685TIP3    H229547   4.727   6.541  14.006  0.5569  3.0251 -0.9988
 2686TIP3   OH229548   6.354   0.963   5.149 -0.4110  0.3321 -0.4372
 2686TIP3    H129549   6.353   0.911   5.068  0.4731 -0.3549 -0.0246
 2686TIP3    H229550   6.334   0.899   5.218  0.0223  0.6774  0.0064
 2687TIP3   OH229551   0.460   4.402   2.240 -0.6422  0.3646  0.2987
 2687TIP3    H129552   0.485   4.455   2.164  1.8486  0.9511  1.4253
 2687TIP3    H229553   0.423   4.464   2.302 -0.4990  0.2824  0.4657
 2688TIP3   OH229554   2.366   0.081  15.128  0.6807 -0.7446 -0.0169
 2688TIP3    H129555   2.306   0.024  15.177  1.9105 -0.9596  1.3160
 2688TIP3    H229556   2.339   0.170  15.150  1.2204 -0.8356  1.1390
 2689TIP3   OH229557   4.449   1.051   4.831  0.4915  0.3212 -0.5152
 2689TIP3    H129558   4.478   0.970   4.790  0.0284 -0.5125  0.7266
 2689TIP3    H229559   4.356   1.036   4.848  0.7819  0.3787  1.3216
 2690TIP3   OH229560   5.377   5.394  13.471  0.1184 -0.3268  0.2947
 2690TIP3    H129561   5.338   5.480  13.455 -1.5614 -0.9074  1.0329
 2690TIP3    H229562   5.308   5.332  13.450  1.1503 -1.4850  0.2335
 2691TIP3   OH229563   6.137   1.787  13.411  0.2187 -0.5783 -0.2187
 2691TIP3    H129564   6.089   1.707  13.435 -0.6905 -0.0214 -0.1535
 2691TIP3    H229565   6.133   1.789  13.316  0.8641 -0.9838 -0.2584
 2692TIP3   OH229566   5.835   1.349  14.212 -0.0318  0.5704  0.7670
 2692TIP3    H129567   5.786   1.270  14.193 -1.3383  1.3290  0.8828
 2692TIP3    H229568   5.927   1.321  14.213 -0.2936 -0.5466 -1.2267
 2693TIP3   OH229569   1.884   0.115  14.143  0.5162 -0.5529  0.2420
 2693TIP3    H129570   1.927   0.143  14.223  1.5994 -1.1954 -0.0913
 2693TIP3    H229571   1.832   0.190  14.115 -0.1535 -0.4423  1.7181
 2694TIP3   OH229572   4.885   0.998   6.265  0.0002  0.0818 -0.4511
 2694TIP3    H129573   4.902   1.086   6.230 -0.7015  0.2814 -0.3196
 2694TIP3    H229574   4.899   0.940   6.191 -1.3187  0.4870 -1.0520
 2695TIP3   OH229575   1.850   1.197  10.727  0.6805 -0.2733 -0.2519
 2695TIP3    H129576   1.913   1.128  10.746  0.5234 -0.0939  1.0314
 2695TIP3    H229577   1.851   1.205  10.632  0.7780 -1.9677 -0.4309
 2696TIP3   OH229578   3.262   3.282  14.337 -0.2863  0.1892  0.2005
 2696TIP3    H129579   3.310   3.273  14.255 -0.6457  0.0924  0.0018
 2696TIP3    H229580   3.255   3.193  14.370 -2.3619 -0.1065 -0.9254
 2697TIP3   OH229581   2.698   1.210  16.103  0.2363  0.4776 -0.6569
 2697TIP3    H129582   2.744   1.221  16.019 -1.9026 -0.0367 -1.9706
 2697TIP3    H229583   2.658   1.295  16.120 -0.3742  0.2316 -0.8314
 2698TIP3   OH229584   2.881   1.218  15.896  0.0388  0.3898 -0.0285
 2698TIP3    H129585   2.868   1.307  15.863 -0.2905  0.2986 -0.1422
 2698TIP3    H229586   2.944   1.179  15.835 -0.9575  0.0508 -0.8653
 2699TIP3   OH229587   0.936   5.847  15.455  0.0756  0.2579 -0.9012
 2699TIP3    H129588   1.012   5.791  15.466 -0.3868 -0.4825 -1.3902
 2699TIP3    H229589   0.864   5.786  15.435 -0.7765  0.8665  0.1531
 2700TIP3   OH229590   0.882   1.782  13.848  0.5536 -0.1791 -0.5738
 2700TIP3    H129591   0.861   1.862  13.897 -1.7609 -0.5105 -0.9194
 2700TIP3    H229592   0.962   1.804  13.800  0.3791  1.6758 -0.1047
 2701TIP3   OH229593   0.344   6.663   2.062  0.1598 -0.5447  0.4250
 2701TIP3    H129594   0.389   6.621   2.136 -0.2783 -0.7787  0.5615
 2701TIP3    H229595   0.268   6.608   2.047  2.1786 -2.8274 -2.7212
 2702TIP3   OH229596   6.387   0.078   1.943  0.8255 -0.1936  0.5760
 2702TIP3    H129597   6.304   0.125   1.941  1.5262  1.0860 -1.7909
 2702TIP3    H229598   6.364  -0.010   1.975 -1.1978  0.4907  1.1558
 2703TIP3   OH229599   4.301   4.821   0.357  0.4415 -0.1868 -0.1272
 2703TIP3    H129600   4.378   4.839   0.303 -0.4692  1.9911 -0.8333
 2703TIP3    H229601   4.252   4.755   0.308  0.4027  0.6276 -1.2328
 2704TIP3   OH229602   3.183   2.979   0.743 -0.5648  0.2006 -0.1043
 2704TIP3    H129603   3.246   2.975   0.672  0.5534  0.0230  0.8695
 2704TIP3    H229604   3.098   2.983   0.700  0.1337  1.0342 -1.4475
 2705TIP3   OH229605   0.994   3.113   1.778  0.5944  0.3214 -0.1270
 2705TIP3    H129606   1.014   3.186   1.836  1.0692  0.1575 -0.0813
 2705TIP3    H229607   0.904   3.088   1.800  0.8179  0.1761  0.6334
 2706TIP3   OH229608   1.491   3.004   1.444  0.2720  0.6232  0.1713
 2706TIP3    H129609   1.525   2.976   1.529 -0.6007  1.6197  0.8815
 2706TIP3    H229610   1.568   3.031   1.395  0.7726  0.1862  0.7063
 2707TIP3   OH229611   6.500   6.236  11.747  0.0469  0.3301  0.7444
 2707TIP3    H129612   6.526   6.160  11.695  0.6193  0.5564  0.6860
 2707TIP3    H229613   6.458   6.200  11.825  0.4174 -0.0469  0.7687
 2708TIP3   OH229614   1.740   5.165   0.610  0.1863 -0.0023 -0.5292
 2708TIP3    H129615   1.817   5.172   0.553  0.4219 -1.8160 -0.4906
 2708TIP3    H229616   1.763   5.097   0.673 -0.6409  0.9608  0.8536
 2709TIP3   OH229617   3.892   1.959  16.900  0.0878  0.4435  0.0046
 2709TIP3    H129618   3.868   1.903  16.826 -1.7451  0.4407  0.5386
 2709TIP3    H229619   3.965   1.914  16.942  0.5085 -0.0606 -1.2258
 2710TIP3   OH229620   3.151   5.497   0.844  0.1089 -0.0455 -0.8050
 2710TIP3    H129621   3.246   5.497   0.843  0.1350  0.1764  0.1266
 2710TIP3    H229622   3.128   5.497   0.937 -0.7934  0.9299 -1.0025
 2711TIP3   OH229623   6.240   5.068   0.964  0.3607 -0.1621 -0.0768
 2711TIP3    H129624   6.275   4.997   0.910  0.1238 -0.0503 -0.3826
 2711TIP3    H229625   6.193   5.124   0.902 -0.7231 -0.5391  0.3895
 2712TIP3   OH229626   6.274   6.411   0.103  0.2961  0.6682 -0.7703
 2712TIP3    H129627   6.300   6.460   0.025 -0.0711 -0.9839 -1.9875
 2712TIP3    H229628   6.333   6.336   0.105 -0.0794  0.3802  0.2290
 2713TIP3   OH229629   1.459   6.288  11.455  1.0141  0.0065 -0.3436
 2713TIP3    H129630   1.482   6.278  11.548 -0.5331 -0.3209  0.0371
 2713TIP3    H229631   1.533   6.251  11.408  1.3678 -0.7983  0.7960
 2714TIP3   OH229632   2.569   2.094  11.704  0.0452  0.4451 -0.3928
 2714TIP3    H129633   2.596   2.025  11.765 -1.7684  1.3474  1.5675
 2714TIP3    H229634   2.635   2.093  11.636  0.5116 -2.7230 -0.0503
 2715TIP3   OH229635   1.507   5.489  11.652  0.5671  0.2080  0.0131
 2715TIP3    H129636   1.602   5.477  11.650  0.7024  0.9046  1.4434
 2715TIP3    H229637   1.475   5.417  11.705  0.4470  0.7992  0.7473
 2716TIP3   OH229638   2.649   2.136   1.881  0.1982 -0.2488 -0.3668
 2716TIP3    H129639   2.616   2.047   1.871 -1.3475  0.3323 -0.6907
 2716TIP3    H229640   2.678   2.140   1.972 -0.4602 -0.8575 -0.1150
 2717TIP3   OH229641   3.339   0.421  15.230 -0.3609 -0.5349 -0.1998
 2717TIP3    H129642   3.322   0.410  15.323  0.2578 -0.8321 -0.1218
 2717TIP3    H229643   3.384   0.341  15.203  0.0014 -0.1959 -0.6224
 2718TIP3   OH229644   0.987   2.696  16.185  0.3044  0.0273  0.6641
 2718TIP3    H129645   0.914   2.757  16.187 -0.0032 -0.3564  1.1780
 2718TIP3    H229646   0.986   2.653  16.270  0.1326 -1.1572  0.0849
 2719TIP3   OH229647   4.752   2.897  14.347 -0.3792 -0.0712 -0.0188
 2719TIP3    H129648   4.706   2.824  14.304 -0.4313 -0.7602  1.1722
 2719TIP3    H229649   4.762   2.869  14.438 -2.1310  2.1853  0.9703
 2720TIP3   OH229650   3.352   0.163  11.842 -0.7503 -0.1394 -0.2687
 2720TIP3    H129651   3.417   0.217  11.889 -1.8197  1.9153 -1.0194
 2720TIP3    H229652   3.404   0.107  11.785  0.4119  0.4800  0.1458
 2721TIP3   OH229653   1.411   2.775  10.788  0.0334  0.4544 -0.6450
 2721TIP3    H129654   1.434   2.868  10.784  0.3208  0.3516 -3.2551
 2721TIP3    H229655   1.378   2.755  10.700 -0.7178 -1.7544  0.0743
 2722TIP3   OH229656   2.154   4.151  13.958 -0.0782 -0.3357  0.3490
 2722TIP3    H129657   2.249   4.160  13.965 -0.2187  4.1227 -0.9147
 2722TIP3    H229658   2.122   4.169  14.047  0.2044  0.6880  0.2550
 2723TIP3   OH229659   3.808   1.765   4.182 -0.1292 -0.3045 -0.0828
 2723TIP3    H129660   3.846   1.850   4.160 -2.0568  0.8542  0.7786
 2723TIP3    H229661   3.791   1.723   4.098  0.0527  0.5361 -0.5443
 2724TIP3   OH229662   2.239   4.675  13.972 -0.7234  0.5685 -0.4967
 2724TIP3    H129663   2.241   4.762  13.933 -0.0494  0.3316 -1.0302
 2724TIP3    H229664   2.330   4.657  13.996 -0.4797 -0.7488 -2.1848
 2725TIP3   OH229665   5.855   0.280  10.858  0.2921 -0.0572  0.0520
 2725TIP3    H129666   5.834   0.297  10.766 -0.7634  0.0291  0.2944
 2725TIP3    H229667   5.888   0.363  10.891 -0.7338  0.3459  0.1154
 2726TIP3   OH229668   5.998   1.577   6.271 -0.0474  0.6003 -0.7811
 2726TIP3    H129669   6.023   1.505   6.329  0.9349  0.6960 -1.0726
 2726TIP3    H229670   6.065   1.644   6.285  0.6071  0.3536 -2.5047
 2727TIP3   OH229671   1.159   6.669   5.918 -0.6883 -0.6993 -0.0722
 2727TIP3    H129672   1.178   6.712   5.835 -1.0407  1.2826  0.8225
 2727TIP3    H229673   1.075   6.706   5.945 -0.3434 -0.9463  1.3887
 2728TIP3   OH229674   4.656   4.102  14.108 -0.1767 -0.2624  0.9801
 2728TIP3    H129675   4.739   4.144  14.131  0.4811 -0.6170 -0.6050
 2728TIP3    H229676   4.619   4.158  14.039  0.7664 -2.2031 -1.2561
 2729TIP3   OH229677   4.057   6.792   3.418 -0.0648 -0.6412  0.2304
 2729TIP3    H129678   4.106   6.811   3.498  1.0899  0.2822 -0.6613
 2729TIP3    H229679   4.086   6.704   3.392 -1.2506 -1.4103  1.3640
 2730TIP3   OH229680   5.767   6.206   1.109 -0.2372 -0.5139 -0.0549
 2730TIP3    H129681   5.737   6.296   1.094 -0.6985 -0.5318  0.7344
 2730TIP3    H229682   5.692   6.162   1.149 -0.6681 -1.7702 -2.1262
 2731TIP3   OH229683   4.081   6.210   1.549  0.1923 -0.5581 -0.7602
 2731TIP3    H129684   4.155   6.181   1.495  0.2303  0.3575 -1.2119
 2731TIP3    H229685   4.121   6.241   1.630  0.2824 -0.2825 -0.9102
 2732TIP3   OH229686   1.563   5.556   6.026  0.3826  0.3297 -0.7717
 2732TIP3    H129687   1.518   5.516   5.951  0.0172  0.7239 -0.7665
 2732TIP3    H229688   1.557   5.490   6.095  1.4197 -0.3694 -1.3137
 2733TIP3   OH229689   6.100   4.870   2.427 -0.2512 -0.2512  0.2046
 2733TIP3    H129690   6.175   4.908   2.381 -0.5948  2.2844  1.5846
 2733TIP3    H229691   6.130   4.782   2.451  1.0997 -0.4628 -1.9561
 2734TIP3   OH229692   0.336   4.293   0.529  0.6751 -0.4258  0.3016
 2734TIP3    H129693   0.326   4.299   0.433 -0.8739 -0.0886  0.4571
 2734TIP3    H229694   0.393   4.366   0.552  1.4001 -0.7572 -0.4063
 2735TIP3   OH229695   4.425   6.808   3.479  0.2149  0.2147 -0.0345
 2735TIP3    H129696   4.490   6.756   3.526  0.7740  0.8621 -0.0713
 2735TIP3    H229697   4.415   6.763   3.395  0.3635 -0.0780  0.1016
 2736TIP3   OH229698   4.866   1.035  16.705  0.2292  0.0298 -0.0532
 2736TIP3    H129699   4.872   1.051  16.611 -0.8464 -0.9076 -0.2962
 2736TIP3    H229700   4.900   0.946  16.716 -0.5669 -0.2307  0.3132
 2737TIP3   OH229701   3.445   4.235  11.809  0.0415  0.3078 -0.2193
 2737TIP3    H129702   3.406   4.255  11.894 -0.4483  0.3820 -0.4564
 2737TIP3    H229703   3.372   4.200  11.757  0.2068  0.7980 -0.7891
 2738TIP3   OH229704   4.005   1.252   0.434 -0.0980 -0.5210 -0.1149
 2738TIP3    H129705   4.011   1.301   0.352 -0.6048 -0.9995 -0.4509
 2738TIP3    H229706   4.089   1.206   0.441  0.0229 -0.3196 -0.2657
 2739TIP3   OH229707   0.006   3.583  15.014 -0.4303 -0.8494 -0.7638
 2739TIP3    H129708   0.067   3.532  15.066  0.7793 -1.2724 -2.5248
 2739TIP3    H229709   0.051   3.666  14.998 -1.6831  0.1552  0.6271
 2740TIP3   OH229710   4.862   0.357  15.884  0.3150 -0.6266  0.0166
 2740TIP3    H129711   4.772   0.324  15.892  1.3161 -3.1201  2.1316
 2740TIP3    H229712   4.892   0.323  15.800 -0.2830 -0.8686 -0.1068
 2741TIP3   OH229713   4.449   4.633  14.929 -0.1960 -0.1921 -0.2418
 2741TIP3    H129714   4.420   4.627  14.838 -1.7839 -0.0541  0.2305
 2741TIP3    H229715   4.403   4.563  14.974 -0.0455  0.2420  0.6182
 2742TIP3   OH229716   5.924   4.518  11.983 -0.0646  0.1521 -0.2587
 2742TIP3    H129717   5.896   4.481  11.899 -0.5877  0.1765 -0.0938
 2742TIP3    H229718   5.947   4.442  12.036 -1.5390  0.0259  0.2251
 2743TIP3   OH229719   4.830   5.399   1.825 -0.7819 -0.1019 -0.5105
 2743TIP3    H129720   4.784   5.354   1.896 -0.4502  0.3491 -0.0017
 2743TIP3    H229721   4.808   5.492   1.838 -0.6716 -0.0127 -0.9627
 2744TIP3   OH229722   0.464   6.491   4.850  0.5319 -0.3146 -0.5524
 2744TIP3    H129723   0.535   6.554   4.842 -0.5647  1.3564  1.6924
 2744TIP3    H229724   0.452   6.480   4.944 -1.7383 -1.0411 -0.8599
 2745TIP3   OH229725   5.878   4.811   0.429  0.4906  0.7120 -0.4421
 2745TIP3    H129726   5.886   4.887   0.372 -1.5923  1.1075 -0.2996
 2745TIP3    H229727   5.899   4.844   0.517  0.0788  1.0128 -0.4541
 2746TIP3   OH229728   5.061   6.061  10.778 -0.1959 -0.5628  0.8488
 2746TIP3    H129729   5.046   6.154  10.793  2.3091 -0.2574  1.9959
 2746TIP3    H229730   5.057   6.050  10.683 -1.4485  0.4856  0.7537
 2747TIP3   OH229731   3.231   5.780  15.978 -0.0226 -0.5618 -0.3524
 2747TIP3    H129732   3.306   5.756  16.033  0.0166 -1.4935 -0.7912
 2747TIP3    H229733   3.193   5.856  16.022  1.4660  0.2372 -0.4025
 2748TIP3   OH229734   5.398   4.467   2.781  0.0160  0.0204 -0.2922
 2748TIP3    H129735   5.319   4.459   2.728 -0.6414 -0.3352  0.7104
 2748TIP3    H229736   5.438   4.549   2.752 -0.7019  0.1904 -0.8291
 2749TIP3   OH229737   3.704   5.869  15.035  0.6233 -0.2614 -0.2237
 2749TIP3    H129738   3.668   5.820  15.109  0.8850  0.3988  0.3507
 2749TIP3    H229739   3.646   5.847  14.962  1.3488 -2.2491 -0.2557
 2750TIP3   OH229740   2.679   6.676  12.706 -0.2214 -0.1575  0.2665
 2750TIP3    H129741   2.658   6.759  12.664 -1.6201 -1.1903 -1.2115
 2750TIP3    H229742   2.773   6.665  12.692 -0.4260  0.1226 -1.5694
 2751TIP3   OH229743   5.967   4.956  11.125  0.3404  0.6384  0.1822
 2751TIP3    H129744   5.966   5.013  11.049 -0.0730 -1.2288 -1.2979
 2751TIP3    H229745   5.963   4.867  11.089 -2.8557 -0.3021  2.3950
 2752TIP3   OH229746   3.231   4.117   5.555  0.2839  0.1325 -0.4571
 2752TIP3    H129747   3.219   4.027   5.526 -2.1048  0.3136 -0.2397
 2752TIP3    H229748   3.324   4.123   5.577  0.4124 -2.4348  0.0410
 2753TIP3   OH229749   6.687   1.404  11.215 -0.4816  0.1324 -0.1584
 2753TIP3    H129750   6.617   1.374  11.273  0.9846  0.6715  1.9991
 2753TIP3    H229751   6.703   1.494  11.240 -0.5408  0.7876 -2.2332
 2754TIP3   OH229752   1.011   5.486  15.288  0.3537 -0.5337  0.4396
 2754TIP3    H129753   1.071   5.539  15.340  0.1440 -0.9250  1.0930
 2754TIP3    H229754   1.030   5.511  15.197  1.0238 -0.1549  0.6725
 2755TIP3   OH229755   1.192   2.143  14.312  0.0547  0.6144  0.0287
 2755TIP3    H129756   1.282   2.167  14.287  0.5803 -2.4981 -1.6155
 2755TIP3    H229757   1.196   2.129  14.407  0.4778  3.3423  0.4948
 2756TIP3   OH229758   1.713   0.191  12.662  0.6006 -0.5262  0.0965
 2756TIP3    H129759   1.804   0.190  12.691  0.2545  2.2380  1.7418
 2756TIP3    H229760   1.716   0.168  12.570  2.8827 -1.0960  0.2644
 2757TIP3   OH229761   1.376   2.778  13.441  0.5202  0.1891 -0.4894
 2757TIP3    H129762   1.448   2.842  13.435  2.1897 -1.6345 -0.8997
 2757TIP3    H229763   1.402   2.719  13.511 -0.7216 -0.3801 -0.4840
 2758TIP3   OH229764   1.993   4.427  16.420  0.4672 -0.8795 -0.4706
 2758TIP3    H129765   2.050   4.357  16.452  0.2375  0.2225  2.7166
 2758TIP3    H229766   1.906   4.403  16.451  0.0797 -0.0798 -0.9185
 2759TIP3   OH229767   6.219   6.036   4.704 -0.2016 -0.6658  0.2358
 2759TIP3    H129768   6.210   5.954   4.655 -1.4661 -0.4852  0.1481
 2759TIP3    H229769   6.312   6.058   4.696 -0.0800 -1.4604 -0.7550
 2760TIP3   OH229770   6.174   4.329   3.932 -0.8728  0.0039  0.6529
 2760TIP3    H129771   6.161   4.244   3.974 -2.7859  0.1388  0.4106
 2760TIP3    H229772   6.120   4.326   3.853 -0.4796  1.2220  0.3133
 2761TIP3   OH229773   5.137   4.598   0.298 -0.6442  0.2013 -0.5371
 2761TIP3    H129774   5.216   4.543   0.301  0.0209  1.1646  1.1880
 2761TIP3    H229775   5.116   4.605   0.205  0.6163 -1.0516 -0.9504
 2762TIP3   OH229776   0.092   4.657   3.143 -0.6442 -0.6508  0.5592
 2762TIP3    H129777   0.151   4.721   3.102 -0.9162  0.4485  1.8157
 2762TIP3    H229778   0.130   4.572   3.121  0.3378 -0.0303 -0.2527
 2763TIP3   OH229779   0.882   2.909  16.895 -0.8976 -0.1759 -0.0381
 2763TIP3    H129780   0.961   2.862  16.922 -1.8455 -2.5036 -1.0001
 2763TIP3    H229781   0.883   2.903  16.800 -1.0877  1.8412 -0.2059
 2764TIP3   OH229782   5.244   5.095   5.354  0.5039 -0.4257 -0.4810
 2764TIP3    H129783   5.318   5.131   5.403 -0.1216  0.4279 -0.1408
 2764TIP3    H229784   5.247   5.001   5.372  1.5957 -0.4288 -0.5991
 2765TIP3   OH229785   4.929   6.557  16.931 -0.1223  0.7676 -0.1146
 2765TIP3    H129786   4.933   6.527  17.022 -1.0384  0.8143 -0.0524
 2765TIP3    H229787   4.839   6.540  16.904  0.2938  0.2345 -1.1990
 2766TIP3   OH229788   4.445   3.621  12.830 -0.4500  0.5523  0.2087
 2766TIP3    H129789   4.368   3.566  12.814 -0.7196  1.3200 -1.3594
 2766TIP3    H229790   4.513   3.584  12.773  0.1321  0.3297  1.0321
 2767TIP3   OH229791   1.412   6.468  13.333  0.1006  0.4766  0.4015
 2767TIP3    H129792   1.382   6.526  13.263 -1.0055 -0.4927  0.0508
 2767TIP3    H229793   1.506   6.486  13.340  0.5156 -0.3025 -2.1925
 2768TIP3   OH229794   5.505   3.171  12.032  0.0378  0.4119 -1.0589
 2768TIP3    H129795   5.593   3.134  12.039  0.5614  1.2025 -2.8438
 2768TIP3    H229796   5.519   3.261  12.003 -1.3616  0.5625 -1.3427
 2769TIP3   OH229797   6.138   0.204   5.022 -0.2139  0.3334 -0.1424
 2769TIP3    H129798   6.154   0.295   4.997 -0.7493  0.4288 -0.1413
 2769TIP3    H229799   6.177   0.196   5.109  0.4412  0.3708 -0.4284
 2770TIP3   OH229800   2.222   1.942   2.342 -0.1000  0.1643 -0.0252
 2770TIP3    H129801   2.274   1.925   2.420 -1.4218  0.2674  0.9201
 2770TIP3    H229802   2.131   1.929   2.371 -0.6872  1.3120 -1.2486
 2771TIP3   OH229803   2.240   1.625  13.466  0.3389 -0.1895 -0.0515
 2771TIP3    H129804   2.243   1.677  13.546  1.7531 -2.0561  1.1940
 2771TIP3    H229805   2.147   1.620  13.444 -0.2421 -0.8590  2.3347
 2772TIP3   OH229806   2.499   6.693   5.151 -0.6718 -0.2886  0.0269
 2772TIP3    H129807   2.427   6.752   5.126 -2.0266 -1.0246  1.9477
 2772TIP3    H229808   2.525   6.723   5.238  0.8466 -0.5356 -0.3253
 2773TIP3   OH229809   6.161   0.070   5.986 -0.0337 -0.2605 -0.4210
 2773TIP3    H129810   6.173   0.023   6.068 -0.1201  0.8840  0.2654
 2773TIP3    H229811   6.073   0.045   5.957 -0.1330 -0.4190  0.0063
 2774TIP3   OH229812   3.877   3.932  14.419  0.1143 -0.3069  0.9079
 2774TIP3    H129813   3.910   4.015  14.385  0.4807 -0.5358  0.7049
 2774TIP3    H229814   3.952   3.891  14.461 -0.3709  0.0503  2.1776
 2775TIP3   OH229815   2.555   5.185   0.048  0.1845  0.7110 -0.0089
 2775TIP3    H129816   2.645   5.203   0.076  0.6532 -1.8722  0.4123
 2775TIP3    H229817   2.505   5.262   0.075  2.3013  2.3743 -0.5827
 2776TIP3   OH229818   1.002   4.717  14.806 -0.3433 -0.4597  0.2077
 2776TIP3    H129819   1.008   4.711  14.711 -0.2793 -1.8516  0.2834
 2776TIP3    H229820   0.908   4.709  14.825 -0.5233  1.2322  0.2075
 2777TIP3   OH229821   3.752   0.226  10.667  0.3085 -0.2062 -0.0100
 2777TIP3    H129822   3.739   0.135  10.644  0.8393 -0.5607  1.0253
 2777TIP3    H229823   3.815   0.224  10.739  1.0060  1.0286 -0.5511
 2778TIP3   OH229824   1.629   1.643  11.171 -0.2109  0.4300  0.4037
 2778TIP3    H129825   1.536   1.649  11.147 -0.1846  0.8464  0.3937
 2778TIP3    H229826   1.644   1.550  11.187  0.3840 -0.3455 -3.6013
 2779TIP3   OH229827   0.909   5.009  13.825 -0.0993  0.0626  0.5265
 2779TIP3    H129828   0.894   4.986  13.733  2.1199 -0.7210  0.2931
 2779TIP3    H229829   0.972   5.081  13.821  2.1255 -1.7144  1.3886
 2780TIP3   OH229830   6.708   4.642  13.326  0.8128 -0.7496 -0.5041
 2780TIP3    H129831   6.634   4.653  13.386 -0.1614 -2.8129 -1.2254
 2780TIP3    H229832   6.761   4.721  13.338 -0.1756 -0.3647  1.8741
 2781TIP3   OH229833   4.026   5.704  10.787 -0.1886  0.0218 -0.0565
 2781TIP3    H129834   4.069   5.695  10.872  0.8570  1.7366 -0.3540
 2781TIP3    H229835   3.995   5.795  10.786 -1.1250 -0.2890 -1.0994
 2782TIP3   OH229836   0.980   3.526  16.734  0.1099 -0.3947 -0.0891
 2782TIP3    H129837   0.989   3.538  16.639  1.4743  0.2123  0.0864
 2782TIP3    H229838   0.928   3.601  16.763 -0.2194 -0.5244 -0.3444
 2783TIP3   OH229839   5.139   4.147   5.143  0.3145 -0.2881 -0.1756
 2783TIP3    H129840   5.080   4.222   5.138  1.3139  0.5309 -0.2241
 2783TIP3    H229841   5.121   4.096   5.064  0.6238  0.7048 -0.9157
 2784TIP3   OH229842   3.297   4.038   4.356 -0.3248 -0.7825 -0.6019
 2784TIP3    H129843   3.386   4.028   4.321 -0.2234  0.0290 -0.6011
 2784TIP3    H229844   3.281   4.133   4.354 -1.5521 -0.9890 -1.4933
 2785TIP3   OH229845   0.317   0.301  10.743  0.0201 -0.8840 -0.2416
 2785TIP3    H129846   0.327   0.395  10.732 -0.5083 -0.7483  0.4356
 2785TIP3    H229847   0.288   0.270  10.657 -0.6599 -0.3046 -0.2272
 2786TIP3   OH229848   4.508   3.721  16.393  0.6518  0.0884  0.5667
 2786TIP3    H129849   4.516   3.717  16.298 -0.5410  1.3554  0.3860
 2786TIP3    H229850   4.452   3.646  16.416  0.1635  0.3310  0.1685
 2787TIP3   OH229851   3.062   2.638  16.022  0.5176  0.2142  0.1281
 2787TIP3    H129852   3.112   2.592  16.090 -0.2989 -1.6485 -0.4569
 2787TIP3    H229853   3.127   2.661  15.956  1.5168  2.9923  1.9092
 2788TIP3   OH229854   0.440   3.229   3.406 -0.0236  0.0465  0.6096
 2788TIP3    H129855   0.345   3.230   3.393  0.1290  0.9461 -0.6224
 2788TIP3    H229856   0.451   3.227   3.501 -1.2724 -0.0768  0.7729
 2789TIP3   OH229857   3.450   5.171   0.161 -0.1705 -0.2017  0.0608
 2789TIP3    H129858   3.518   5.237   0.169 -0.9971  0.4968  1.9348
 2789TIP3    H229859   3.435   5.140   0.250 -2.6637  0.0737 -0.1829
 2790TIP3   OH229860   1.460   6.221   2.537 -0.3768 -0.2417 -0.1620
 2790TIP3    H129861   1.429   6.160   2.604 -1.7863  0.6717  0.0567
 2790TIP3    H229862   1.386   6.280   2.522  0.4334  0.4957 -1.4478
 2791TIP3   OH229863   1.110   5.984  15.947  0.2969 -0.0971  0.1020
 2791TIP3    H129864   1.034   6.019  15.993  0.6391  0.1608  0.4707
 2791TIP3    H229865   1.172   6.056  15.943  0.5580 -0.3295 -0.1233
 2792TIP3   OH229866   0.571   3.726  11.506 -0.3009 -0.1522 -0.1681
 2792TIP3    H129867   0.605   3.815  11.506 -2.2366  0.6388 -0.7322
 2792TIP3    H229868   0.608   3.686  11.584  0.6721  1.1065  0.0471
 2793TIP3   OH229869   2.332   0.319  12.475 -0.3348  0.1722 -0.5892
 2793TIP3    H129870   2.263   0.384  12.472  0.1287  0.6941 -0.1833
 2793TIP3    H229871   2.390   0.341  12.402  0.6538  1.1849  0.4542
 2794TIP3   OH229872   0.677   3.416   2.020  0.3263  0.5639 -0.0204
 2794TIP3    H129873   0.730   3.472   2.076  0.0271  0.5988  0.2331
 2794TIP3    H229874   0.589   3.454   2.025  0.4142  0.9407 -1.0032
 2795TIP3   OH229875   4.693   5.692  12.290  0.1742 -0.3882  0.4612
 2795TIP3    H129876   4.764   5.645  12.333  0.5081 -0.3536 -0.0484
 2795TIP3    H229877   4.699   5.666  12.198 -0.6942 -0.6617  0.4764
 2796TIP3   OH229878   2.903   6.792  12.026 -0.2381  0.4106 -0.1070
 2796TIP3    H129879   2.987   6.835  12.010 -0.3253  0.6144 -0.0288
 2796TIP3    H229880   2.914   6.746  12.109 -0.2606  0.5869 -0.0055
 2797TIP3   OH229881   5.736   2.439  10.794 -0.2034 -0.1060  0.2769
 2797TIP3    H129882   5.720   2.447  10.700  1.6612 -0.7587 -0.1323
 2797TIP3    H229883   5.761   2.528  10.821  3.8005 -0.6863 -0.8575
 2798TIP3   OH229884   6.470   5.868   3.729  0.1213 -0.0349  0.0672
 2798TIP3    H129885   6.528   5.815   3.674 -0.3353 -2.3091  1.6123
 2798TIP3    H229886   6.384   5.860   3.687  0.1834  0.0050 -0.0666
 2799TIP3   OH229887   3.031   5.650   3.941 -0.4184 -0.2307 -0.6200
 2799TIP3    H129888   3.014   5.612   3.855 -1.7471 -0.5379 -0.2520
 2799TIP3    H229889   2.991   5.737   3.938 -0.5041 -0.2570 -0.3022
 2800TIP3   OH229890   0.325   3.681   4.364  0.2684 -0.2069 -0.2407
 2800TIP3    H129891   0.411   3.638   4.366  1.4747  1.8945 -1.9107
 2800TIP3    H229892   0.303   3.685   4.271 -1.1518  0.2726  0.0914
 2801TIP3   OH229893   0.544   6.807  16.894  0.1048  0.2710  0.0195
 2801TIP3    H129894   0.636   6.784  16.878  0.0883  0.4867 -0.4081
 2801TIP3    H229895   0.548   6.888  16.945  0.1682  1.6445 -2.0501
 2802TIP3   OH229896   3.062   5.360  15.814 -0.2109  0.4572  0.1947
 2802TIP3    H129897   3.120   5.322  15.879  0.1481  0.5947 -0.0399
 2802TIP3    H229898   3.114   5.429  15.773  0.1535 -0.6784 -1.3693
 2803TIP3   OH229899   2.340   2.756  12.605  0.6015 -0.2623 -0.0973
 2803TIP3    H129900   2.372   2.687  12.663  0.2183 -0.9972 -0.7290
 2803TIP3    H229901   2.413   2.818  12.597  1.9209 -1.8898 -1.5147
 2804TIP3   OH229902   4.703   1.209   5.503  0.4309 -0.2820  0.2445
 2804TIP3    H129903   4.759   1.284   5.524  1.5832 -1.1830  0.5011
 2804TIP3    H229904   4.764   1.141   5.472 -0.7299 -0.5987 -1.5407
 2805TIP3   OH229905   2.140   6.325   2.904 -0.3488  0.7407 -0.0862
 2805TIP3    H129906   2.074   6.256   2.904  0.5745 -0.2924  2.3625
 2805TIP3    H229907   2.176   6.325   2.816 -1.3795 -0.9272 -0.5451
 2806TIP3   OH229908   2.637   0.330   3.147 -0.0600  0.4382  0.4667
 2806TIP3    H129909   2.615   0.291   3.232 -0.4099 -1.8156 -0.5832
 2806TIP3    H229910   2.713   0.280   3.117  0.0687  1.2095 -0.5511
 2807TIP3   OH229911   2.971   1.020   5.045 -0.2727  0.8818  0.3491
 2807TIP3    H129912   2.882   0.988   5.057 -0.1046  0.1112 -0.3313
 2807TIP3    H229913   2.967   1.077   4.968  0.3984 -1.8834 -1.9105
 2808TIP3   OH229914   2.270   4.808  12.343 -0.3734  0.0765  0.8015
 2808TIP3    H129915   2.354   4.778  12.376 -0.3694 -0.6225  0.1765
 2808TIP3    H229916   2.218   4.826  12.421 -0.2334 -1.1584  1.1880
 2809TIP3   OH229917   2.204   4.847  16.303 -0.2108  0.3200 -0.3376
 2809TIP3    H129918   2.193   4.803  16.388 -0.9328 -0.5660 -0.8826
 2809TIP3    H229919   2.296   4.875  16.304 -0.0063 -0.3122  0.4407
 2810TIP3   OH229920   1.359   2.026   4.921  0.1847  0.2219  0.0187
 2810TIP3    H129921   1.312   1.972   4.984 -1.7734  2.0722  0.2646
 2810TIP3    H229922   1.367   2.111   4.964  1.3196  0.7380 -1.1493
 2811TIP3   OH229923   1.681   0.182   1.898 -0.2590 -0.1112 -0.2391
 2811TIP3    H129924   1.703   0.244   1.968  1.1467  0.5635 -1.2208
 2811TIP3    H229925   1.635   0.236   1.834  0.5960 -0.1548 -0.9056
 2812TIP3   OH229926   5.571   5.584   3.985  0.8101  0.0410  0.4536
 2812TIP3    H129927   5.639   5.623   4.040 -0.2909 -1.1825  2.8414
 2812TIP3    H229928   5.504   5.652   3.977  0.7125  0.0309  1.1549
 2813TIP3   OH229929   5.460   5.777   1.248  0.5605 -0.0793  0.0998
 2813TIP3    H129930   5.465   5.685   1.223 -0.0031  0.1052 -0.6937
 2813TIP3    H229931   5.455   5.774   1.344 -0.6235 -0.9318  0.0397
 2814TIP3   OH229932   2.083   4.428   2.173 -0.4590  0.3821  0.5200
 2814TIP3    H129933   2.009   4.440   2.233 -0.8194  3.4470 -0.3387
 2814TIP3    H229934   2.155   4.474   2.215  0.4420 -0.8830  0.4036
 2815TIP3   OH229935   3.809   2.118  13.437 -0.0527 -0.2714 -0.4017
 2815TIP3    H129936   3.821   2.104  13.531 -1.8619 -1.2874 -0.2884
 2815TIP3    H229937   3.899   2.123  13.402  0.6724 -2.0116  1.0639
 2816TIP3   OH229938   5.691   0.848   1.239 -0.3739 -0.2344 -0.2594
 2816TIP3    H129939   5.779   0.875   1.266 -0.4269 -0.4538  0.1426
 2816TIP3    H229940   5.669   0.777   1.299 -0.4892 -0.7467 -0.8939
 2817TIP3   OH229941   0.144   1.755   5.866  1.0613  0.2272 -0.1336
 2817TIP3    H129942   0.151   1.851   5.859  2.6057  0.0940 -0.7079
 2817TIP3    H229943   0.163   1.737   5.958 -0.3512  0.5303  0.2455
 2818TIP3   OH229944   0.210   2.561   1.726  0.0893  0.8765  0.2540
 2818TIP3    H129945   0.289   2.526   1.768 -0.2904  0.7939  0.9098
 2818TIP3    H229946   0.149   2.574   1.798 -0.5044  0.9287 -0.2557
 2819TIP3   OH229947   6.639   2.106  13.756  0.0234  0.5395  0.2923
 2819TIP3    H129948   6.662   2.014  13.770  0.4998  0.6847  0.5062
 2819TIP3    H229949   6.723   2.151  13.755 -0.2091  0.9716  0.1750
 2820TIP3   OH229950   5.137   4.148  15.417  0.4162 -0.5952 -0.0615
 2820TIP3    H129951   5.136   4.156  15.513 -1.4638  1.0259 -0.1689
 2820TIP3    H229952   5.062   4.093  15.396 -1.8879  2.5445 -0.7492
 2821TIP3   OH229953   0.375   4.158   3.499 -0.6040  0.6114 -0.2544
 2821TIP3    H129954   0.468   4.176   3.509 -0.5860  2.1206 -2.3689
 2821TIP3    H229955   0.334   4.196   3.576  0.4248  0.8611  0.1833
 2822TIP3   OH229956   0.107   5.108   4.755  0.3499 -1.2636  0.4620
 2822TIP3    H129957   0.118   5.055   4.834  0.7436 -0.0613  1.2519
 2822TIP3    H229958   0.046   5.059   4.701 -1.9712 -0.9521  2.6325
 2823TIP3   OH229959   5.251   4.303  16.278 -0.1033  0.2034  0.2665
 2823TIP3    H129960   5.285   4.241  16.213  0.2204 -1.4116  1.8997
 2823TIP3    H229961   5.322   4.314  16.341 -1.0902  0.1050  1.4453
 2824TIP3   OH229962   3.055   0.883   1.437 -0.0684  0.5837 -0.1063
 2824TIP3    H129963   3.068   0.978   1.447  0.0542  0.7358 -1.5332
 2824TIP3    H229964   2.969   0.867   1.476 -1.2823  1.7408 -2.1183
 2825TIP3   OH229965   5.802   1.807  12.808 -0.5140 -0.0848 -0.0887
 2825TIP3    H129966   5.763   1.870  12.869 -0.9929 -0.8878  0.4385
 2825TIP3    H229967   5.873   1.856  12.766 -1.4459  1.0994 -0.3468
 2826TIP3   OH229968   2.663   1.638  12.429 -0.2159  0.3540  0.5932
 2826TIP3    H129969   2.652   1.549  12.397 -3.1568  1.3050 -1.4530
 2826TIP3    H229970   2.575   1.665  12.456  0.6572  2.5470  1.4881
 2827TIP3   OH229971   6.509   4.403   5.229 -0.2497 -0.5052  0.4803
 2827TIP3    H129972   6.464   4.368   5.306 -0.3024  2.1349  1.7527
 2827TIP3    H229973   6.587   4.447   5.264  0.6834 -0.7587 -1.1738
 2828TIP3   OH229974   4.244   5.953  13.035 -0.3994  0.4366  0.4996
 2828TIP3    H129975   4.243   5.938  12.940  0.6853 -0.1153  0.5615
 2828TIP3    H229976   4.269   5.869  13.072  1.7634  1.2916  1.1130
 2829TIP3   OH229977   3.098   4.895  15.264 -0.7374 -0.1373 -0.1153
 2829TIP3    H129978   3.078   4.813  15.220  1.3520 -2.0016  2.1384
 2829TIP3    H229979   3.194   4.900  15.264 -0.7281  0.9007  2.1539
 2830TIP3   OH229980   2.002   3.896  15.278  0.0695  0.0271  0.3092
 2830TIP3    H129981   2.035   3.958  15.213 -0.5331 -1.1018 -1.1382
 2830TIP3    H229982   2.010   3.942  15.361  0.5073  1.6771 -0.5955
 2831TIP3   OH229983   4.937   1.184  12.369 -0.1722  0.0154 -0.0105
 2831TIP3    H129984   4.975   1.268  12.393  1.1359 -0.8878  1.3154
 2831TIP3    H229985   4.966   1.124  12.438  1.3032 -2.1458 -2.3022
 2832TIP3   OH229986   2.174   4.857  16.769  0.1398  0.5183  0.4607
 2832TIP3    H129987   2.269   4.846  16.776  0.3354  1.3225 -0.5708
 2832TIP3    H229988   2.159   4.880  16.677 -1.2804 -1.6500  0.0815
 2833TIP3   OH229989   2.496   4.660   2.848 -0.5943 -0.0560  0.0638
 2833TIP3    H129990   2.527   4.742   2.811 -0.9061 -0.2351 -0.5957
 2833TIP3    H229991   2.433   4.626   2.784  0.3366 -1.3455 -0.1961
 2834TIP3   OH229992   0.071   0.785   0.405  0.1765  0.8734  0.3453
 2834TIP3    H129993   0.015   0.847   0.358  0.5569  0.4825 -0.6305
 2834TIP3    H229994   0.155   0.789   0.360 -0.1986 -1.4055 -0.6513
 2835TIP3   OH229995   0.071   3.955  13.928 -0.6016 -0.1500 -0.0122
 2835TIP3    H129996   0.147   3.942  13.871 -0.1711  1.1935  0.2080
 2835TIP3    H229997   0.042   4.044  13.909 -0.5784  0.2621  1.6887
 2836TIP3   OH229998   4.662   0.176  12.720 -0.1529 -0.3449 -0.5650
 2836TIP3    H129999   4.629   0.186  12.631 -1.3518  0.0937 -0.1047
 2836TIP3    H230000   4.649   0.263  12.760  1.3225 -0.2404 -0.2570
 2837TIP3   OH230001   0.339   2.164  14.839 -0.1151 -0.4998 -0.5490
 2837TIP3    H130002   0.366   2.142  14.750 -1.0639 -0.2934 -0.8953
 2837TIP3    H230003   0.245   2.178  14.833  0.0323  1.0391  0.1869
 2838TIP3   OH230004   3.772   2.096  13.707  0.2375  0.1713 -0.2275
 2838TIP3    H130005   3.725   2.163  13.755 -0.7829  0.7493 -1.9445
 2838TIP3    H230006   3.861   2.099  13.742 -0.2210  1.2278  0.8964
 2839TIP3   OH230007   5.427   5.387   1.374 -0.2236  0.4255 -0.3038
 2839TIP3    H130008   5.496   5.419   1.431 -0.1264  0.0064 -0.1822
 2839TIP3    H230009   5.346   5.411   1.418 -0.1616 -1.0424  0.6902
 2840TIP3   OH230010   0.727   5.461  15.061 -0.1534 -0.3092 -0.1435
 2840TIP3    H130011   0.707   5.546  15.023 -1.2080 -0.5190 -0.0854
 2840TIP3    H230012   0.756   5.480  15.150  0.5212  0.0467 -0.4297
 2841TIP3   OH230013   4.844   6.206  15.718  0.5609  0.2357 -0.7908
 2841TIP3    H130014   4.788   6.175  15.789  0.1488  0.6070 -0.9525
 2841TIP3    H230015   4.834   6.140  15.649 -0.7049  0.9571 -1.3278
 2842TIP3   OH230016   2.241   4.065  11.289  0.8439 -0.1870 -0.3134
 2842TIP3    H130017   2.191   4.144  11.268  1.7021  0.1059 -1.3125
 2842TIP3    H230018   2.174   4.000  11.311  0.1573  1.0801  1.6032
 2843TIP3   OH230019   0.847   1.705  10.511 -0.3798 -0.2392  0.0591
 2843TIP3    H130020   0.813   1.616  10.504 -1.2889 -0.0892  1.8913
 2843TIP3    H230021   0.786   1.758  10.460  1.0142 -0.7800 -2.3384
 2844TIP3   OH230022   2.228   0.096  10.538 -1.0199  0.3016  0.2250
 2844TIP3    H130023   2.193   0.154  10.605 -0.0321  0.2265  0.8192
 2844TIP3    H230024   2.246   0.153  10.463  0.6053  0.9310  1.0436
 2845TIP3   OH230025   0.554   1.180  15.599 -0.0669 -0.2013 -0.3304
 2845TIP3    H130026   0.621   1.243  15.628 -1.3680  1.3049 -0.4654
 2845TIP3    H230027   0.581   1.097  15.638  1.2568  0.6125  0.5712
 2846TIP3   OH230028   4.112   6.197   2.471  0.4050 -0.4626  0.5469
 2846TIP3    H130029   4.200   6.190   2.434  0.6972  2.4602  0.4749
 2846TIP3    H230030   4.059   6.234   2.399 -0.7886 -1.6137  0.7818
 2847TIP3   OH230031   2.627   1.072  11.359  0.4107  0.2178  0.2019
 2847TIP3    H130032   2.549   1.024  11.387  0.6562  0.5372  1.4791
 2847TIP3    H230033   2.679   1.008  11.311 -0.5503 -0.0398 -0.5256
 2848TIP3   OH230034   6.650   4.890   2.642  0.4367  0.2860 -0.4357
 2848TIP3    H130035   6.574   4.843   2.676  0.1526  0.3586 -0.9537
 2848TIP3    H230036   6.721   4.868   2.702 -0.0787  0.5154  0.2606
 2849TIP3   OH230037   4.999   5.155   0.479  0.1525 -0.3987 -0.2140
 2849TIP3    H130038   5.087   5.170   0.445  0.7472 -0.0331  1.3638
 2849TIP3    H230039   4.960   5.243   0.483 -0.9804 -0.7208 -2.5368
 2850TIP3   OH230040   2.914   1.258   1.055 -0.4859  0.0794  0.4816
 2850TIP3    H130041   2.939   1.260   0.963 -1.5414 -0.4440  0.1648
 2850TIP3    H230042   2.877   1.345   1.071  2.5396  1.3351  1.3002
 2851TIP3   OH230043   4.335   1.740   1.753  0.1258  0.7158  0.3706
 2851TIP3    H130044   4.401   1.710   1.690 -0.5901 -0.8663  0.3286
 2851TIP3    H230045   4.386   1.762   1.832  0.7004 -0.7606  0.4423
 2852TIP3   OH230046   4.253   2.544  16.086  0.5821 -0.6037 -0.4784
 2852TIP3    H130047   4.299   2.460  16.088  0.7417 -0.5216 -0.7173
 2852TIP3    H230048   4.188   2.534  16.016 -1.3834 -1.5685  1.3602
 2853TIP3   OH230049   3.418   2.712  12.305  0.0589  0.2151 -0.0495
 2853TIP3    H130050   3.482   2.728  12.236 -0.8189  0.7687 -0.7604
 2853TIP3    H230051   3.468   2.670  12.376  1.4399  1.6545 -0.1217
 2854TIP3   OH230052   1.075   1.209  11.625 -0.3372 -0.1221 -0.1179
 2854TIP3    H130053   1.078   1.274  11.696 -1.0742 -1.0566  0.7976
 2854TIP3    H230054   1.012   1.144  11.655 -1.3863 -0.0701 -2.0694
 2855TIP3   OH230055   4.601   1.362   1.999  0.2920  0.1848 -0.0567
 2855TIP3    H130056   4.563   1.438   1.955 -2.2414 -0.3338  1.0719
 2855TIP3    H230057   4.603   1.294   1.931 -2.3990 -0.2294  0.1556
 2856TIP3   OH230058   5.862   6.318  13.768 -0.1574  0.1742 -0.3559
 2856TIP3    H130059   5.945   6.272  13.779 -0.1807  0.2298  0.0617
 2856TIP3    H230060   5.875   6.374  13.691  0.0092 -0.2195 -0.6171
 2857TIP3   OH230061   2.705   4.450   2.135  0.1111 -0.3272 -0.1831
 2857TIP3    H130062   2.653   4.465   2.056 -0.9754  0.1156  0.5948
 2857TIP3    H230063   2.641   4.443   2.205  1.1079  0.3816  0.8326
 2858TIP3   OH230064   1.775   2.222  17.115 -0.0034  0.1832 -0.8819
 2858TIP3    H130065   1.812   2.292  17.062  0.1237  2.4607  2.0033
 2858TIP3    H230066   1.851   2.172  17.145  0.6463  2.5386  1.8743
 2859TIP3   OH230067   0.813   5.561   0.392 -0.2925 -0.1108  0.3278
 2859TIP3    H130068   0.906   5.549   0.374 -0.4701 -1.8777  0.3526
 2859TIP3    H230069   0.770   5.496   0.336 -1.8845  3.1720 -2.6743
 2860TIP3   OH230070   4.262   6.644   3.270 -0.4135 -0.0288  0.0672
 2860TIP3    H130071   4.225   6.647   3.181  0.0206  0.6994 -0.0998
 2860TIP3    H230072   4.335   6.582   3.263 -0.5813 -0.2211 -0.0016
 2861TIP3   OH230073   0.125   1.673   2.688  0.0192  0.4685 -0.9069
 2861TIP3    H130074   0.161   1.753   2.650 -0.7930  0.3822 -1.9193
 2861TIP3    H230075   0.040   1.661   2.644 -0.1394 -0.6326 -0.3608
 2862TIP3   OH230076   5.164   6.590   3.118 -0.1441 -0.1623  0.0679
 2862TIP3    H130077   5.200   6.588   3.207  0.8318 -2.1521 -0.3229
 2862TIP3    H230078   5.226   6.540   3.065 -1.9961 -1.2515 -1.2113
 2863TIP3   OH230079   4.997   1.514  14.853  0.4249  0.3551  0.2353
 2863TIP3    H130080   5.075   1.565  14.875  1.1927  0.6883 -2.7849
 2863TIP3    H230081   5.027   1.452  14.786 -2.0028  1.0025 -1.5932
 2864TIP3   OH230082   5.961   1.118   5.698  0.6208  0.4066  0.7362
 2864TIP3    H130083   6.007   1.189   5.743  0.2580 -1.4057  4.3071
 2864TIP3    H230084   5.869   1.132   5.718  0.2144  0.4779 -1.0129
 2865TIP3   OH230085   6.571   6.127   1.333  0.2750  0.3007  0.1308
 2865TIP3    H130086   6.565   6.061   1.403  0.2815 -2.1238 -1.9762
 2865TIP3    H230087   6.500   6.188   1.352  0.4991 -0.0603  2.4205
 2866TIP3   OH230088   3.092   5.019   4.072 -0.2501 -0.0478  0.0441
 2866TIP3    H130089   3.129   5.090   4.020 -0.8384  0.2298 -0.0110
 2866TIP3    H230090   3.131   4.940   4.035  0.1910  0.2239 -0.0842
 2867TIP3   OH230091   6.515   6.568  13.555  0.3365 -0.5751  0.3180
 2867TIP3    H130092   6.559   6.494  13.597  1.8414  0.2280  0.2443
 2867TIP3    H230093   6.478   6.618  13.627  1.9106  0.1726  0.6607
 2868TIP3   OH230094   6.738   4.673  11.337  0.0172  0.4042 -0.2175
 2868TIP3    H130095   6.646   4.662  11.360  0.6640 -0.9417  2.0045
 2868TIP3    H230096   6.758   4.600  11.279 -0.2077  0.4882 -0.4019
 2869TIP3   OH230097   1.351   4.194   3.363 -0.2724 -0.4331 -0.0698
 2869TIP3    H130098   1.422   4.132   3.380 -0.2557 -1.1896 -2.4731
 2869TIP3    H230099   1.392   4.280   3.370  0.0710 -0.7080  1.7535
 2870TIP3   OH230100   5.438   6.453  16.547  0.1313  0.5603  0.4719
 2870TIP3    H130101   5.444   6.410  16.462 -0.5205  0.3977  0.5013
 2870TIP3    H230102   5.381   6.395  16.598 -0.3291  1.1939  0.6780
 2871TIP3   OH230103   4.347   4.251   3.277  0.5641 -0.0770  0.0705
 2871TIP3    H130104   4.397   4.189   3.331 -0.9385  0.6761  2.4698
 2871TIP3    H230105   4.262   4.210   3.266  0.4939  0.2931 -0.8469
 2872TIP3   OH230106   4.952   2.744   6.302  0.0086  0.2298  0.3086
 2872TIP3    H130107   5.006   2.817   6.271 -0.5709  0.9141  0.8808
 2872TIP3    H230108   5.014   2.686   6.348  0.3495  0.7292  0.4826
 2873TIP3   OH230109   2.370   1.440   0.704 -0.5713  0.2755  0.4693
 2873TIP3    H130110   2.303   1.486   0.654  0.4297  0.1312 -1.0879
 2873TIP3    H230111   2.358   1.348   0.681 -0.4336  0.1428  0.9153
 2874TIP3   OH230112   5.502   4.387   1.589 -0.0219  0.7469 -0.0705
 2874TIP3    H130113   5.460   4.335   1.657 -0.0703  1.8477  0.7647
 2874TIP3    H230114   5.431   4.409   1.528  0.0093 -0.1811 -0.4533
 2875TIP3   OH230115   5.508   5.631   4.315  0.0720  0.1710  0.7917
 2875TIP3    H130116   5.454   5.704   4.342 -0.4450  0.7938 -1.6602
 2875TIP3    H230117   5.590   5.672   4.285  0.6739 -0.4785  1.5063
 2876TIP3   OH230118   3.755   4.204   1.908 -0.6029 -0.1114  0.2569
 2876TIP3    H130119   3.674   4.234   1.867 -0.0694 -0.9856 -1.5431
 2876TIP3    H230120   3.791   4.140   1.847  0.7855 -0.7394  1.6426
 2877TIP3   OH230121   1.881   4.669  14.775  0.4204  0.3732  0.5681
 2877TIP3    H130122   1.851   4.759  14.762 -0.8509 -0.0399  0.5399
 2877TIP3    H230123   1.932   4.649  14.696  1.5285  1.3661  0.9916
 2878TIP3   OH230124   4.378   5.525   3.782  0.8572  0.1177 -0.2634
 2878TIP3    H130125   4.341   5.483   3.704 -0.6008  0.6972  0.0736
 2878TIP3    H230126   4.412   5.452   3.835  1.7257 -0.2921 -1.3485
 2879TIP3   OH230127   5.956   6.318   3.705 -0.3492 -0.2991 -0.7054
 2879TIP3    H130128   5.975   6.379   3.776  0.9893 -1.5188  0.0498
 2879TIP3    H230129   6.029   6.330   3.644 -0.8298 -0.1620 -1.2638
 2880TIP3   OH230130   5.529   2.502   5.147 -0.0045 -0.2395 -0.6996
 2880TIP3    H130131   5.589   2.502   5.222  0.8623 -2.4320 -1.3156
 2880TIP3    H230132   5.573   2.558   5.082  0.9140 -1.0196 -0.7748
 2881TIP3   OH230133   5.693   5.321   3.138 -0.0397 -0.4006 -0.4638
 2881TIP3    H130134   5.613   5.293   3.093 -1.0551 -1.5376  1.8699
 2881TIP3    H230135   5.735   5.239   3.165  2.5588  0.1299 -2.5572
 2882TIP3   OH230136   4.564   1.687   1.591 -0.4658 -0.1669  0.1969
 2882TIP3    H130137   4.649   1.723   1.618 -1.2960  1.3790  0.9387
 2882TIP3    H230138   4.581   1.595   1.572  1.0117 -0.3864  2.2044
 2883TIP3   OH230139   4.240   4.937  16.366  0.3342  0.1495 -0.3993
 2883TIP3    H130140   4.212   4.910  16.453  0.6711  1.7679  0.2567
 2883TIP3    H230141   4.169   4.909  16.308  0.6918 -2.1137  0.1602
 2884TIP3   OH230142   0.404   6.149   2.372  0.0607 -0.0233  0.4028
 2884TIP3    H130143   0.334   6.095   2.335  0.0833 -1.2654  2.0774
 2884TIP3    H230144   0.483   6.123   2.324  0.0128 -1.2948  0.9843
 2885TIP3   OH230145   0.926   2.809  13.938 -0.0381 -0.1315 -0.0837
 2885TIP3    H130146   0.913   2.864  13.861 -1.7096  0.2027  0.3857
 2885TIP3    H230147   0.900   2.864  14.012  2.2451 -0.1880  0.8440
 2886TIP3   OH230148   1.348   3.314   0.435 -0.1951  0.0370  0.1447
 2886TIP3    H130149   1.385   3.399   0.461  0.1414  0.0542 -0.3646
 2886TIP3    H230150   1.288   3.336   0.363 -1.3276  0.0267  1.0608
 2887TIP3   OH230151   1.202   0.391   2.231 -0.5114 -0.3290 -0.6984
 2887TIP3    H130152   1.187   0.446   2.154 -1.5488 -0.1906 -0.4121
 2887TIP3    H230153   1.215   0.303   2.197  2.8132  0.2507 -1.3123
 2888TIP3   OH230154   3.863   6.503  12.546  0.2639 -0.2512  0.2364
 2888TIP3    H130155   3.937   6.463  12.592  0.4646 -0.4639 -0.2597
 2888TIP3    H230156   3.786   6.461  12.582  0.3499  0.3375  1.1233
 2889TIP3   OH230157   4.812   1.496   2.112 -0.2566 -0.3132 -0.0837
 2889TIP3    H130158   4.881   1.438   2.146  0.6320 -0.5111 -2.1009
 2889TIP3    H230159   4.739   1.437   2.094  0.9153 -1.0974 -2.8935
 2890TIP3   OH230160   6.647   4.931   4.364 -0.9001 -0.1073  0.0709
 2890TIP3    H130161   6.611   4.852   4.324  0.4465 -0.9197  0.4005
 2890TIP3    H230162   6.571   4.988   4.376 -2.1509 -1.8608  1.0574
 2891TIP3   OH230163   6.652   6.379   0.684 -0.4229  0.6618  0.4116
 2891TIP3    H130164   6.635   6.287   0.664  2.5796  0.1264 -0.0932
 2891TIP3    H230165   6.681   6.416   0.601  0.8004  1.4094  1.1475
 2892TIP3   OH230166   0.222   2.688  12.861  0.4331  0.0399  0.1561
 2892TIP3    H130167   0.229   2.735  12.944  1.7686  1.3984 -0.6579
 2892TIP3    H230168   0.244   2.598  12.883 -1.4713 -0.1169  1.6485
 2893TIP3   OH230169   1.750   1.264  11.549 -0.2021 -0.4090  0.3829
 2893TIP3    H130170   1.823   1.207  11.574  0.5325  0.2886 -0.1355
 2893TIP3    H230171   1.701   1.213  11.484 -1.1924 -1.5687  1.9607
 2894TIP3   OH230172   1.609   2.835   2.288  0.6070  0.3805  0.1287
 2894TIP3    H130173   1.703   2.854   2.282  0.4646  1.0311 -0.1782
 2894TIP3    H230174   1.604   2.751   2.333  1.2310  1.7544  2.9986
 2895TIP3   OH230175   3.933   6.779  14.938  0.4637 -0.1443 -0.2024
 2895TIP3    H130176   3.888   6.783  14.854  0.1678  0.5288 -0.0192
 2895TIP3    H230177   3.912   6.862  14.981 -0.4251 -0.9908  1.0632
 2896TIP3   OH230178   1.858   6.749  14.594 -0.4521  0.4247  0.5363
 2896TIP3    H130179   1.809   6.707  14.524 -1.5326 -0.8953  2.0277
 2896TIP3    H230180   1.878   6.679  14.655 -0.5403  1.7252  2.1196
 2897TIP3   OH230181   5.128   0.080  14.988 -0.1180 -0.6183 -0.6010
 2897TIP3    H130182   5.151   0.165  14.951  1.3395 -1.1881 -1.1144
 2897TIP3    H230183   5.044   0.094  15.031  1.9128  2.2033  3.0892
 2898TIP3   OH230184   4.332   5.981   3.647  0.4447  0.0272  0.2886
 2898TIP3    H130185   4.394   6.046   3.679 -1.0761  1.3462  0.6978
 2898TIP3    H230186   4.293   6.021   3.569 -0.8502 -0.1589  0.8076
 2899TIP3   OH230187   0.642   4.260  16.062  0.1968  0.0155  0.3800
 2899TIP3    H130188   0.644   4.169  16.033 -0.0354  0.5871 -1.6000
 2899TIP3    H230189   0.582   4.303  16.001  0.6466  1.5830  0.9950
 2900TIP3   OH230190   3.775   4.582   2.380  0.6990 -0.1452  0.2669
 2900TIP3    H130191   3.791   4.508   2.439  0.5090 -0.5518 -0.1812
 2900TIP3    H230192   3.776   4.659   2.437 -0.4220 -0.6196  0.9617
 2901TIP3   OH230193   3.548   4.673   5.063  0.2851  0.4585 -0.0040
 2901TIP3    H130194   3.604   4.654   4.988 -0.1176 -0.4431 -0.0830
 2901TIP3    H230195   3.488   4.741   5.031 -0.4879 -0.5649 -0.8113
 2902TIP3   OH230196   1.878   2.580   2.596 -0.4858 -0.5565  0.0599
 2902TIP3    H130197   1.844   2.518   2.532 -0.7174  0.8612 -1.2587
 2902TIP3    H230198   1.920   2.649   2.544 -0.3898  0.4838  1.4340
 2903TIP3   OH230199   4.272   0.804   3.330 -0.3267 -0.2494 -0.8885
 2903TIP3    H130200   4.250   0.732   3.272 -3.2323 -0.4313  0.2583
 2903TIP3    H230201   4.238   0.778   3.415 -1.9370  2.5921 -0.5233
 2904TIP3   OH230202   1.110   4.614   0.860  0.1841 -0.0267  0.2301
 2904TIP3    H130203   1.113   4.574   0.773 -2.1200  2.1009 -0.9518
 2904TIP3    H230204   1.200   4.643   0.876  0.7565 -0.8990 -1.2058
 2905TIP3   OH230205   3.567   5.976   4.884  0.2187 -0.3414 -0.2134
 2905TIP3    H130206   3.629   5.983   4.812  0.9532  1.5466  0.5344
 2905TIP3    H230207   3.588   6.050   4.941 -3.1606  0.8313 -0.2734
 2906TIP3   OH230208   6.682   6.004   0.840 -0.9130  0.0067 -0.2475
 2906TIP3    H130209   6.737   6.053   0.901 -0.9065  1.9726 -1.7503
 2906TIP3    H230210   6.743   5.945   0.796 -0.3341  0.7965 -0.5319
 2907TIP3   OH230211   6.488   0.986   3.127  0.2138  0.8496 -0.1085
 2907TIP3    H130212   6.457   1.044   3.196  1.1409  0.1582  0.9302
 2907TIP3    H230213   6.470   0.898   3.160  3.5582  0.3713  0.7957
 2908TIP3   OH230214   2.792   5.882   1.188 -0.1454 -0.4883 -0.2762
 2908TIP3    H130215   2.793   5.968   1.146  0.5802  0.4438  1.5176
 2908TIP3    H230216   2.740   5.895   1.268 -1.8286 -2.2910 -1.0012
 2909TIP3   OH230217   0.588   5.061  13.821 -0.2336  0.3471 -0.3350
 2909TIP3    H130218   0.644   5.040  13.895 -0.7126 -1.8206 -0.5092
 2909TIP3    H230219   0.634   5.130  13.774  0.3155  1.4251  1.6762
 2910TIP3   OH230220   4.064   3.496  15.364  0.3233  0.5909  0.0133
 2910TIP3    H130221   4.000   3.537  15.306  0.3113 -0.3090 -0.6298
 2910TIP3    H230222   4.064   3.551  15.442 -2.1257 -0.0786  0.5558
 2911TIP3   OH230223   4.027   3.811  14.134 -0.0465  0.3373  0.1364
 2911TIP3    H130224   4.087   3.809  14.059  0.0026 -0.4947  0.1925
 2911TIP3    H230225   3.979   3.893  14.123 -0.1790  0.1383 -0.9268
 2912TIP3   OH230226   6.466   5.417   0.951 -0.3652  0.3455  0.2573
 2912TIP3    H130227   6.554   5.452   0.938 -0.1455 -0.3396 -0.2064
 2912TIP3    H230228   6.476   5.351   1.019 -0.6656  0.7747  0.7236
 2913TIP3   OH230229   3.890   5.097  16.408 -1.3965  0.5118  0.2919
 2913TIP3    H130230   3.834   5.174  16.396 -0.3632  1.2640  0.0854
 2913TIP3    H230231   3.902   5.063  16.320 -1.0008  0.7512  0.2504
 2914TIP3   OH230232   0.031   2.120  14.047 -0.2431  0.2495 -0.5603
 2914TIP3    H130233  -0.050   2.069  14.053 -0.0243 -0.5960 -3.2067
 2914TIP3    H230234   0.005   2.202  14.005 -0.0801  1.0747  0.8769
 2915TIP3   OH230235   3.697   6.236   6.219  0.4044  0.3645  0.3201
 2915TIP3    H130236   3.686   6.235   6.314  0.9387 -1.6480  0.3953
 2915TIP3    H230237   3.661   6.153   6.190  0.6695  0.7606 -1.2065
 2916TIP3   OH230238   1.502   4.568   3.096 -0.6080  0.6785 -0.2427
 2916TIP3    H130239   1.547   4.651   3.085  0.2958  0.1866 -0.4341
 2916TIP3    H230240   1.537   4.512   3.026 -1.9343  0.4369 -0.7402
 2917TIP3   OH230241   4.634   0.661  13.701 -0.1303 -0.0088 -0.3020
 2917TIP3    H130242   4.708   0.605  13.726  0.1897 -0.2733 -1.7671
 2917TIP3    H230243   4.674   0.734  13.654 -0.5025  1.7187  1.8884
 2918TIP3   OH230244   0.316   6.566   3.779  0.1363  0.3496  0.0317
 2918TIP3    H130245   0.410   6.560   3.766  0.1162  1.1139 -0.5383
 2918TIP3    H230246   0.279   6.568   3.690 -0.3955  0.3384  0.2466
 2919TIP3   OH230247   5.361   3.135   3.418  0.6599  0.0984 -0.5691
 2919TIP3    H130248   5.292   3.182   3.463  0.0480 -1.1722 -0.1351
 2919TIP3    H230249   5.418   3.204   3.383 -0.9475  1.1799 -1.1691
 2920TIP3   OH230250   4.157   0.819  11.983  0.3032  0.1988  0.0344
 2920TIP3    H130251   4.144   0.912  11.964  1.1871  0.0555 -1.4031
 2920TIP3    H230252   4.244   0.815  12.023 -0.1267  0.0791  0.9940
 2921TIP3   OH230253   1.761   0.594   0.163 -0.7692 -0.3345 -0.1660
 2921TIP3    H130254   1.686   0.617   0.108 -0.8649 -0.9411 -0.2927
 2921TIP3    H230255   1.747   0.502   0.186  0.4453 -0.7730 -1.0506
 2922TIP3   OH230256   2.666   6.324   4.213  0.4278  0.4688  0.6234
 2922TIP3    H130257   2.636   6.397   4.159 -0.2071  0.9092  1.5588
 2922TIP3    H230258   2.746   6.294   4.169 -0.9741 -0.3142 -1.5448
 2923TIP3   OH230259   5.131   1.599   2.636  0.0062  0.1059  0.2516
 2923TIP3    H130260   5.123   1.599   2.540  0.6612 -1.7391  0.1574
 2923TIP3    H230261   5.041   1.606   2.667 -0.6068 -2.8060 -0.5851
 2924TIP3   OH230262   0.043   4.143   5.400 -0.1618 -0.3588  0.2731
 2924TIP3    H130263   0.022   4.220   5.347 -0.7994 -0.1717  0.7778
 2924TIP3    H230264  -0.013   4.074   5.365 -2.1158  0.2738  1.9593
 2925TIP3   OH230265   5.445   5.516  16.644 -0.2641  0.3099 -0.3034
 2925TIP3    H130266   5.429   5.610  16.648  2.0902  0.8244 -1.3895
 2925TIP3    H230267   5.391   5.486  16.572  0.1750  1.1436 -0.9983
 2926TIP3   OH230268   6.368   0.287   3.485 -0.2846 -0.3235  0.0633
 2926TIP3    H130269   6.282   0.250   3.504 -0.6957  1.1596  1.2710
 2926TIP3    H230270   6.365   0.375   3.522  0.7000  0.8999 -2.4835
 2927TIP3   OH230271   1.967   2.076   3.445  0.6801 -0.1985  0.4911
 2927TIP3    H130272   2.034   2.010   3.430  0.1287 -0.4890 -0.7546
 2927TIP3    H230273   1.936   2.059   3.534  1.0433 -1.1613  0.4450
 2928TIP3   OH230274   6.588   0.840  10.835 -0.1788 -0.1654  0.4791
 2928TIP3    H130275   6.608   0.902  10.764  0.2854  0.1291  0.8628
 2928TIP3    H230276   6.592   0.754  10.794  1.9809 -0.1392  0.5409
 2929TIP3   OH230277   5.088   5.876   0.291 -0.1889  0.0718  0.0528
 2929TIP3    H130278   4.995   5.862   0.274 -0.0808  0.8407 -1.2297
 2929TIP3    H230279   5.092   5.959   0.339 -0.1904 -0.2085  0.5481
 2930TIP3   OH230280   3.989   4.671   0.913 -0.8357 -0.4349  0.6219
 2930TIP3    H130281   3.953   4.620   0.986 -2.6166  0.7047  0.6073
 2930TIP3    H230282   3.950   4.631   0.835 -2.3615  0.9568  0.6205
 2931TIP3   OH230283   0.887   2.219  13.764  0.0359 -0.1512 -0.1170
 2931TIP3    H130284   0.971   2.182  13.737  0.0811 -0.3112  0.2318
 2931TIP3    H230285   0.870   2.289  13.701  1.0442  0.7171  0.5540
 2932TIP3   OH230286   2.983   5.211   5.747 -0.2969 -0.5165  0.2693
 2932TIP3    H130287   2.993   5.138   5.808 -0.2041 -1.2330 -0.5646
 2932TIP3    H230288   3.046   5.276   5.777  0.5366 -1.3085  0.3090
 2933TIP3   OH230289   1.790   2.772  10.968 -0.4353 -0.7263  0.0490
 2933TIP3    H130290   1.717   2.821  11.006  0.1178 -0.2680  0.5388
 2933TIP3    H230291   1.818   2.825  10.893  0.0770 -0.3519  0.4992
 2934TIP3   OH230292   1.940   3.883   5.456  0.1758  0.2464 -0.3191
 2934TIP3    H130293   1.970   3.818   5.392 -0.0877  0.1647 -0.3620
 2934TIP3    H230294   2.008   3.950   5.456  0.3900  0.0309 -0.3650
 2935TIP3   OH230295   5.702   6.547  15.011  0.3349 -0.1546 -0.1658
 2935TIP3    H130296   5.717   6.479  15.078  0.0736  0.6284  0.7070
 2935TIP3    H230297   5.698   6.629  15.061 -0.0287  0.4266 -1.1330
 2936TIP3   OH230298   0.015   1.009  11.379  0.0976  0.6606 -0.2676
 2936TIP3    H130299  -0.046   1.081  11.395  0.7657  1.1587  0.1080
 2936TIP3    H230300   0.097   1.038  11.419 -0.1191 -1.1289  1.6614
 2937TIP3   OH230301   5.700   0.140   4.858  0.0927  0.2838 -0.0163
 2937TIP3    H130302   5.626   0.140   4.796  0.2699 -1.4481 -0.2658
 2937TIP3    H230303   5.683   0.216   4.914 -0.0298  1.9739 -2.2088
 2938TIP3   OH230304   3.648   0.647   5.316 -0.0661 -0.2478 -0.3038
 2938TIP3    H130305   3.578   0.651   5.251  0.0277  0.5705 -0.3694
 2938TIP3    H230306   3.691   0.563   5.300  0.2056  0.1028 -1.5808
 2939TIP3   OH230307   6.121   5.233   4.827  0.3435 -0.2581  0.0042
 2939TIP3    H130308   6.143   5.159   4.770  0.0032  0.3065 -0.8594
 2939TIP3    H230309   6.159   5.208   4.912 -0.1953 -1.6535 -0.1353
 2940TIP3   OH230310   5.627   5.560   4.984  0.1733  0.2941 -0.5610
 2940TIP3    H130311   5.596   5.492   5.043  1.0988 -0.3736 -0.8284
 2940TIP3    H230312   5.551   5.578   4.927  0.1531 -1.1017 -1.0167
 2941TIP3   OH230313   6.437   6.602  16.119  0.1688 -0.1339 -0.0956
 2941TIP3    H130314   6.463   6.685  16.080 -1.0213 -1.0157 -3.0270
 2941TIP3    H230315   6.486   6.597  16.201  2.7524  1.9468 -1.3896
 2942TIP3   OH230316   6.345   3.498  16.983  0.3075 -0.5749  0.0936
 2942TIP3    H130317   6.321   3.422  17.036 -2.0348 -0.3367 -0.4964
 2942TIP3    H230318   6.287   3.493  16.907  1.7008  0.5753 -1.1032
 2943TIP3   OH230319   6.689   0.229  13.720 -1.0557 -0.5768 -0.2168
 2943TIP3    H130320   6.614   0.247  13.664  0.8520  1.1466 -2.4461
 2943TIP3    H230321   6.705   0.312  13.766  0.4122 -0.3899 -1.0150
 2944TIP3   OH230322   0.488   0.456  15.557 -0.1645 -0.3336 -0.0790
 2944TIP3    H130323   0.554   0.474  15.490 -0.9028 -0.2635 -0.8007
 2944TIP3    H230324   0.522   0.499  15.636  1.3064 -1.4354 -0.0641
 2945TIP3   OH230325   2.922   3.151  15.675  0.3454 -0.4339 -0.6295
 2945TIP3    H130326   2.907   3.246  15.675  1.5813 -0.2167  0.3475
 2945TIP3    H230327   3.001   3.140  15.623 -0.2133 -1.0285 -1.3757
 2946TIP3   OH230328   2.394   5.302   3.606  0.0534 -0.2582  0.0788
 2946TIP3    H130329   2.317   5.253   3.578  0.4284 -0.7890 -0.0226
 2946TIP3    H230330   2.371   5.394   3.591 -1.2732 -0.2608  1.7336
 2947TIP3   OH230331   5.472   5.853   3.184  0.2151  0.0020 -0.0303
 2947TIP3    H130332   5.453   5.941   3.216 -0.2342 -0.2493  0.4236
 2947TIP3    H230333   5.444   5.795   3.255 -2.5694 -0.6961 -1.5434
 2948TIP3   OH230334   4.213   1.865  13.711  0.7206 -0.4505 -0.5593
 2948TIP3    H130335   4.173   1.951  13.705 -0.3508 -0.8853  0.0166
 2948TIP3    H230336   4.296   1.880  13.756  0.6686  0.3088 -0.7035
 2949TIP3   OH230337   2.125   1.366  15.009  0.3719 -0.3973  0.3396
 2949TIP3    H130338   2.043   1.414  15.000 -0.0753 -0.8997  1.4641
 2949TIP3    H230339   2.098   1.279  15.039  1.2367 -0.9906 -0.5452
 2950TIP3   OH230340   3.141   1.073  13.478  0.6509  0.0002  0.1900
 2950TIP3    H130341   3.076   1.047  13.543  0.0378 -0.4356 -0.5851
 2950TIP3    H230342   3.184   1.150  13.517 -1.8032  1.6661 -0.1784
 2951TIP3   OH230343   3.464   0.728   1.661 -0.0023 -0.2467 -0.4702
 2951TIP3    H130344   3.559   0.719   1.666 -0.1281 -1.0186  1.4974
 2951TIP3    H230345   3.432   0.637   1.664 -0.8020  0.0153 -0.8793
 2952TIP3   OH230346   1.184   5.614   1.134  0.0658 -0.6757 -0.7885
 2952TIP3    H130347   1.096   5.650   1.122  0.2697  0.5513  0.8767
 2952TIP3    H230348   1.171   5.536   1.188  0.0542  0.5622  1.1407
 2953TIP3   OH230349   2.164   0.280   5.090 -0.1132 -0.1826 -0.1593
 2953TIP3    H130350   2.143   0.241   5.005  0.4140 -1.0361  0.0881
 2953TIP3    H230351   2.240   0.230   5.121 -1.0810 -0.7584  1.4068
 2954TIP3   OH230352   4.704   0.026  16.915 -0.3047  0.0841 -0.4502
 2954TIP3    H130353   4.655  -0.031  16.856 -1.2489  0.5433 -0.1398
 2954TIP3    H230354   4.671   0.004  17.002  0.1654  0.2850 -0.2172
 2955TIP3   OH230355   0.545   5.969   0.897  0.1638  0.5610  0.0319
 2955TIP3    H130356   0.611   5.963   0.828 -0.4000 -0.0672 -0.4619
 2955TIP3    H230357   0.461   5.958   0.852 -0.1832 -0.5446  0.9022
 2956TIP3   OH230358   3.669   0.349  12.458 -0.2339 -0.0999  0.0940
 2956TIP3    H130359   3.648   0.441  12.437 -0.4213 -0.1553  0.0322
 2956TIP3    H230360   3.694   0.351  12.550 -1.8095 -0.2297  0.5569
 2957TIP3   OH230361   3.414   6.272  15.548  0.1328  0.4219 -0.1395
 2957TIP3    H130362   3.475   6.304  15.481 -1.4162 -0.7911 -2.2411
 2957TIP3    H230363   3.346   6.339  15.552  0.4896  0.7468  0.6433
 2958TIP3   OH230364   5.007   2.154   2.535  0.1111  0.3278 -0.2578
 2958TIP3    H130365   5.021   2.127   2.444  0.1452  1.1727 -0.5129
 2958TIP3    H230366   5.057   2.091   2.587  0.2853 -0.0205 -0.8347
 2959TIP3   OH230367   6.313   5.702  14.513 -0.5506  0.3439 -0.0027
 2959TIP3    H130368   6.253   5.634  14.481 -0.7022  0.0292  0.9321
 2959TIP3    H230369   6.363   5.728  14.435  1.8700 -3.1885  0.1473
 2960TIP3   OH230370   5.777   3.559  17.272 -0.0717  0.9838 -0.7210
 2960TIP3    H130371   5.778   3.535  17.365 -0.7383 -0.2991 -1.0135
 2960TIP3    H230372   5.859   3.525  17.237 -0.3071  0.4970 -0.8115
 2961TIP3   OH230373   1.133   0.881   2.415 -0.0367 -0.8333 -0.4742
 2961TIP3    H130374   1.051   0.845   2.383  0.2798 -1.0265 -1.0859
 2961TIP3    H230375   1.140   0.849   2.505 -0.8548 -0.4215 -0.2605
 2962TIP3   OH230376   5.227   0.759  13.189  0.4304 -0.0297 -0.7725
 2962TIP3    H130377   5.270   0.754  13.103  0.4376  1.6968 -0.9089
 2962TIP3    H230378   5.269   0.690  13.240  1.6567  0.0207 -1.6426
 2963TIP3   OH230379   2.405   2.302   4.791 -0.1750 -0.4102  0.1319
 2963TIP3    H130380   2.448   2.226   4.754  1.7391  0.8271 -0.3261
 2963TIP3    H230381   2.407   2.288   4.886  0.0996 -0.9643  0.0451
 2964TIP3   OH230382   5.599   6.044   6.241  0.3069 -0.0684 -0.3827
 2964TIP3    H130383   5.585   5.973   6.179  1.6993 -0.2251 -0.5396
 2964TIP3    H230384   5.510   6.071   6.266 -0.2828 -0.2570 -2.1191
 2965TIP3   OH230385   5.822   2.052   0.794 -0.2016  0.2142 -0.0227
 2965TIP3    H130386   5.909   2.013   0.805 -0.2833 -0.3515 -1.2493
 2965TIP3    H230387   5.810   2.105   0.873  0.4513 -1.2087  1.0919
 2966TIP3   OH230388   4.806   5.107  14.667  0.5242  0.3229 -0.2739
 2966TIP3    H130389   4.729   5.159  14.690 -0.9318 -2.2620  1.3020
 2966TIP3    H230390   4.827   5.060  14.748  3.1960  0.2140 -0.9571
 2967TIP3   OH230391   3.592   4.291   3.288  0.0191  0.3928 -0.0318
 2967TIP3    H130392   3.536   4.356   3.247 -0.0052  0.0985 -0.4777
 2967TIP3    H230393   3.673   4.338   3.308 -0.6549  1.0185  1.3346
 2968TIP3   OH230394   3.531   5.340  12.066  0.0462  0.7930 -0.5924
 2968TIP3    H130395   3.612   5.293  12.044  0.8270  1.5626  0.5272
 2968TIP3    H230396   3.485   5.280  12.126 -0.4689  0.1436 -1.6144
 2969TIP3   OH230397   0.656   1.060  15.293  0.3257  0.2735 -0.0998
 2969TIP3    H130398   0.576   1.111  15.310  0.0610  0.6102 -2.1215
 2969TIP3    H230399   0.724   1.126  15.280  0.1641  0.1378 -1.8541
 2970TIP3   OH230400   4.912   5.162   5.749  0.3002 -0.4450  0.4105
 2970TIP3    H130401   4.973   5.129   5.815  0.8436 -0.5942 -0.1585
 2970TIP3    H230402   4.875   5.241   5.788  0.0304 -0.9583  1.2095
 2971TIP3   OH230403   5.008   5.247  12.436 -0.1885  0.2187 -0.3978
 2971TIP3    H130404   4.937   5.302  12.405 -0.1269 -0.4426 -1.8047
 2971TIP3    H230405   5.070   5.243  12.363  2.7865  3.0682  1.6716
 2972TIP3   OH230406   1.506   4.946  14.925 -0.4417  0.0745  0.4396
 2972TIP3    H130407   1.466   4.909  14.846 -2.6258  0.6136  1.2261
 2972TIP3    H230408   1.523   5.037  14.902  0.1253 -0.0824  0.2033
 2973TIP3   OH230409   6.637   3.751   6.416  0.5109 -0.2485 -0.3102
 2973TIP3    H130410   6.708   3.760   6.352 -0.1607 -0.6829 -1.1332
 2973TIP3    H230411   6.673   3.789   6.496 -0.0003  4.2449 -1.9019
 2974TIP3   OH230412   6.740   0.493  11.762  0.4385  0.0316  0.5134
 2974TIP3    H130413   6.718   0.537  11.679  0.1936  0.2737  0.7043
 2974TIP3    H230414   6.828   0.524  11.782  2.0617 -2.8024 -1.5002
 2975TIP3   OH230415   1.389   3.488   3.920  0.2145 -0.5334 -0.3198
 2975TIP3    H130416   1.382   3.407   3.870  0.2469 -0.1960 -0.8796
 2975TIP3    H230417   1.437   3.463   3.999 -1.2487 -1.4164  0.3277
 2976TIP3   OH230418   0.082   1.879  15.100  0.2781  0.4907  0.1067
 2976TIP3    H130419   0.083   1.962  15.146  3.1905  0.1430  0.8496
 2976TIP3    H230420  -0.005   1.874  15.061 -0.5570  3.0685  1.4497
 2977TIP3   OH230421   3.848   4.846   5.766 -0.4128  0.1371 -0.1475
 2977TIP3    H130422   3.881   4.859   5.855  0.0009 -0.4344 -0.2121
 2977TIP3    H230423   3.818   4.755   5.764 -1.0276  0.3377 -0.4049
 2978TIP3   OH230424   1.226   1.576   3.251 -0.2467  0.1411  0.1742
 2978TIP3    H130425   1.173   1.526   3.188 -0.5707 -0.3796  0.8399
 2978TIP3    H230426   1.288   1.625   3.197 -0.3665 -0.4695 -0.5353
 2979TIP3   OH230427   0.816   1.969  12.078  0.7436 -0.0909  0.4892
 2979TIP3    H130428   0.906   1.969  12.047  0.4685 -2.0535 -0.4921
 2979TIP3    H230429   0.766   1.928  12.007 -0.4171 -1.9351  2.2473
 2980TIP3   OH230430   3.511   4.046   4.660 -0.4393 -0.4173 -0.2947
 2980TIP3    H130431   3.490   3.993   4.583  0.7725  0.6439 -1.4004
 2980TIP3    H230432   3.494   4.136   4.632  1.2376  0.0948  0.2301
 2981TIP3   OH230433   0.412   5.010  11.585 -0.0992 -0.1271 -0.3728
 2981TIP3    H130434   0.415   5.088  11.530 -0.5417  0.9949  1.1626
 2981TIP3    H230435   0.413   4.937  11.522 -0.7238  1.1006 -1.8671
 2982TIP3   OH230436   1.232   0.454  13.513  0.4792  0.5215  0.2134
 2982TIP3    H130437   1.188   0.539  13.505 -2.3860 -1.0246 -4.0911
 2982TIP3    H230438   1.302   0.457  13.448  0.1423 -0.4807 -0.2160
 2983TIP3   OH230439   1.201   5.567   6.198  0.5014 -0.3565 -0.3978
 2983TIP3    H130440   1.197   5.563   6.293  0.6147  1.4654 -0.2844
 2983TIP3    H230441   1.139   5.500   6.169  0.0300 -0.5411  0.9464
 2984TIP3   OH230442   0.421   4.693   2.124 -0.3031  0.2139 -0.2904
 2984TIP3    H130443   0.341   4.737   2.152 -1.7268 -1.5558 -1.3735
 2984TIP3    H230444   0.397   4.647   2.043  1.5935 -1.0112 -0.2307
 2985TIP3   OH230445   1.540   5.859   1.725  0.7778  1.1147  0.1987
 2985TIP3    H130446   1.498   5.797   1.666  1.8391 -1.0284  1.5619
 2985TIP3    H230447   1.497   5.943   1.708 -0.4034  0.1211 -2.0421
 2986TIP3   OH230448   2.440   2.879   4.141 -0.5906 -0.6107 -0.5432
 2986TIP3    H130449   2.472   2.897   4.229 -0.2124 -2.2534 -0.3079
 2986TIP3    H230450   2.515   2.898   4.084 -0.3525 -0.9693 -0.3537
 2987TIP3   OH230451   5.783   2.865  16.307 -0.1499  0.2104  0.1860
 2987TIP3    H130452   5.710   2.921  16.334 -2.5542 -2.1389 -0.9501
 2987TIP3    H230453   5.743   2.800  16.249  2.8558 -1.3375 -0.3619
 2988TIP3   OH230454   1.213   3.857   3.575  0.0824 -0.4179 -0.0117
 2988TIP3    H130455   1.305   3.877   3.592  0.3178 -1.1239 -0.4221
 2988TIP3    H230456   1.169   3.871   3.659  0.2534  1.5411 -0.1938
 2989TIP3   OH230457   1.299   1.296  13.899  0.4349  0.5410  0.2287
 2989TIP3    H130458   1.345   1.223  13.857 -0.7031  0.6658 -1.3379
 2989TIP3    H230459   1.305   1.367  13.836 -0.6042  1.0149  0.6447
 2990TIP3   OH230460   6.196   3.599  16.326  0.2883  0.3727  0.7552
 2990TIP3    H130461   6.146   3.519  16.311 -2.2482  1.5820  2.1193
 2990TIP3    H230462   6.253   3.607  16.250 -2.8344 -0.2577 -1.8743
 2991TIP3   OH230463   3.935   3.355  12.933  0.4404  0.0009 -0.0873
 2991TIP3    H130464   3.985   3.274  12.937 -0.5161 -0.6770 -1.1790
 2991TIP3    H230465   3.858   3.338  12.987  0.7877  0.6201  0.6259
 2992TIP3   OH230466   5.437   6.734   4.605 -0.2022  0.3320 -0.8305
 2992TIP3    H130467   5.438   6.731   4.509  0.2718 -2.2239 -0.8219
 2992TIP3    H230468   5.415   6.645   4.631  1.4644  0.5040  1.4421
 2993TIP3   OH230469   4.739   2.025  11.613 -0.0129  0.1174 -0.0282
 2993TIP3    H130470   4.744   2.070  11.697 -1.9110  0.7889 -0.2173
 2993TIP3    H230471   4.647   2.030  11.589  0.4082 -0.4472 -1.9446
 2994TIP3   OH230472   3.536   4.406  16.831  0.3662 -0.2001 -0.4144
 2994TIP3    H130473   3.528   4.422  16.925  1.1797  0.3046 -0.4243
 2994TIP3    H230474   3.499   4.484  16.790  0.6010 -0.1401 -0.5104
 2995TIP3   OH230475   0.875   0.663  12.729 -0.3514  0.4674 -0.3747
 2995TIP3    H130476   0.965   0.629  12.724 -0.3193  0.2692  1.0984
 2995TIP3    H230477   0.845   0.637  12.816 -1.7247  0.8315 -0.7267
 2996TIP3   OH230478   1.685   1.050   1.082 -0.0724 -0.0439 -0.4505
 2996TIP3    H130479   1.624   1.109   1.038 -1.5998 -0.0062  1.5464
 2996TIP3    H230480   1.709   1.096   1.163 -1.2810 -2.0147  1.1448
 2997TIP3   OH230481   0.638   6.586  15.333 -0.1213  0.0876 -0.6267
 2997TIP3    H130482   0.725   6.623  15.347 -0.0915 -0.1949 -0.0679
 2997TIP3    H230483   0.615   6.543  15.415 -1.4831  1.5651 -0.1734
 2998TIP3   OH230484   0.040   0.963  11.754 -0.4019  0.1428  0.6967
 2998TIP3    H130485   0.075   1.005  11.675  0.3379 -0.3888  0.7270
 2998TIP3    H230486   0.036   1.033  11.819  2.5683 -0.1501  1.3120
 2999TIP3   OH230487   3.929   2.410   4.863 -0.0396  0.3111  0.3602
 2999TIP3    H130488   3.964   2.496   4.885  1.2590  0.5628 -2.2373
 2999TIP3    H230489   3.836   2.424   4.849  0.3146  1.5782 -1.0085
 3000TIP3   OH230490   3.408   4.909   3.193 -0.3715 -0.1910  0.0996
 3000TIP3    H130491   3.427   4.938   3.282  0.5166  0.8529 -0.4031
 3000TIP3    H230492   3.491   4.872   3.162 -0.9819 -1.6007  0.0777
 3001TIP3   OH230493   5.769   3.087  12.029 -0.0524  0.1761  0.3724
 3001TIP3    H130494   5.771   2.994  12.052 -2.0649  0.4953  2.1647
 3001TIP3    H230495   5.736   3.088  11.939 -1.8054 -0.8537  0.9446
 3002TIP3   OH230496   2.727   0.193  15.778  0.3551 -0.3503 -0.0756
 3002TIP3    H130497   2.742   0.247  15.856  2.0911 -0.7446 -0.1146
 3002TIP3    H230498   2.740   0.253  15.704  0.5467 -0.4219 -0.0981
 3003TIP3   OH230499   1.219   3.857  12.632  0.6443 -1.0329 -0.4758
 3003TIP3    H130500   1.131   3.874  12.599  0.3653 -0.6277  0.4299
 3003TIP3    H230501   1.236   3.929  12.693  2.1353 -0.3603 -1.6009
 3004TIP3   OH230502   5.409   1.417   4.459  0.2981  0.6347 -0.3103
 3004TIP3    H130503   5.457   1.499   4.449 -1.3697  1.6448 -0.4221
 3004TIP3    H230504   5.322   1.444   4.486 -0.4463 -1.0816 -0.8693
 3005TIP3   OH230505   3.687   5.453  14.815  0.0301 -0.4631 -0.1081
 3005TIP3    H130506   3.678   5.541  14.778 -1.7640  0.2204  1.7115
 3005TIP3    H230507   3.763   5.460  14.873 -0.9093  0.3687  1.0877
 3006TIP3   OH230508   5.664   6.162   2.777 -0.2989 -0.9821 -0.2174
 3006TIP3    H130509   5.668   6.080   2.826 -0.0336 -0.3432  0.8648
 3006TIP3    H230510   5.574   6.168   2.746 -0.3106 -1.6823 -0.3288
 3007TIP3   OH230511   1.739   2.872   4.794  0.3200  0.1171  0.0159
 3007TIP3    H130512   1.743   2.787   4.838  0.4274  0.3622  0.4848
 3007TIP3    H230513   1.653   2.874   4.754  1.2788 -1.3589 -2.3445
 3008TIP3   OH230514   3.772   5.325   5.994 -0.1316  0.3480  0.1037
 3008TIP3    H130515   3.836   5.395   6.011  1.7931 -1.3091 -0.0093
 3008TIP3    H230516   3.780   5.266   6.069 -1.3717 -0.0290 -0.0394
 3009TIP3   OH230517   2.821   4.048  12.163  0.4166  0.0383  0.3134
 3009TIP3    H130518   2.773   3.979  12.116 -0.8343  1.2907 -0.3058
 3009TIP3    H230519   2.911   4.041  12.131  0.1127 -0.7194 -0.4160
 3010TIP3   OH230520   4.699   1.602   2.578  0.2972  0.6353 -0.0432
 3010TIP3    H130521   4.768   1.648   2.530 -0.4898  1.5415 -0.3411
 3010TIP3    H230522   4.636   1.576   2.511  1.4745 -2.3757 -0.1136
 3011TIP3   OH230523   5.462   6.367  14.529 -0.4812  0.0463 -0.1889
 3011TIP3    H130524   5.485   6.460  14.539 -2.0617  0.4592 -0.2108
 3011TIP3    H230525   5.533   6.321  14.574  0.1395  1.2701  0.1498
 3012TIP3   OH230526   5.242   0.832  17.296  0.4586 -0.0490 -0.2294
 3012TIP3    H130527   5.329   0.793  17.294  0.5980  0.0409  1.8346
 3012TIP3    H230528   5.244   0.891  17.371 -1.5191 -0.3899  0.1568
 3013TIP3   OH230529   5.821   2.635   0.858  0.0283  0.3091  0.0893
 3013TIP3    H130530   5.734   2.644   0.896  0.1759 -0.0088  0.5111
 3013TIP3    H230531   5.812   2.671   0.769 -0.9532 -1.2043 -0.4638
 3014TIP3   OH230532   6.748   0.590  14.204  0.0471 -0.4962 -0.2357
 3014TIP3    H130533   6.748   0.508  14.253 -1.1531 -0.8752 -0.8428
 3014TIP3    H230534   6.826   0.586  14.150  0.2220 -1.0441  0.0523
 3015TIP3   OH230535   2.756   3.946   1.935  0.0777 -0.7880 -0.2868
 3015TIP3    H130536   2.664   3.944   1.909  0.4567 -0.1431 -1.8009
 3015TIP3    H230537   2.775   4.038   1.950  0.0208 -1.0844  1.9307
 3016TIP3   OH230538   3.241   4.952  14.569 -0.4305  0.3167 -0.3663
 3016TIP3    H130539   3.214   4.901  14.646  0.7567 -0.7685 -0.6312
 3016TIP3    H230540   3.279   4.887  14.510  0.1000  1.3567 -1.1983
 3017TIP3   OH230541   5.976   0.804   2.240  0.0735 -0.2598 -0.2291
 3017TIP3    H130542   5.950   0.824   2.330 -0.5078 -0.0341 -0.4456
 3017TIP3    H230543   6.072   0.811   2.241  0.0348  0.2681  0.2482
 3018TIP3   OH230544   4.324   5.494  15.170 -0.3914  0.4449  0.2034
 3018TIP3    H130545   4.331   5.512  15.263  0.1817  0.5903  0.1359
 3018TIP3    H230546   4.366   5.569  15.127 -2.8168  1.6470 -0.2759
 3019TIP3   OH230547   5.420   0.417   0.737 -0.0945  0.4466  0.3316
 3019TIP3    H130548   5.477   0.452   0.669 -0.8748  1.6781  0.2794
 3019TIP3    H230549   5.360   0.360   0.691 -0.3605  0.9563  0.0360
 3020TIP3   OH230550   5.062   4.978  11.381 -0.8248  0.3555 -0.5148
 3020TIP3    H130551   5.120   4.978  11.457 -1.1164  3.1643 -0.1647
 3020TIP3    H230552   5.006   4.901  11.392  0.2927 -0.2691  1.1585
 3021TIP3   OH230553   5.649   3.427   6.461  0.4164  0.4279 -0.8041
 3021TIP3    H130554   5.604   3.499   6.506  0.0546 -0.0648 -0.3730
 3021TIP3    H230555   5.678   3.465   6.378 -1.5489  0.5387 -1.4874
 3022TIP3   OH230556   0.891   0.508   3.467  0.5403  0.2668  0.0014
 3022TIP3    H130557   0.969   0.481   3.418 -0.0571 -2.3971  0.4049
 3022TIP3    H230558   0.915   0.496   3.559  0.2161  1.1347  0.2102
 3023TIP3   OH230559   0.511   0.956  11.547 -0.7260 -0.2831  0.5589
 3023TIP3    H130560   0.514   0.997  11.633 -2.9326 -1.0512  1.0528
 3023TIP3    H230561   0.563   0.876  11.557  1.0925  0.8161  0.4210
 3024TIP3   OH230562   1.077   4.671  17.010  0.2892  0.0329  0.7027
 3024TIP3    H130563   1.034   4.755  17.024  2.0141  1.2351 -0.8325
 3024TIP3    H230564   1.169   4.693  16.995  0.5808 -2.0199 -0.9190
 3025TIP3   OH230565   2.079   1.066  12.808 -0.4191  0.0946  0.6626
 3025TIP3    H130566   2.116   1.152  12.790  0.1973 -0.1518  0.7234
 3025TIP3    H230567   1.993   1.084  12.845 -0.3076  0.6843  0.6436
 3026TIP3   OH230568   1.545   0.903   3.112 -0.1293  0.9479  0.2986
 3026TIP3    H130569   1.591   0.985   3.133  1.0402  0.2493  0.5792
 3026TIP3    H230570   1.478   0.896   3.180 -0.0070  1.4883  0.4870
 3027TIP3   OH230571   1.049   6.029  15.292 -0.6557 -0.4407 -0.0722
 3027TIP3    H130572   1.007   6.115  15.287 -1.3970 -0.8336 -0.8977
 3027TIP3    H230573   0.994   5.979  15.353  0.0190 -0.2098  0.7421
 3028TIP3   OH230574   2.671   6.745   5.353 -0.3300  0.7396 -0.4884
 3028TIP3    H130575   2.751   6.732   5.302 -0.3085 -0.3533 -0.1919
 3028TIP3    H230576   2.691   6.707   5.439 -0.1987  2.9360  0.5314
 3029TIP3   OH230577   4.592   0.683   5.361  0.2727 -0.3944 -0.4525
 3029TIP3    H130578   4.568   0.772   5.333  1.5174  0.2700  0.5082
 3029TIP3    H230579   4.682   0.691   5.394  0.5095 -2.0731 -0.5933
 3030TIP3   OH230580   3.044   5.278   3.833 -0.5475 -0.4214 -0.3145
 3030TIP3    H130581   3.127   5.288   3.880 -0.2475 -2.6362 -0.2500
 3030TIP3    H230582   3.039   5.354   3.775  1.1658  0.1363  0.2190
 3031TIP3   OH230583   2.395   0.343   2.168  0.3087 -0.1416  0.4749
 3031TIP3    H130584   2.346   0.332   2.250  1.2531 -2.9333  0.7792
 3031TIP3    H230585   2.472   0.394   2.193 -0.0314  0.1039  1.0517
 3032TIP3   OH230586   1.643   5.723   3.849  0.0970  0.5856  0.2125
 3032TIP3    H130587   1.580   5.795   3.856  0.0180  0.5454 -0.0603
 3032TIP3    H230588   1.634   5.675   3.931 -2.2924 -1.1055 -0.9201
 3033TIP3   OH230589   5.895   6.491   4.373 -0.3309 -0.2731 -0.0459
 3033TIP3    H130590   5.835   6.442   4.429 -1.4787 -0.4231 -1.3534
 3033TIP3    H230591   5.858   6.483   4.285  1.5227 -0.2172 -0.8723
 3034TIP3   OH230592   3.952   1.570   1.360 -0.0971  0.1011  0.4957
 3034TIP3    H130593   3.898   1.585   1.282 -1.0683 -1.3420  0.8498
 3034TIP3    H230594   3.927   1.482   1.390  0.7521  0.3527  2.0485
 3035TIP3   OH230595   0.946   5.383  17.304 -0.2075  0.0003  0.5143
 3035TIP3    H130596   0.924   5.294  17.332  0.4355 -1.1505 -2.2979
 3035TIP3    H230597   0.879   5.439  17.345 -0.9738 -1.8277  1.8782
 3036TIP3   OH230598   5.308   3.788  14.598  0.0304 -0.1268 -0.0622
 3036TIP3    H130599   5.322   3.811  14.690 -0.6707  2.0604 -0.4545
 3036TIP3    H230600   5.213   3.793  14.587  0.1834  0.6323 -1.1319
 3037TIP3   OH230601   0.779   1.359   0.976 -0.6585  0.0359  0.2986
 3037TIP3    H130602   0.844   1.306   1.022 -1.6343 -2.1543 -0.7277
 3037TIP3    H230603   0.711   1.297   0.949 -1.0967  1.5291 -2.3648
 3038TIP3   OH230604   6.825   4.716   2.778 -0.1831  0.6715 -0.2335
 3038TIP3    H130605   6.870   4.772   2.841  0.3654 -0.2768  0.2356
 3038TIP3    H230606   6.741   4.696   2.820 -1.6140  3.3565 -1.5868
 3039TIP3   OH230607   3.710   3.939   0.560 -0.7865 -0.2916  0.4372
 3039TIP3    H130608   3.662   3.857   0.561 -0.5981 -0.4779 -1.5256
 3039TIP3    H230609   3.749   3.943   0.472  1.5112  0.5664  1.4189
 3040TIP3   OH230610   2.412   5.883   2.497  0.0241  0.0637  0.0624
 3040TIP3    H130611   2.382   5.895   2.587 -1.7323  1.6445 -0.6583
 3040TIP3    H230612   2.352   5.819   2.460  1.0835 -1.0069  0.1171
 3041TIP3   OH230613   4.790   3.073   3.644 -0.6634 -0.4122  0.2317
 3041TIP3    H130614   4.855   3.004   3.651 -1.0068 -0.9328 -1.4383
 3041TIP3    H230615   4.776   3.084   3.550 -0.5646  1.9909  0.4347
 3042TIP3   OH230616   1.783   3.912   0.401 -0.3272 -0.6931 -0.4083
 3042TIP3    H130617   1.718   3.943   0.464  0.6932 -0.8062  0.7380
 3042TIP3    H230618   1.799   3.821   0.426 -0.2501 -0.8857 -1.1372
 3043TIP3   OH230619   0.735   2.928  15.883  0.3167 -0.2400 -0.1136
 3043TIP3    H130620   0.695   3.014  15.870  1.0654 -0.0864 -1.5334
 3043TIP3    H230621   0.786   2.913  15.804  0.9771 -1.5741  0.5389
 3044TIP3   OH230622   1.699   4.303   5.210 -0.0079 -0.0697 -0.0960
 3044TIP3    H130623   1.705   4.226   5.267  1.1529 -0.8822 -1.2575
 3044TIP3    H230624   1.615   4.342   5.231 -0.3185 -1.2748  1.0077
 3045TIP3   OH230625   1.491   6.372  11.986 -0.1086 -0.5379 -0.1275
 3045TIP3    H130626   1.581   6.339  11.994  0.3120  0.5410 -0.3580
 3045TIP3    H230627   1.471   6.408  12.072 -0.6590 -1.5491  0.1970
 3046TIP3   OH230628   0.796   2.849   0.293 -0.0560 -0.0735  0.2377
 3046TIP3    H130629   0.860   2.798   0.244 -1.2861 -1.4992  0.0392
 3046TIP3    H230630   0.739   2.783   0.334  0.2619  1.0630  2.7060
 3047TIP3   OH230631   0.737   5.295  13.036 -0.2459 -0.0840 -0.3594
 3047TIP3    H130632   0.773   5.217  12.993 -2.0702 -0.6091 -1.0080
 3047TIP3    H230633   0.807   5.361  13.028  0.1660 -0.7113 -2.5700
 3048TIP3   OH230634   2.251   1.107  13.237 -0.0997  0.6260 -0.6229
 3048TIP3    H130635   2.245   1.199  13.210 -0.1700  1.2914  1.4495
 3048TIP3    H230636   2.164   1.072  13.223  0.0941  0.6612 -2.0494
 3049TIP3   OH230637   2.746   1.260   5.150 -0.0909 -0.1287  0.4452
 3049TIP3    H130638   2.671   1.201   5.160 -0.3343  0.0886 -0.0788
 3049TIP3    H230639   2.811   1.225   5.211  0.2741 -1.7689 -0.7996
 3050TIP3   OH230640   5.666   2.983  11.236 -0.3993 -0.0202  0.2154
 3050TIP3    H130641   5.659   2.923  11.161 -1.2199  0.4303 -0.0732
 3050TIP3    H230642   5.581   3.025  11.242 -0.0607  0.5989  0.8671
 3051TIP3   OH230643   3.209   1.701   4.059 -0.4509  0.5943  0.2622
 3051TIP3    H130644   3.288   1.750   4.036 -0.4394 -0.2942 -1.8588
 3051TIP3    H230645   3.137   1.756   4.027 -0.6381  0.8143  1.0413
 3052TIP3   OH230646   1.063   5.334   2.120  0.0483 -0.3051 -0.8482
 3052TIP3    H130647   1.125   5.407   2.124 -1.1370  0.6653  1.7292
 3052TIP3    H230648   0.986   5.370   2.076 -0.0486 -0.3823 -0.7445
 3053TIP3   OH230649   5.319   3.206  11.789 -0.3642 -0.0756  0.2182
 3053TIP3    H130650   5.230   3.187  11.818 -0.2919 -0.3346  0.2812
 3053TIP3    H230651   5.365   3.231  11.870 -0.5291  0.6510  0.0906
 3054TIP3   OH230652   4.577   5.498  12.561 -0.2630  0.0050  0.1265
 3054TIP3    H130653   4.543   5.485  12.473 -0.4845  1.1981  0.0163
 3054TIP3    H230654   4.568   5.412  12.603 -1.2134 -0.2945 -0.6482
 3055TIP3   OH230655   1.618   5.434  15.751 -0.1680 -0.5241 -0.2799
 3055TIP3    H130656   1.578   5.520  15.765  5.0755  2.1900  1.1705
 3055TIP3    H230657   1.607   5.389  15.835  1.8375  1.3802  1.1584
 3056TIP3   OH230658   0.535   3.825   5.245  0.0515 -0.2317  0.7243
 3056TIP3    H130659   0.488   3.746   5.219  1.5410 -0.8557 -0.2035
 3056TIP3    H230660   0.599   3.795   5.310  2.1842 -0.2945 -1.2695
 3057TIP3   OH230661   5.342   6.731  10.959 -0.3847 -0.3371  0.2140
 3057TIP3    H130662   5.429   6.697  10.937 -0.5600 -1.2440  0.8577
 3057TIP3    H230663   5.339   6.817  10.918  0.8486 -0.2535  0.2523
 3058TIP3   OH230664   5.535   1.665  14.441  0.4064 -0.3070 -0.8132
 3058TIP3    H130665   5.602   1.602  14.467 -0.0282 -0.1410  0.7826
 3058TIP3    H230666   5.575   1.751  14.457 -0.5402 -0.1972  1.2838
 3059TIP3   OH230667   2.517   2.788  13.909  0.7156  0.3397 -0.1002
 3059TIP3    H130668   2.481   2.850  13.845  2.3131  1.0157 -0.3995
 3059TIP3    H230669   2.608   2.816  13.920  1.0972 -1.1567  0.7761
 3060TIP3   OH230670   6.655   2.634   1.696  0.1074  0.5285 -0.1354
 3060TIP3    H130671   6.715   2.590   1.757  0.1979  0.9195  0.0572
 3060TIP3    H230672   6.712   2.677   1.633  0.0129 -1.0560 -1.3576
 3061TIP3   OH230673   4.643   0.751  17.225  0.2476 -0.2649  0.3694
 3061TIP3    H130674   4.660   0.657  17.224  2.1345  0.0389 -1.3998
 3061TIP3    H230675   4.666   0.779  17.313 -2.9358 -1.7837  1.8806
 3062TIP3   OH230676   0.558   4.555  16.602 -0.4329 -0.0340  0.1280
 3062TIP3    H130677   0.610   4.522  16.529 -1.3508 -0.6226 -0.2763
 3062TIP3    H230678   0.602   4.635  16.629 -0.1594  0.2725 -1.1691
 3063TIP3   OH230679   5.808   3.331   1.661 -0.4905  0.3318 -0.3678
 3063TIP3    H130680   5.754   3.348   1.584  0.3634  0.7120 -0.8972
 3063TIP3    H230681   5.875   3.398   1.658  0.2858 -0.4088  0.0270
 3064TIP3   OH230682   2.962   6.621  11.414  0.3671  0.0796  0.1596
 3064TIP3    H130683   3.032   6.615  11.349  1.0623 -0.3884  0.9289
 3064TIP3    H230684   2.882   6.602  11.365  0.9651 -1.0846 -0.3967
 3065TIP3   OH230685   6.022   4.683   0.818 -0.0910  0.4135 -0.3961
 3065TIP3    H130686   6.029   4.753   0.882  0.5771  0.4263 -0.4757
 3065TIP3    H230687   6.022   4.728   0.733 -0.3268  0.3578 -0.4260
 3066TIP3   OH230688   2.930   6.510   5.526  0.2124 -0.0598 -0.7301
 3066TIP3    H130689   2.845   6.467   5.517 -0.5485  1.2267 -0.0237
 3066TIP3    H230690   2.936   6.532   5.619  1.9135 -1.2761 -0.4986
 3067TIP3   OH230691   0.389   2.037  12.555  0.0579  0.4615  0.2614
 3067TIP3    H130692   0.473   2.082  12.550  0.1498  0.1938 -0.8348
 3067TIP3    H230693   0.358   2.033  12.465 -0.0371 -1.5076  0.3276
 3068TIP3   OH230694   0.624   1.334   5.624  0.0209  0.3871 -0.3239
 3068TIP3    H130695   0.547   1.350   5.570  0.1134  0.0905 -0.5410
 3068TIP3    H230696   0.616   1.397   5.696 -1.3740 -0.8269  0.6513
 3069TIP3   OH230697   4.044   0.499   4.260  0.3463  0.6472  0.2521
 3069TIP3    H130698   4.009   0.568   4.317  0.1622  1.0875 -0.3865
 3069TIP3    H230699   3.997   0.420   4.287 -0.9270  1.1681 -0.3721
 3070TIP3   OH230700   2.426   6.094   5.849  0.6168 -0.5545  0.1189
 3070TIP3    H130701   2.423   6.160   5.918  0.3195 -0.9661  0.5068
 3070TIP3    H230702   2.433   6.011   5.895 -0.1899 -0.8845 -0.3192
 3071TIP3   OH230703   1.173   4.846   2.114 -0.2298  0.0474  0.2295
 3071TIP3    H130704   1.173   4.867   2.207 -0.2944 -0.3108  0.3123
 3071TIP3    H230705   1.115   4.912   2.075 -1.3369 -0.6528  0.6505
 3072TIP3   OH230706   2.475   3.434   1.499 -0.2357  0.3884 -0.2436
 3072TIP3    H130707   2.546   3.421   1.437 -0.1649 -4.1077  0.4979
 3072TIP3    H230708   2.408   3.371   1.472 -2.4559  1.9593  1.2529
 3073TIP3   OH230709   3.951   4.321  11.413 -0.6594  0.0840  0.3156
 3073TIP3    H130710   3.940   4.367  11.329  2.0616  1.8569  0.8163
 3073TIP3    H230711   4.039   4.283  11.408 -0.4241  0.2865  2.3889
 3074TIP3   OH230712   1.918   6.140  13.395 -0.3063 -0.4101  0.3712
 3074TIP3    H130713   1.842   6.084  13.411  0.2272 -1.5837 -1.0611
 3074TIP3    H230714   1.983   6.111  13.459 -0.5316 -0.4492  0.5834
 3075TIP3   OH230715   4.457   4.107   1.727  0.0993 -0.1843  0.3060
 3075TIP3    H130716   4.410   4.039   1.775 -0.1075 -0.4793 -0.3010
 3075TIP3    H230717   4.488   4.167   1.795  2.1560 -2.0108  1.1277
 3076TIP3   OH230718   2.969   2.034  16.833 -0.5589  0.4772 -0.1364
 3076TIP3    H130719   2.991   2.064  16.922 -1.8814 -1.0987  0.7634
 3076TIP3    H230720   3.032   1.965  16.815 -1.4491 -0.4750  0.3425
 3077TIP3   OH230721   1.643   6.540  14.868  0.1588 -0.3651  0.6074
 3077TIP3    H130722   1.672   6.594  14.796  0.9940  1.0356  1.9380
 3077TIP3    H230723   1.655   6.450  14.837  0.6260  0.1954 -0.9117
 3078TIP3   OH230724   4.777   0.816  15.158  1.0867 -0.1348 -0.3807
 3078TIP3    H130725   4.690   0.790  15.187  0.8387  0.7314 -0.3033
 3078TIP3    H230726   4.762   0.892  15.101  1.8099  0.2945 -0.0236
 3079TIP3   OH230727   1.077   6.448  14.284 -0.9346  0.2213 -0.1179
 3079TIP3    H130728   1.043   6.360  14.266  1.6069 -0.9430  0.3111
 3079TIP3    H230729   1.107   6.480  14.199 -0.3484 -0.0391 -0.0135
 3080TIP3   OH230730   4.097   3.582  15.055  0.0321  0.6774  0.0660
 3080TIP3    H130731   4.111   3.494  15.092 -1.0460 -1.6850 -4.4205
 3080TIP3    H230732   4.185   3.614  15.035  0.4261  0.6062  1.5185
 3081TIP3   OH230733   5.883   5.058   4.582 -0.1949 -0.1744 -0.4239
 3081TIP3    H130734   5.826   5.018   4.517 -1.2946  1.3305 -0.4601
 3081TIP3    H230735   5.969   5.061   4.542 -0.1145 -2.2726 -0.4747
 3082TIP3   OH230736   4.425   4.513   4.151  0.0053  0.3986 -0.1951
 3082TIP3    H130737   4.463   4.494   4.066  1.5721  0.5996  0.4235
 3082TIP3    H230738   4.389   4.430   4.181  0.2999  0.1080 -0.6431
 3083TIP3   OH230739   3.489   2.807   3.472 -0.4208 -0.1413 -0.1209
 3083TIP3    H130740   3.548   2.876   3.442  0.1488 -0.1687  0.8872
 3083TIP3    H230741   3.547   2.740   3.508 -1.0519 -0.2378  0.7482
 3084TIP3   OH230742   2.985   5.289  15.549 -0.2555  0.5229  0.3508
 3084TIP3    H130743   3.053   5.305  15.614  0.5290 -0.7253 -0.1040
 3084TIP3    H230744   2.933   5.369  15.546  2.0427  2.0661 -0.2847
 3085TIP3   OH230745   3.464   1.214   0.641  0.3670  0.4578 -0.4807
 3085TIP3    H130746   3.391   1.271   0.617  1.1523  1.5530 -0.2967
 3085TIP3    H230747   3.539   1.272   0.653  1.1919 -0.6010 -0.2655
 3086TIP3   OH230748   3.424   4.052   0.636 -0.4341 -0.5891  0.0129
 3086TIP3    H130749   3.364   3.977   0.629 -1.8001  0.1945  2.2406
 3086TIP3    H230750   3.475   4.049   0.556 -1.5503 -2.9594 -0.7096
 3087TIP3   OH230751   6.119   6.496   5.383  0.4491 -0.5569 -0.4541
 3087TIP3    H130752   6.039   6.445   5.398  0.5019 -0.0024  2.3595
 3087TIP3    H230753   6.188   6.431   5.375  0.1985 -1.0136  0.8644
 3088TIP3   OH230754   1.834   2.305  14.140 -0.3686  0.8597  0.3457
 3088TIP3    H130755   1.775   2.276  14.071  1.5263  0.9510 -1.3888
 3088TIP3    H230756   1.818   2.245  14.212 -0.3396 -1.1164 -1.2263
 3089TIP3   OH230757   0.848   6.040  16.051  0.0098  0.0065  0.0793
 3089TIP3    H130758   0.830   6.078  15.965 -0.1650  0.7617  0.4476
 3089TIP3    H230759   0.762   6.031  16.091  0.2929  2.5727  1.4017
 3090TIP3   OH230760   3.736   5.270   3.693  0.5801 -0.0631 -0.7771
 3090TIP3    H130761   3.790   5.336   3.650 -0.2830  2.3178  1.5318
 3090TIP3    H230762   3.782   5.249   3.775 -0.6249 -0.0532 -0.0715
 3091TIP3   OH230763   0.465   4.198  16.625  0.4311 -0.2672  0.0491
 3091TIP3    H130764   0.429   4.285  16.606 -1.4309 -0.3727  2.5576
 3091TIP3    H230765   0.485   4.161  16.539  1.0961  2.5219 -1.1057
 3092TIP3   OH230766   4.948   0.098  17.018 -0.4160  0.3106  0.5969
 3092TIP3    H130767   4.888   0.056  16.957  1.1511 -0.9324 -0.1536
 3092TIP3    H230768   4.896   0.168  17.058 -2.4084 -0.8362  0.1553
 3093TIP3   OH230769   1.723   6.347   2.510  0.9979 -0.0991 -0.5494
 3093TIP3    H130770   1.637   6.304   2.506  0.8899  0.1276 -0.6875
 3093TIP3    H230771   1.755   6.330   2.598  0.2951  0.8103 -0.1037
 3094TIP3   OH230772   0.368   0.411  15.298  0.1794  0.3120  0.3225
 3094TIP3    H130773   0.318   0.482  15.257 -1.0394 -0.3880  0.5568
 3094TIP3    H230774   0.367   0.432  15.391  2.0407  1.3346  0.1598
 3095TIP3   OH230775   2.043   4.449  12.814  0.2809 -0.2081 -0.2220
 3095TIP3    H130776   2.048   4.358  12.786 -0.3288  0.1342 -1.5417
 3095TIP3    H230777   1.978   4.488  12.756  1.1522  1.2635 -0.2634
 3096TIP3   OH230778   3.051   5.856   4.720  0.0780  0.7299  0.2969
 3096TIP3    H130779   3.103   5.933   4.745  0.2521  0.7852 -0.2243
 3096TIP3    H230780   3.115   5.790   4.697 -0.0738  0.9437 -0.7887
 3097TIP3   OH230781   1.704   5.277  16.558 -0.0481 -0.1734 -0.1020
 3097TIP3    H130782   1.644   5.349  16.579  0.6762  1.1233 -2.1964
 3097TIP3    H230783   1.659   5.227  16.490  0.6943  0.0886 -0.8025
 3098TIP3   OH230784   0.052   4.676  16.909  0.0807 -0.0982 -0.4900
 3098TIP3    H130785   0.075   4.723  16.830 -1.5763 -2.4515 -2.5162
 3098TIP3    H230786   0.022   4.744  16.970  1.4752  1.7753 -1.7940
 3099TIP3   OH230787   1.453   5.362   6.992  0.3871  0.3510 -0.0568
 3099TIP3    H130788   1.512   5.291   6.964 -0.4779 -1.0904  1.5606
 3099TIP3    H230789   1.492   5.395   7.073 -0.2955  0.3275  0.2841
 3100TIP3   OH230790   0.254   4.504  16.967  0.3998  0.3972 -0.1153
 3100TIP3    H130791   0.231   4.431  16.910  0.4716  1.2982 -1.3443
 3100TIP3    H230792   0.182   4.566  16.955  0.9770  1.0767 -0.0958
 3101TIP3   OH230793   1.918   3.327   0.668  0.9407 -0.2407  0.0083
 3101TIP3    H130794   1.906   3.244   0.621  0.6101  0.4530 -1.1542
 3101TIP3    H230795   2.013   3.336   0.676  0.9751 -1.3821  1.3616
 3102TIP3   OH230796   3.190   0.983   4.635  0.3688  0.3070  0.6705
 3102TIP3    H130797   3.169   0.923   4.706 -0.5573  1.6298  1.5704
 3102TIP3    H230798   3.156   0.941   4.557 -1.0220  0.0366  1.3967
 3103TIP3   OH230799   4.841   5.120   3.423  0.5787  0.2525 -0.4339
 3103TIP3    H130800   4.779   5.060   3.466  0.5676  0.1176 -0.6391
 3103TIP3    H230801   4.797   5.145   3.341  0.8909 -0.0094 -0.6796
 3104TIP3   OH230802   5.116   6.582  15.765  0.6447  0.2860  0.4865
 3104TIP3    H130803   5.176   6.654  15.744  2.3249 -1.4327 -0.9427
 3104TIP3    H230804   5.119   6.576  15.861  0.2296  2.2433  0.6802
 3105TIP3   OH230805   1.913   3.861  14.357 -0.7417  0.0843 -0.2744
 3105TIP3    H130806   1.907   3.768  14.381 -1.0782 -0.4152 -2.1126
 3105TIP3    H230807   1.849   3.905  14.413  0.5506 -0.4959  1.7794
 3106TIP3   OH230808   4.521   2.969   3.958 -0.2079 -0.1484 -0.0820
 3106TIP3    H130809   4.595   3.001   4.010 -0.3726 -0.2121  0.1969
 3106TIP3    H230810   4.444   2.989   4.012 -0.3851 -0.1564 -0.3334
 3107TIP3   OH230811   6.173   3.727  16.572 -0.2041 -0.3652 -0.2063
 3107TIP3    H130812   6.151   3.811  16.532 -1.8833 -0.7636 -0.1975
 3107TIP3    H230813   6.195   3.670  16.498 -0.1959 -0.2390 -0.3019
 3108TIP3   OH230814   0.628   1.785  11.234  0.2776 -0.1565  0.0898
 3108TIP3    H130815   0.687   1.859  11.218 -0.5454  0.4007 -0.4695
 3108TIP3    H230816   0.601   1.795  11.325  0.9206 -0.3139  0.2956
 3109TIP3   OH230817   3.602   0.794  14.230  0.0945  0.0660 -0.3943
 3109TIP3    H130818   3.541   0.862  14.201 -1.6819 -1.0643  0.4953
 3109TIP3    H230819   3.620   0.743  14.151  0.9329  1.1694 -0.9318
 3110TIP3   OH230820   2.634   4.156   5.257 -0.6339  0.6658 -0.4107
 3110TIP3    H130821   2.605   4.237   5.298  1.1819  1.0821  0.1351
 3110TIP3    H230822   2.606   4.164   5.166 -3.0232  0.5845  0.2463
 3111TIP3   OH230823   2.437   2.564  15.570  0.6984  0.1358  0.2473
 3111TIP3    H130824   2.469   2.530  15.654  1.5983 -0.9044 -0.4990
 3111TIP3    H230825   2.355   2.516  15.555  0.8913 -0.1814  0.2026
 3112TIP3   OH230826   0.469   1.726  15.308 -0.3054 -0.2961  0.5619
 3112TIP3    H130827   0.404   1.658  15.328 -1.0002  0.2301  0.1362
 3112TIP3    H230828   0.426   1.782  15.245  1.0709 -0.7128 -0.8131
 3113TIP3   OH230829   0.695   4.936   0.818  0.0744 -0.3889 -0.4304
 3113TIP3    H130830   0.673   5.004   0.882 -0.4920 -0.4242 -0.5789
 3113TIP3    H230831   0.763   4.883   0.860  0.1731 -0.0187 -0.1230
 3114TIP3   OH230832   1.529   1.820   5.137 -0.3004  0.1092 -0.2549
 3114TIP3    H130833   1.499   1.788   5.221 -1.0440  1.2238 -0.0824
 3114TIP3    H230834   1.460   1.880   5.107  1.0038  1.5453 -0.5465
 3115TIP3   OH230835   6.501   3.253  13.964  0.9758  0.1753 -0.6372
 3115TIP3    H130836   6.546   3.283  14.042 -0.4720  0.3903  0.1432
 3115TIP3    H230837   6.462   3.332  13.926 -2.1201 -0.4367  0.9505
 3116TIP3   OH230838   5.381   3.497  13.096 -0.3518  0.1146 -0.5154
 3116TIP3    H130839   5.417   3.442  13.027  0.3249 -1.3365  0.9247
 3116TIP3    H230840   5.448   3.564  13.111 -0.3894  0.2813 -1.0684
 3117TIP3   OH230841   1.245   5.292  15.351 -0.0417  0.4883  0.0813
 3117TIP3    H130842   1.232   5.205  15.388  0.3044 -0.3744 -1.7252
 3117TIP3    H230843   1.156   5.327  15.340 -0.4004 -0.8523 -1.8512
 3118TIP3   OH230844   4.433   5.845  13.955 -0.1747  0.0180 -0.1214
 3118TIP3    H130845   4.384   5.900  13.894 -2.4812 -1.3028  0.4170
 3118TIP3    H230846   4.443   5.899  14.034  2.5269  1.6059 -1.3903
 3119TIP3   OH230847   2.777   3.878   5.454  0.3156  0.2698  0.4143
 3119TIP3    H130848   2.814   3.858   5.368  1.8224  1.2513  0.7925
 3119TIP3    H230849   2.699   3.931   5.435 -1.1308 -2.0207 -0.4065
 3120TIP3   OH230850   4.862   0.062   1.709  0.4015 -0.4731 -0.4475
 3120TIP3    H130851   4.892   0.151   1.729 -2.2600  0.4526 -0.1755
 3120TIP3    H230852   4.844   0.063   1.615  0.6799 -0.8432 -0.5080
 3121TIP3   OH230853   0.931   1.436  15.050  0.3939 -0.1309 -0.0559
 3121TIP3    H130854   0.873   1.422  14.975 -0.4837 -1.2016  0.7899
 3121TIP3    H230855   1.019   1.428  15.014  0.0004  0.1483 -1.1131
 3122TIP3   OH230856   6.432   1.375  17.242 -0.5252 -0.1022 -0.0842
 3122TIP3    H130857   6.456   1.432  17.316 -1.0822 -0.5972  0.4851
 3122TIP3    H230858   6.352   1.330  17.271 -1.2835  0.3806 -1.3440
 3123TIP3   OH230859   6.231   6.773   6.233 -0.2366  0.0788  0.2130
 3123TIP3    H130860   6.261   6.799   6.321 -1.2753  0.9006  0.3404
 3123TIP3    H230861   6.217   6.678   6.240  1.3137 -0.1687  0.4292
 3124TIP3   OH230862   5.424   0.041  12.752  0.2300  0.4852 -0.5126
 3124TIP3    H130863   5.443  -0.048  12.783 -1.0388 -0.3087 -1.8867
 3124TIP3    H230864   5.329   0.049  12.759  0.1378  1.0919 -2.0409
 3125TIP3   OH230865   4.898   5.537  12.837  0.5148  0.2641 -0.3131
 3125TIP3    H130866   4.895   5.487  12.755  1.8424  0.1181 -0.2993
 3125TIP3    H230867   4.957   5.611  12.817  1.4192 -0.1641  0.7066
 3126TIP3   OH230868   3.216   4.672  12.345 -0.4537 -0.4582 -0.0894
 3126TIP3    H130869   3.129   4.655  12.382 -1.3178 -1.2887 -2.3462
 3126TIP3    H230870   3.277   4.631  12.407 -1.5012  1.1965  2.1859
 3127TIP3   OH230871   6.740   6.123  16.077  0.4744  0.2530 -0.2756
 3127TIP3    H130872   6.652   6.084  16.076 -0.1597  1.5750  0.3421
 3127TIP3    H230873   6.763   6.128  16.169  1.0946  0.1494 -0.4240
 3128TIP3   OH230874   4.444   3.405  12.324 -0.1489 -0.0222  0.6076
 3128TIP3    H130875   4.539   3.394  12.318 -0.1378  0.1592  0.4326
 3128TIP3    H230876   4.429   3.436  12.413  0.1883  2.1749 -0.0469
 3129TIP3   OH230877   5.125   4.292   2.865 -1.0480 -0.0089  0.1417
 3129TIP3    H130878   5.157   4.376   2.898 -0.4138 -0.3184  0.3344
 3129TIP3    H230879   5.052   4.270   2.922 -0.5770 -0.0679  0.7346
 3130TIP3   OH230880   6.263   2.869  11.361  0.2391 -0.1807 -0.2503
 3130TIP3    H130881   6.305   2.845  11.443  0.6212 -1.4450 -0.7902
 3130TIP3    H230882   6.328   2.847  11.294 -0.3337  0.1938 -0.9437
 3131TIP3   OH230883   2.680   5.913   0.829 -0.1852 -0.2652  0.0386
 3131TIP3    H130884   2.725   5.917   0.913  0.4625 -0.8832 -0.2779
 3131TIP3    H230885   2.622   5.837   0.836 -0.7692  0.1860  0.2308
 3132TIP3   OH230886   3.047   5.484  12.536 -0.1725 -0.6869  0.0751
 3132TIP3    H130887   3.096   5.411  12.498  1.0195 -0.1935  0.6192
 3132TIP3    H230888   2.979   5.503  12.471 -0.1222 -1.8774 -0.3495
 3133TIP3   OH230889   3.721   5.995  15.429 -0.3118  0.8256  0.6513
 3133TIP3    H130890   3.679   6.081  15.436 -0.3114  0.7863  1.1665
 3133TIP3    H230891   3.813   6.016  15.411 -0.7207  0.9039 -1.6857
 3134TIP3   OH230892   4.680   4.099  15.946 -0.0031 -0.4372  0.5885
 3134TIP3    H130893   4.764   4.143  15.933 -0.3053 -0.1727 -0.6914
 3134TIP3    H230894   4.692   4.012  15.907 -0.3540 -0.3491  0.2732
 3135TIP3   OH230895   6.038   4.562   1.095  0.0531 -0.4427 -0.0083
 3135TIP3    H130896   6.041   4.655   1.073 -0.2108 -0.2178  0.8614
 3135TIP3    H230897   6.129   4.537   1.111  0.2703 -0.6422 -1.3906
 3136TIP3   OH230898   3.571   6.397   3.620 -0.0502 -0.2009 -0.2295
 3136TIP3    H130899   3.488   6.439   3.600  0.4716 -0.4759 -3.4604
 3136TIP3    H230900   3.554   6.303   3.610  0.4826 -0.3065 -0.1830
 3137TIP3   OH230901   0.339   1.785   0.948  0.3148 -0.2109 -0.4297
 3137TIP3    H130902   0.394   1.714   0.917 -0.1449 -0.6284 -0.2994
 3137TIP3    H230903   0.393   1.864   0.937 -0.1297 -0.1782 -3.1833
 3138TIP3   OH230904   3.419   0.634   0.323  0.1092  0.3562  1.1121
 3138TIP3    H130905   3.414   0.599   0.412  0.5955  0.5347  1.2131
 3138TIP3    H230906   3.510   0.619   0.297 -0.1012  0.0580  0.5407
 3139TIP3   OH230907   2.568   6.206   5.230  0.1075 -0.0591  0.0931
 3139TIP3    H130908   2.506   6.143   5.266  0.0152 -0.5919 -0.9654
 3139TIP3    H230909   2.522   6.290   5.233 -0.0222 -0.1559  0.8748
 3140TIP3   OH230910   1.334   5.706   0.124 -0.3055 -0.4956 -0.0005
 3140TIP3    H130911   1.251   5.692   0.080 -0.5806 -2.0955  0.9448
 3140TIP3    H230912   1.333   5.646   0.199  0.9184  0.7817  1.1249
 3141TIP3   OH230913   3.898   1.100  15.461 -0.0419  0.1763  0.1001
 3141TIP3    H130914   3.961   1.124  15.393 -0.1370 -1.1436 -0.4816
 3141TIP3    H230915   3.919   1.158  15.534  2.1060 -0.4649  0.0641
 3142TIP3   OH230916   5.193   5.236  12.879 -0.4114 -0.0889 -0.8013
 3142TIP3    H130917   5.179   5.330  12.874  2.3743  0.3586 -2.0113
 3142TIP3    H230918   5.272   5.225  12.932 -0.3322 -1.6919 -1.1855
 3143TIP3   OH230919   4.904   1.979  15.246 -0.1013 -0.2616  0.0657
 3143TIP3    H130920   4.908   2.033  15.325 -1.5682 -0.0754  0.0449
 3143TIP3    H230921   4.892   1.890  15.279  1.7817 -0.5560  0.0853
 3144TIP3   OH230922   0.986   4.907   5.344 -0.0231 -0.1699  1.0235
 3144TIP3    H130923   1.082   4.909   5.343 -0.0427  0.7147  0.7276
 3144TIP3    H230924   0.964   4.824   5.302  0.6162 -0.6840  1.6609
 3145TIP3   OH230925   4.105   2.225  12.866  0.0293  0.4079  0.3996
 3145TIP3    H130926   4.089   2.168  12.941 -0.0110 -1.6660 -1.0917
 3145TIP3    H230927   4.020   2.229  12.821  0.8539 -1.4541 -1.4938
 3146TIP3   OH230928   2.188   6.214  16.207  0.0617 -0.4594  0.0367
 3146TIP3    H130929   2.214   6.221  16.299 -0.7476 -1.7480  0.3810
 3146TIP3    H230930   2.184   6.120  16.189 -0.6974 -0.2403 -1.0554
 3147TIP3   OH230931   4.567   2.364   3.230  0.1911  0.3288 -0.1619
 3147TIP3    H130932   4.509   2.292   3.256  0.4277 -0.7350 -2.3083
 3147TIP3    H230933   4.552   2.374   3.136  0.5797  2.7620 -0.0321
 3148TIP3   OH230934   6.398   4.095  15.510 -0.3057 -0.1522 -0.5427
 3148TIP3    H130935   6.463   4.114  15.443  2.1210 -1.8974  1.1353
 3148TIP3    H230936   6.384   4.000  15.504 -2.5042  0.1243 -0.6131
 3149TIP3   OH230937   2.284   0.225   3.523  0.0810  0.0768 -0.7505
 3149TIP3    H130938   2.249   0.242   3.436 -0.0614 -0.1598 -0.7405
 3149TIP3    H230939   2.269   0.131   3.537 -0.1253  0.1632 -0.3737
 3150TIP3   OH230940   2.078   2.283   2.818  0.0651 -0.2757 -0.4292
 3150TIP3    H130941   2.015   2.327   2.876 -0.7887  1.1776 -2.3290
 3150TIP3    H230942   2.155   2.340   2.819  2.4595 -3.1569  3.6200
 3151TIP3   OH230943   0.541   4.815  13.704 -0.0886  0.1917 -0.1060
 3151TIP3    H130944   0.550   4.803  13.609  2.4064 -1.5837  0.2487
 3151TIP3    H230945   0.564   4.907  13.718  0.2469  0.2889 -1.1736
 3152TIP3   OH230946   4.647   0.284  15.691 -0.0934  0.3977  0.3218
 3152TIP3    H130947   4.711   0.242  15.634 -1.1573 -1.2817  0.3055
 3152TIP3    H230948   4.572   0.302  15.634 -0.1331  1.1963  0.6126
 3153TIP3   OH230949   5.260   6.596  13.943 -0.2025 -0.2343 -0.6907
 3153TIP3    H130950   5.230   6.526  13.885  0.2858 -1.2844  0.2632
 3153TIP3    H230951   5.339   6.559  13.985 -1.7715 -0.4726  2.3371
 3154TIP3   OH230952   4.291   1.160  11.377  0.3901  0.5634 -0.2237
 3154TIP3    H130953   4.344   1.085  11.405 -0.2734  0.4247  0.7279
 3154TIP3    H230954   4.329   1.186  11.293  0.0503 -1.4565 -1.0746
 3155TIP3   OH230955   1.853   4.651   4.091  0.5117  0.7435  0.3879
 3155TIP3    H130956   1.786   4.672   4.026  1.4954  0.8797 -0.5902
 3155TIP3    H230957   1.864   4.732   4.141 -1.9152  0.0123  2.3319
 3156TIP3   OH230958   1.897   1.370   4.289  0.3613  0.0188  0.3695
 3156TIP3    H130959   1.937   1.457   4.294 -0.3722  0.4543 -0.9705
 3156TIP3    H230960   1.962   1.312   4.329  2.7546  0.5758 -2.3921
 3157TIP3   OH230961   0.879   2.229   4.449 -0.3101  0.2730  0.0369
 3157TIP3    H130962   0.795   2.273   4.434 -0.5293  0.5830  1.9428
 3157TIP3    H230963   0.871   2.192   4.537  1.9056  1.1591  0.6788
 3158TIP3   OH230964   3.881   0.800   0.600 -0.0510  0.3847 -0.3576
 3158TIP3    H130965   3.884   0.894   0.583  1.5407  0.3676 -0.3595
 3158TIP3    H230966   3.819   0.790   0.672 -1.3519  1.2545 -1.3099
 3159TIP3   OH230967   6.809   3.738   2.416  0.3138 -0.5652  0.2285
 3159TIP3    H130968   6.729   3.789   2.424 -0.7219 -2.3865  3.2965
 3159TIP3    H230969   6.875   3.788   2.464  0.5971  0.0448 -0.7512
 3160TIP3   OH230970   3.079   1.595  11.152  0.1667  0.4522 -0.2906
 3160TIP3    H130971   2.999   1.547  11.129  0.2204  0.5136 -0.6116
 3160TIP3    H230972   3.087   1.662  11.084 -0.3030  1.3932  0.5387
 3161TIP3   OH230973   4.269   4.414   1.326  0.5031  0.3227 -0.1170
 3161TIP3    H130974   4.343   4.424   1.386  0.3782 -2.3837  0.6152
 3161TIP3    H230975   4.202   4.369   1.378 -1.2021  1.5557 -1.1460
 3162TIP3   OH230976   2.724   6.433  16.098 -0.1970 -0.2489 -0.0130
 3162TIP3    H130977   2.743   6.402  16.009  1.5820 -0.3774  0.3690
 3162TIP3    H230978   2.717   6.528  16.088 -0.6479 -0.3189 -0.3908
 3163TIP3   OH230979   1.466   1.947  13.909 -0.1644  0.1086  0.0084
 3163TIP3    H130980   1.381   1.914  13.937  0.3735 -2.6152 -1.3001
 3163TIP3    H230981   1.509   1.872  13.869  2.6425  1.5571  0.0846
 3164TIP3   OH230982   3.258   3.359  15.777  0.3000 -0.1863 -0.4395
 3164TIP3    H130983   3.335   3.415  15.766 -1.1195  2.1781  0.6518
 3164TIP3    H230984   3.250   3.347  15.872 -0.0479 -1.3573 -0.6051
 3165TIP3   OH230985   3.815   1.702   5.468  0.4766 -0.2509 -0.2081
 3165TIP3    H130986   3.724   1.728   5.479  0.2940 -0.3784 -1.3257
 3165TIP3    H230987   3.815   1.607   5.480  0.1138 -0.5256 -2.1084
 3166TIP3   OH230988   3.128   1.917   3.195 -0.2597  0.0251  0.0975
 3166TIP3    H130989   3.174   1.934   3.278 -0.8992 -0.4402  0.5590
 3166TIP3    H230990   3.196   1.923   3.128  0.6129 -1.2365  0.8231
 3167TIP3   OH230991   1.377   2.109   1.240  0.3724 -0.0915  0.0726
 3167TIP3    H130992   1.379   2.058   1.160  2.7889  0.2555 -0.1609
 3167TIP3    H230993   1.419   2.192   1.217 -0.2382  0.6082  1.3363
 3168TIP3   OH230994   0.027   4.719  16.519 -0.3076  0.4410 -1.0472
 3168TIP3    H130995   0.050   4.791  16.578 -1.1022 -0.1081 -0.0435
 3168TIP3    H230996  -0.008   4.651  16.576  2.1900 -1.5668 -1.6909
 3169TIP3   OH230997   3.061   3.271   2.158  0.7205 -0.4365 -0.2890
 3169TIP3    H130998   2.971   3.247   2.137  0.8780 -0.7189 -0.6708
 3169TIP3    H230999   3.069   3.255   2.252 -0.4625  2.3804  0.3777
 3170TIP3   OH231000   1.176   1.909   2.293  0.0906  0.2812 -0.0498
 3170TIP3    H131001   1.182   1.813   2.287 -1.5234 -0.0324  2.0193
 3170TIP3    H231002   1.141   1.937   2.209  0.8734 -0.9066 -0.7949
 3171TIP3   OH231003   2.632   6.570  12.265 -0.7434 -0.1353 -0.1132
 3171TIP3    H131004   2.605   6.504  12.329 -2.4224 -0.1644 -0.7858
 3171TIP3    H231005   2.623   6.527  12.180  1.9936 -0.2820 -0.4057
 3172TIP3   OH231006   6.209   4.362   4.715  0.2611 -0.0931  0.5025
 3172TIP3    H131007   6.175   4.310   4.642  0.4916  2.1752 -1.3470
 3172TIP3    H231008   6.208   4.452   4.682  3.1501  0.6996  2.2713
 3173TIP3   OH231009   4.226   3.717   4.732  0.4015  0.7407  0.2695
 3173TIP3    H131010   4.279   3.786   4.772 -0.3905  0.5540  1.7131
 3173TIP3    H231011   4.270   3.636   4.756 -0.1068  0.6247  0.8386
 3174TIP3   OH231012   4.502   2.477  15.633 -0.3468  0.5429 -0.0221
 3174TIP3    H131013   4.409   2.457  15.641 -0.3307  0.6068  0.3192
 3174TIP3    H231014   4.506   2.573  15.637 -0.4615  0.6851 -2.0005
 3175TIP3   OH231015   1.936   2.565   1.629  1.0549 -0.2122  0.1173
 3175TIP3    H131016   2.017   2.566   1.578  0.7776 -0.7405 -0.3446
 3175TIP3    H231017   1.933   2.477   1.667 -0.7820 -1.3307 -2.3292
 3176TIP3   OH231018   1.540   3.671   5.997  0.1693 -0.1059 -0.2374
 3176TIP3    H131019   1.558   3.764   6.012 -1.7511  0.0919  1.3671
 3176TIP3    H231020   1.582   3.626   6.071 -2.2809 -0.0190  1.3221
 3177TIP3   OH231021   1.899   5.295  11.798 -0.2423 -0.5249  0.1297
 3177TIP3    H131022   1.886   5.334  11.884 -2.1092 -1.4327  0.3175
 3177TIP3    H231023   1.901   5.201  11.815  0.2051 -0.6822 -0.7348
 3178TIP3   OH231024   6.809   1.883   3.538 -0.0123 -0.2206  0.1213
 3178TIP3    H131025   6.813   1.958   3.479 -2.0364 -1.8944 -2.3613
 3178TIP3    H231026   6.718   1.853   3.533  0.0213 -1.1822  3.2537
 3179TIP3   OH231027   6.677   0.517  11.354 -0.4419 -0.2680 -0.1537
 3179TIP3    H131028   6.710   0.505  11.265 -0.8582 -0.7369 -0.2478
 3179TIP3    H231029   6.614   0.446  11.366 -1.5642  0.7132 -0.0512
 3180TIP3   OH231030   4.399   2.023   1.846  0.4394 -0.6064 -0.3676
 3180TIP3    H131031   4.338   2.027   1.920  0.4997  0.9202 -0.3617
 3180TIP3    H231032   4.483   2.002   1.886  0.4841  0.2714  0.0154
 3181TIP3   OH231033   4.497   4.548   0.206  0.0721  0.5348 -0.3368
 3181TIP3    H131034   4.477   4.512   0.292  0.6087 -0.3448 -0.5714
 3181TIP3    H231035   4.530   4.637   0.224 -0.9474  0.8105  0.2651
 3182TIP3   OH231036   1.587   0.891  13.927  0.3355 -0.4429 -0.0057
 3182TIP3    H131037   1.663   0.922  13.977 -0.1870  0.2785  0.3587
 3182TIP3    H231038   1.624   0.828  13.865  1.2320 -0.1162  0.1740
 3183TIP3   OH231039   2.788   1.480  10.681 -0.0378  0.4203 -0.6779
 3183TIP3    H131040   2.718   1.453  10.739  0.6381 -1.6354 -0.7440
 3183TIP3    H231041   2.746   1.537  10.617 -1.0817  1.4708  0.8782
 3184TIP3   OH231042   6.509   4.358   0.672  0.1879 -0.5029 -0.3291
 3184TIP3    H131043   6.585   4.381   0.725 -0.1230  0.4874 -0.2834
 3184TIP3    H231044   6.533   4.382   0.583 -0.7617  1.8013 -0.0592
 3185TIP3   OH231045   0.373   3.035  11.920  0.7347  0.2412  0.4729
 3185TIP3    H131046   0.393   3.071  11.834  1.4651  0.4878  0.7339
 3185TIP3    H231047   0.288   3.073  11.942 -0.7693 -1.9397 -1.2580
 3186TIP3   OH231048   6.389   2.650  16.612 -0.7041  0.1691  0.5071
 3186TIP3    H131049   6.435   2.622  16.533 -1.8480 -0.7274  0.1309
 3186TIP3    H231050   6.433   2.730  16.639 -0.2634  0.4577 -1.0130
 3187TIP3   OH231051   6.628   0.175   4.180 -0.2928 -0.0653  0.3301
 3187TIP3    H131052   6.654   0.107   4.243 -1.5913 -0.9019 -0.0159
 3187TIP3    H231053   6.594   0.246   4.234  1.1493  0.3865  0.6993
 3188TIP3   OH231054   0.190   0.071  11.343 -0.1592  0.1668  0.7504
 3188TIP3    H131055   0.176  -0.004  11.401 -1.4864  0.4430  0.8151
 3188TIP3    H231056   0.268   0.115  11.379 -0.8106  0.1908  2.1829
 3189TIP3   OH231057   0.042   1.378   5.193  0.4919 -0.1720 -0.4716
 3189TIP3    H131058   0.025   1.468   5.165  0.5213  0.1479  0.4856
 3189TIP3    H231059   0.052   1.384   5.288  1.3887 -1.0571 -0.4912
 3190TIP3   OH231060   6.642   5.860  16.849  0.0191 -0.3700 -0.3585
 3190TIP3    H131061   6.653   5.768  16.826 -0.1357 -0.8055  1.2177
 3190TIP3    H231062   6.714   5.905  16.804  1.1228 -1.5014  0.2336
 3191TIP3   OH231063   1.622   0.089  12.886 -0.0271 -0.3120  0.4906
 3191TIP3    H131064   1.685   0.101  12.958 -1.2299 -0.6187  1.6317
 3191TIP3    H231065   1.652   0.149  12.818  1.5769 -0.5496  0.9436
 3192TIP3   OH231066   6.052   1.957   1.109  0.0601  0.1692  0.1293
 3192TIP3    H131067   6.048   1.949   1.014  0.9289 -1.3923  0.1848
 3192TIP3    H231068   6.068   2.050   1.125 -0.2534  0.4760 -1.2326
 3193TIP3   OH231069   2.950   5.534   3.706 -0.4225 -0.0283  0.1931
 3193TIP3    H131070   2.942   5.523   3.612 -1.6430 -0.3442  0.3186
 3193TIP3    H231071   2.871   5.583   3.731  1.0391  2.2236  0.7355
 3194TIP3   OH231072   1.552   1.680  12.858 -0.0987 -0.3726 -0.5876
 3194TIP3    H131073   1.572   1.636  12.940 -2.7594 -1.2918 -0.3591
 3194TIP3    H231074   1.600   1.763  12.863  0.7604 -0.9407  1.3275
 3195TIP3   OH231075   3.502   4.540   0.956 -0.2216  0.3224  0.6195
 3195TIP3    H131076   3.542   4.545   0.869  0.1844 -1.1874  0.6976
 3195TIP3    H231077   3.410   4.519   0.939  0.1024 -1.1390  0.5603
 3196TIP3   OH231078   0.653   1.931  13.745  0.1510  0.4704  0.2520
 3196TIP3    H131079   0.736   1.922  13.793  0.1694  0.0652  0.1481
 3196TIP3    H231080   0.609   2.004  13.787  0.0449 -0.0535  1.0658
 3197TIP3   OH231081   4.979   5.108  13.560  0.3704  0.2332 -0.3604
 3197TIP3    H131082   4.890   5.092  13.530  1.1189  0.2408 -2.7847
 3197TIP3    H231083   4.996   5.039  13.624 -0.2188 -2.0282 -2.4858
 3198TIP3   OH231084   5.346   1.334   5.344 -0.0078  0.1103 -0.7575
 3198TIP3    H131085   5.267   1.333   5.397  0.7384  1.3066  0.4619
 3198TIP3    H231086   5.314   1.336   5.253 -1.3630  0.4101 -0.3009
 3199TIP3   OH231087   1.586   1.142   3.408 -0.4072 -0.1755  0.4767
 3199TIP3    H131088   1.646   1.165   3.479 -0.7100  0.1814  0.6241
 3199TIP3    H231089   1.561   1.226   3.370 -0.2453 -0.3626 -0.0629
 3200TIP3   OH231090   6.514   5.577  11.759 -0.1504  0.1701  0.2253
 3200TIP3    H131091   6.592   5.576  11.815 -1.5607  1.6242  2.3254
 3200TIP3    H231092   6.510   5.488  11.724  0.4053 -1.0916  3.0664
 3201TIP3   OH231093   6.036   0.937   0.517 -0.4994  0.6697  0.4112
 3201TIP3    H131094   6.003   0.948   0.427 -1.1964  0.4028  0.6274
 3201TIP3    H231095   6.104   0.871   0.510 -1.4269 -0.2900  0.2671
 3202TIP3   OH231096   3.701   6.431  14.089 -0.5047  0.6030 -0.1279
 3202TIP3    H131097   3.754   6.507  14.066  0.0158  0.4253  0.4743
 3202TIP3    H231098   3.668   6.399  14.005  0.3744  0.6922 -0.5217
 3203TIP3   OH231099   1.899   3.098   4.824 -0.2004  0.1812 -0.1061
 3203TIP3    H131100   1.854   3.013   4.827 -0.0385  0.1213  1.7177
 3203TIP3    H231101   1.847   3.151   4.764 -1.6212 -0.5066  0.4687
 3204TIP3   OH231102   2.137   6.120   4.822 -0.0284 -0.2737  0.8291
 3204TIP3    H131103   2.169   6.207   4.799  0.3712 -0.3341  1.1438
 3204TIP3    H231104   2.162   6.108   4.914 -0.9067 -0.3462  1.0752
 3205TIP3   OH231105   1.979   4.141   0.538  0.5997 -0.5638 -0.0594
 3205TIP3    H131106   1.896   4.117   0.497  0.2706  0.1250  0.1836
 3205TIP3    H231107   2.046   4.119   0.472  0.1392 -0.1911 -0.6672
 3206TIP3   OH231108   1.636   3.008  14.613  0.1439 -0.1928  0.2835
 3206TIP3    H131109   1.694   2.932  14.607  0.5967  0.0156  1.6882
 3206TIP3    H231110   1.548   2.971  14.625  0.5455 -0.5629  2.6459
 3207TIP3   OH231111   3.702   5.138  13.946  0.0405 -0.5033  0.1407
 3207TIP3    H131112   3.665   5.224  13.966  1.2590  0.0225  0.2285
 3207TIP3    H231113   3.768   5.124  14.014 -0.0211 -1.4341  0.0218
 3208TIP3   OH231114   6.222   6.096   3.766  0.4812 -0.2584 -0.2888
 3208TIP3    H131115   6.129   6.101   3.786  1.2963 -0.3203  4.7146
 3208TIP3    H231116   6.232   6.010   3.723 -1.6140 -0.7586  0.1095
 3209TIP3   OH231117   2.163   5.915  14.187  0.5741 -0.2814  0.1009
 3209TIP3    H131118   2.095   5.979  14.206  1.9096  0.8490  1.2611
 3209TIP3    H231119   2.157   5.852  14.259 -0.0645 -0.9439 -0.5007
 3210TIP3   OH231120   3.734   4.051   3.166 -0.4316 -0.7884 -0.4852
 3210TIP3    H131121   3.656   4.103   3.184  0.2205  0.0520  0.0369
 3210TIP3    H231122   3.709   3.993   3.095 -0.7303  1.3661 -2.2321
 3211TIP3   OH231123   2.499   6.794  15.464 -0.2670  0.1102 -0.4462
 3211TIP3    H131124   2.539   6.724  15.413  0.8349  0.5357 -0.1770
 3211TIP3    H231125   2.407   6.769  15.470  0.0807 -1.2218 -0.4949
 3212TIP3   OH231126   0.578   0.224   2.489 -0.4359  0.2391  0.3665
 3212TIP3    H131127   0.527   0.147   2.513 -0.6638  0.1694 -0.3225
 3212TIP3    H231128   0.594   0.215   2.395 -0.6199  1.1156  0.2402
 3213TIP3   OH231129   4.682   1.680  12.169 -0.0006  0.6885  0.0934
 3213TIP3    H131130   4.684   1.776  12.175 -2.1298  0.8281 -0.3810
 3213TIP3    H231131   4.606   1.662  12.113  2.2793 -1.2346 -2.6233
 3214TIP3   OH231132   6.210   3.948   2.978  0.5819  0.4549 -0.1293
 3214TIP3    H131133   6.288   4.003   2.987  0.7374  0.3208 -0.6619
 3214TIP3    H231134   6.145   4.006   2.939  0.1900  0.7679  0.9425
 3215TIP3   OH231135   1.832   2.079  13.449  0.1871  0.6481  0.7850
 3215TIP3    H131136   1.800   2.147  13.390  0.9250  0.5795  0.2919
 3215TIP3    H231137   1.792   2.099  13.534 -2.4087 -0.3311 -0.1026
 3216TIP3   OH231138   1.270   4.407   1.452 -0.6760  0.5779 -0.3024
 3216TIP3    H131139   1.292   4.481   1.509  1.5622  0.7951 -1.3686
 3216TIP3    H231140   1.348   4.392   1.399 -1.5627 -1.6624 -1.1259
 3217TIP3   OH231141   1.965   0.622   2.331  0.2647 -0.3225 -0.0205
 3217TIP3    H131142   2.005   0.560   2.270  2.1548 -0.2341  1.0564
 3217TIP3    H231143   1.976   0.707   2.288 -0.5229 -0.4888 -0.5824
 3218TIP3   OH231144   2.111   2.400   6.505 -0.1105 -0.1471  0.2871
 3218TIP3    H131145   2.130   2.338   6.574  0.8624  2.0155  2.1040
 3218TIP3    H231146   2.020   2.426   6.519 -0.2665 -0.5436  0.0257
 3219TIP3   OH231147   6.320   3.521  15.009  0.3714  0.0421  0.3796
 3219TIP3    H131148   6.404   3.518  14.963  0.0216 -1.0883 -0.2322
 3219TIP3    H231149   6.258   3.482  14.947 -0.5002  0.3823  1.0282
 3220TIP3   OH231150   0.959   4.850  14.159 -0.0626  0.4407  0.2057
 3220TIP3    H131151   0.904   4.774  14.182 -0.9772  1.0196 -0.0128
 3220TIP3    H231152   1.023   4.815  14.097 -0.2035 -0.2497  0.4400
 3221TIP3   OH231153   2.570   4.378  13.713 -0.3842 -0.2597 -0.5701
 3221TIP3    H131154   2.595   4.324  13.788 -1.9197  1.3972  1.2379
 3221TIP3    H231155   2.634   4.356  13.646  2.2837 -0.4240  1.8289
 3222TIP3   OH231156   0.742   6.216  12.885  0.0904  0.4720 -0.0750
 3222TIP3    H131157   0.782   6.244  12.803 -0.9886  1.0925 -0.4122
 3222TIP3    H231158   0.691   6.139  12.862  0.2450  0.3099  0.1285
 3223TIP3   OH231159   4.828   2.335   3.352  0.8450 -0.5430 -0.2281
 3223TIP3    H131160   4.733   2.343   3.342  0.8458 -0.3667 -0.0899
 3223TIP3    H231161   4.839   2.265   3.417  0.7675  0.7679  1.2418
 3224TIP3   OH231162   3.114   6.465   2.225 -0.8230  0.6438  0.2210
 3224TIP3    H131163   3.119   6.535   2.291 -1.2886 -1.0562  2.1662
 3224TIP3    H231164   3.024   6.434   2.231 -0.1583 -1.2976  0.7144
 3225TIP3   OH231165   4.839   1.639   3.833  0.3790  0.1712 -0.4533
 3225TIP3    H131166   4.779   1.641   3.907 -0.7140 -0.3767 -1.2862
 3225TIP3    H231167   4.802   1.701   3.770  0.1801 -0.8078 -1.3318
 3226TIP3   OH231168   4.500   3.843  12.511  0.1446  0.0639  0.7524
 3226TIP3    H131169   4.423   3.789  12.495  1.1883 -1.0630 -0.7868
 3226TIP3    H231170   4.516   3.836  12.605 -0.6738 -1.0188  0.8262
 3227TIP3   OH231171   1.343   4.614   2.323  0.0069 -0.3368  0.1779
 3227TIP3    H131172   1.382   4.685   2.373 -0.2380  0.1735 -0.3508
 3227TIP3    H231173   1.390   4.614   2.239  1.3546 -2.0547  0.8667
 3228TIP3   OH231174   4.538   4.422  10.405 -0.4428  0.4260 -0.0443
 3228TIP3    H131175   4.594   4.419  10.483  1.9255 -0.7152 -1.6739
 3228TIP3    H231176   4.531   4.515  10.384  0.1846  0.6338  0.6381
 3229TIP3   OH231177   0.255   4.050   3.778  0.3824  0.0382 -0.4192
 3229TIP3    H131178   0.209   3.977   3.819  1.6210 -0.9956 -0.7758
 3229TIP3    H231179   0.342   4.014   3.758  0.5588  1.2039 -1.8553
 3230TIP3   OH231180   3.382   5.307   1.855 -0.2942  0.3364  0.1047
 3230TIP3    H131181   3.312   5.247   1.832  0.2662 -0.1123 -0.4889
 3230TIP3    H231182   3.456   5.279   1.801 -0.1017  1.7360 -0.3975
 3231TIP3   OH231183   0.119   0.074   5.605 -0.3755  0.0183  0.9432
 3231TIP3    H131184   0.144   0.165   5.622  0.4336 -0.0502  0.1612
 3231TIP3    H231185   0.180   0.022   5.657  3.0335 -0.2505 -2.8377
 3232TIP3   OH231186   3.006   6.747   3.776  0.1494  0.1530  0.1851
 3232TIP3    H131187   2.982   6.658   3.800 -1.7242  0.2651 -1.0474
 3232TIP3    H231188   3.078   6.737   3.714  2.0100 -0.3133  2.3218
 3233TIP3   OH231189   6.372   2.559  14.149 -0.0737  0.4223 -0.1656
 3233TIP3    H131190   6.364   2.476  14.101 -0.4172  0.3982 -0.0747
 3233TIP3    H231191   6.428   2.614  14.094 -0.3942  0.3655 -0.5553
 3234TIP3   OH231192   1.507   0.817  12.205  0.1369  0.6491  0.5485
 3234TIP3    H131193   1.559   0.765  12.144 -0.3758  0.1102  0.5540
 3234TIP3    H231194   1.490   0.899  12.159 -0.6695  0.0551 -0.2461
 3235TIP3   OH231195   3.949   5.587   3.857 -0.4043  0.1732 -0.3012
 3235TIP3    H131196   3.859   5.590   3.891  0.4883  1.5409  2.1854
 3235TIP3    H231197   3.941   5.543   3.772 -3.2564 -0.7357  0.3298
 3236TIP3   OH231198   2.763   6.001  14.638 -0.4581 -0.3073  0.1132
 3236TIP3    H131199   2.819   6.043  14.703  0.1022  1.0215 -1.1791
 3236TIP3    H231200   2.739   6.071  14.577  2.1246 -2.0871 -3.3051
 3237TIP3   OH231201   5.940   0.416  12.535 -0.1492  0.3884  0.0592
 3237TIP3    H131202   5.976   0.500  12.504  1.5524 -0.2775  0.1098
 3237TIP3    H231203   6.014   0.356  12.531 -1.3565 -1.1509 -0.0289
 3238TIP3   OH231204   6.285   5.350   5.622  0.1490 -0.0981  0.2095
 3238TIP3    H131205   6.353   5.417   5.623  1.2477 -1.1682 -0.4494
 3238TIP3    H231206   6.330   5.269   5.648 -0.6078 -1.0382 -1.2638
 3239TIP3   OH231207   2.999   3.459   3.688  0.5207 -0.3531 -0.4767
 3239TIP3    H131208   2.945   3.409   3.749 -0.3539 -0.5329 -1.3696
 3239TIP3    H231209   3.042   3.525   3.742  0.2256 -0.8788  0.4209
 3240TIP3   OH231210   4.498   2.110   4.258 -0.2223 -0.1943 -0.3810
 3240TIP3    H131211   4.440   2.035   4.252 -0.1675 -0.3561  0.9702
 3240TIP3    H231212   4.586   2.074   4.246 -0.2680 -0.1950 -0.7237
 3241TIP3   OH231213   0.763   2.601   0.105 -0.6181  0.2672 -0.2086
 3241TIP3    H131214   0.797   2.679   0.062 -1.8156  1.0265  0.1775
 3241TIP3    H231215   0.693   2.570   0.047  0.9756 -1.5761 -1.2632
 3242TIP3   OH231216   4.470   6.600  12.961 -0.1688  0.4510 -0.5427
 3242TIP3    H131217   4.502   6.673  13.014 -0.3197  0.6981 -0.7864
 3242TIP3    H231218   4.424   6.642  12.888 -1.4100  0.1032  0.0150
 3243TIP3   OH231219   4.707   6.366   4.639 -0.2954 -0.2322  0.2599
 3243TIP3    H131220   4.669   6.352   4.552 -2.0486 -0.1770  0.9756
 3243TIP3    H231221   4.632   6.378   4.697  0.8147 -0.4927  1.8407
 3244TIP3   OH231222   4.401   0.468   4.905 -0.0283  0.0804 -0.0428
 3244TIP3    H131223   4.462   0.528   4.947  0.2596 -0.0122 -0.3252
 3244TIP3    H231224   4.315   0.505   4.923  0.1096  0.2073  0.3644
 3245TIP3   OH231225   4.571   2.001   2.390  0.0530 -0.2107 -0.1481
 3245TIP3    H131226   4.478   2.015   2.405 -0.4141 -0.9447 -2.0054
 3245TIP3    H231227   4.581   2.011   2.295  1.9415  0.2462  0.0673
 3246TIP3   OH231228   6.287   6.210  17.081 -0.1028 -0.1730 -0.5049
 3246TIP3    H131229   6.205   6.159  17.089  0.4754 -0.9397  0.7914
 3246TIP3    H231230   6.356   6.143  17.079  0.7307  0.5336  1.9014
 3247TIP3   OH231231   2.501   4.154   4.731  0.3203  0.3062 -0.1261
 3247TIP3    H131232   2.420   4.203   4.717  0.2731 -0.1197 -1.3808
 3247TIP3    H231233   2.525   4.121   4.645  0.9572 -0.9576  0.5097
 3248TIP3   OH231234   5.603   4.493   0.297  0.4404  0.2175 -0.2442
 3248TIP3    H131235   5.534   4.557   0.279 -0.3016  0.1890  2.1220
 3248TIP3    H231236   5.558   4.408   0.293  0.8480  0.0293 -0.8701
 3249TIP3   OH231237   0.173   4.015  13.047  0.2457  0.3682  0.3183
 3249TIP3    H131238   0.125   4.034  12.966  0.2851  2.2676  0.6775
 3249TIP3    H231239   0.158   4.092  13.102  2.1989  0.2130  1.1526
 3250TIP3   OH231240   1.869   3.927  13.838  0.0381  0.0979  0.0555
 3250TIP3    H131241   1.881   3.915  13.744  0.1674  0.1561  0.0641
 3250TIP3    H231242   1.957   3.947  13.871  0.4985 -2.3661  0.5649
 3251TIP3   OH231243   5.179   3.571  14.816 -0.1562 -0.1363  0.2486
 3251TIP3    H131244   5.119   3.643  14.795 -0.4982 -0.8044 -1.1409
 3251TIP3    H231245   5.121   3.496  14.828  0.3419 -0.6071 -0.2675
 3252TIP3   OH231246   0.638   1.689   2.386  0.8221  0.0892 -0.1338
 3252TIP3    H131247   0.655   1.733   2.302 -2.7783  0.9355 -0.6043
 3252TIP3    H231248   0.654   1.756   2.452 -0.4169  0.7862 -0.5177
 3253TIP3   OH231249   2.836   1.429   4.931  0.2374  0.1659  0.1431
 3253TIP3    H131250   2.865   1.417   5.022  0.9487 -0.7610 -0.2022
 3253TIP3    H231251   2.915   1.419   4.879 -0.1720  0.6987 -0.5948
 3254TIP3   OH231252   0.193   3.002   2.733  0.1396 -1.1130  0.2618
 3254TIP3    H131253   0.153   2.966   2.655  0.1311 -0.8822  0.1581
 3254TIP3    H231254   0.120   3.036   2.785  0.1907 -0.7456  0.0998
 3255TIP3   OH231255   2.962   4.361  13.110  0.3641 -0.3981 -0.7392
 3255TIP3    H131256   2.928   4.312  13.035  0.1524 -1.2004 -0.1350
 3255TIP3    H231257   2.950   4.302  13.185  0.4677  0.4251 -0.0532
 3256TIP3   OH231258   5.858   0.758   0.265  0.1365  0.3990  0.4814
 3256TIP3    H131259   5.804   0.794   0.194  0.2965  2.3680  1.2711
 3256TIP3    H231260   5.945   0.751   0.227 -0.2758 -1.0846 -0.2633
 3257TIP3   OH231261   3.722   1.693   6.190  0.5622 -0.4045  0.3716
 3257TIP3    H131262   3.681   1.705   6.105  1.4409  0.1296  0.0088
 3257TIP3    H231263   3.671   1.748   6.250  0.0024 -0.7100  0.1695
 3258TIP3   OH231264   1.144   4.595   4.944 -0.1113  0.0710  0.0276
 3258TIP3    H131265   1.204   4.669   4.954 -2.9349  2.4463  0.8063
 3258TIP3    H231266   1.083   4.623   4.876  0.2994 -2.8197 -1.7109
 3259TIP3   OH231267   3.726   5.687  10.706  0.6057  0.3131  0.4132
 3259TIP3    H131268   3.741   5.662  10.615  2.4811 -2.4947  1.3567
 3259TIP3    H231269   3.802   5.739  10.730  1.0724 -0.5240  0.8243
 3260TIP3   OH231270   5.202   6.000  17.301 -0.2851  0.1321 -0.0394
 3260TIP3    H131271   5.192   6.095  17.311 -0.8531 -0.0853  2.0088
 3260TIP3    H231272   5.118   5.964  17.330 -1.1468 -0.9497 -3.4532
 3261TIP3   OH231273   5.169   0.865   2.984 -0.0088  0.0562  0.2246
 3261TIP3    H131274   5.249   0.870   2.932  1.1025  2.7470  2.0396
 3261TIP3    H231275   5.188   0.800   3.051  1.7877  2.4984  2.2496
 3262TIP3   OH231276   5.692   1.172   3.146 -0.1200 -0.0819  0.6507
 3262TIP3    H131277   5.683   1.234   3.218 -0.7329  0.0319  0.4799
 3262TIP3    H231278   5.786   1.165   3.132  0.1727 -1.5787  2.7314
 3263TIP3   OH231279   4.667   6.558   6.194 -0.2756 -0.0641  0.1265
 3263TIP3    H131280   4.754   6.570   6.156  0.4958 -1.0245  1.5091
 3263TIP3    H231281   4.637   6.474   6.160 -1.1321  0.7350 -1.1622
 3264TIP3   OH231282   1.118   2.597  10.681 -0.4469 -0.0726  0.6562
 3264TIP3    H131283   1.076   2.672  10.724  1.3082  0.6165  1.2640
 3264TIP3    H231284   1.169   2.636  10.610  1.2822 -0.5272  1.5965
 3265TIP3   OH231285   2.273   6.501  14.222  0.0670 -1.0204  0.2999
 3265TIP3    H131286   2.361   6.483  14.257  0.0334 -0.5691  0.6129
 3265TIP3    H231287   2.287   6.515  14.128  0.1803 -2.0509  0.1409
 3266TIP3   OH231288   4.627   0.376  14.840  0.1744 -0.0535  0.0269
 3266TIP3    H131289   4.544   0.344  14.804  0.2344 -1.2912  0.9315
 3266TIP3    H231290   4.688   0.372  14.765  0.2786 -2.5322  0.1566
 3267TIP3   OH231291   2.872   0.259  13.818  0.1844  0.2355 -0.9904
 3267TIP3    H131292   2.779   0.236  13.819  0.3545 -0.4717 -0.6472
 3267TIP3    H231293   2.879   0.329  13.883  0.1952 -1.0586  0.4789
 3268TIP3   OH231294   3.800   0.952   3.467 -0.2756  0.1619  0.7357
 3268TIP3    H131295   3.819   1.015   3.398  1.4583  0.5780  1.5418
 3268TIP3    H231296   3.884   0.936   3.509 -0.9922 -1.3555  1.6949
 3269TIP3   OH231297   0.282   1.081  11.089 -0.1300 -0.0618  0.6021
 3269TIP3    H131298   0.363   1.077  11.141 -0.9529 -1.5037  1.8541
 3269TIP3    H231299   0.255   0.990  11.082 -0.4551  0.1720 -1.7855
 3270TIP3   OH231300   3.126   4.811   0.047 -0.4934 -0.4688  0.8872
 3270TIP3    H131301   3.205   4.818   0.101 -0.8486 -0.8638  1.4623
 3270TIP3    H231302   3.103   4.718   0.051 -2.2663 -0.0077  2.5535
 3271TIP3   OH231303   1.619   0.023   1.270 -0.9502 -0.1892 -0.1465
 3271TIP3    H131304   1.655  -0.041   1.209 -1.5258 -0.5084 -0.1547
 3271TIP3    H231305   1.671   0.103   1.254  1.6027 -1.3298  1.7055
 3272TIP3   OH231306   5.386   2.701  15.543  0.4611 -0.2226  0.2069
 3272TIP3    H131307   5.447   2.656  15.484  0.1537 -0.8228  0.3336
 3272TIP3    H231308   5.360   2.780  15.495 -0.1615 -0.9424 -0.6843
 3273TIP3   OH231309   4.297   0.082   1.295 -0.0986 -0.0948  0.2643
 3273TIP3    H131310   4.209   0.048   1.277 -0.1137  0.8888 -1.8534
 3273TIP3    H231311   4.322   0.041   1.377 -2.2148 -1.0331  0.5118
 3274TIP3   OH231312   2.251   1.508  12.985 -0.9977 -0.7182  0.0751
 3274TIP3    H131313   2.197   1.514  12.907  0.2444 -0.8139 -0.8143
 3274TIP3    H231314   2.316   1.578  12.975 -0.6469 -0.9124  0.8907
 3275TIP3   OH231315   3.251   4.285   0.587  0.5164  0.3350 -0.8216
 3275TIP3    H131316   3.197   4.236   0.650  0.1972  0.1849 -1.2041
 3275TIP3    H231317   3.332   4.234   0.581  0.5124  0.2989 -0.6069
 3276TIP3   OH231318   6.291   3.193  15.883  0.9611  0.6282  0.1054
 3276TIP3    H131319   6.216   3.243  15.852  0.6955  0.2757  0.1714
 3276TIP3    H231320   6.277   3.105  15.847 -0.1365 -0.2256  2.4200
 3277TIP3   OH231321   0.057   5.684   6.565 -0.3871  0.5157  0.3815
 3277TIP3    H131322   0.040   5.764   6.517 -1.8836  0.7000  1.1691
 3277TIP3    H231323  -0.005   5.685   6.637  0.5057 -0.6836  1.2154
 3278TIP3   OH231324   2.038   5.315   4.353  0.0030  0.0578 -0.5073
 3278TIP3    H131325   1.961   5.365   4.382 -0.8903 -1.3557 -0.3466
 3278TIP3    H231326   2.082   5.374   4.292 -0.4022  1.4538  0.4824
 3279TIP3   OH231327   3.208   5.257   0.019  0.1322  0.2115 -0.6165
 3279TIP3    H131328   3.205   5.319  -0.054 -0.3888  0.9100 -0.0170
 3279TIP3    H231329   3.301   5.237   0.029  0.2210  0.1964 -1.3942
 3280TIP3   OH231330   6.714   5.579  16.780  0.0858 -0.2786  0.1549
 3280TIP3    H131331   6.647   5.547  16.719  0.8220  0.6288 -1.1742
 3280TIP3    H231332   6.796   5.569  16.732  0.9512 -1.4284  1.7782
 3281TIP3   OH231333   4.435   3.829   0.320 -0.1311  0.4156  0.4904
 3281TIP3    H131334   4.387   3.870   0.249 -1.6139 -0.4958  0.9157
 3281TIP3    H231335   4.522   3.869   0.318  0.3549 -0.5580 -2.6834
 3282TIP3   OH231336   1.241   0.760  12.040 -0.1363  0.4429 -0.2406
 3282TIP3    H131337   1.310   0.795  11.983  0.1788  0.2131  0.0002
 3282TIP3    H231338   1.171   0.825  12.034 -0.1718  0.3511 -1.0123
 3283TIP3   OH231339   1.674   2.051  15.218 -0.0777  0.0720 -0.1349
 3283TIP3    H131340   1.579   2.064  15.221 -0.1823 -0.2165 -1.4405
 3283TIP3    H231341   1.710   2.137  15.236 -0.4766 -0.3107  3.1457
 3284TIP3   OH231342   1.250   6.582   0.293 -0.3351 -0.7403  0.2620
 3284TIP3    H131343   1.202   6.664   0.284  0.2762 -0.4644 -0.6571
 3284TIP3    H231344   1.245   6.560   0.386 -0.2248  0.5162  0.5773
 3285TIP3   OH231345   0.984   6.417  15.100  0.2366 -0.2979  0.0768
 3285TIP3    H131346   0.963   6.500  15.057 -0.1261 -0.1009  0.6196
 3285TIP3    H231347   1.001   6.442  15.191  0.0804 -0.8261  0.2509
 3286TIP3   OH231348   3.120   1.988  14.658 -0.1422  0.5964 -0.1637
 3286TIP3    H131349   3.123   2.081  14.680  1.8920  0.4484  0.3951
 3286TIP3    H231350   3.123   1.943  14.742  0.8542  0.0403 -0.4808
 3287TIP3   OH231351   4.711   0.756   2.646  0.2032  0.2614  0.6787
 3287TIP3    H131352   4.727   0.803   2.729 -2.3862 -0.9536  1.9838
 3287TIP3    H231353   4.643   0.692   2.668 -1.4933  0.7110 -2.6879
 3288TIP3   OH231354   1.525   5.184  12.616 -0.1800  0.3239  0.3392
 3288TIP3    H131355   1.481   5.219  12.694  0.7393  0.5639  0.7618
 3288TIP3    H231356   1.574   5.259  12.581 -1.6155  0.5759 -1.2364
 3289TIP3   OH231357   3.465   0.412   0.055  0.1491  0.1250 -0.2968
 3289TIP3    H131358   3.481   0.496   0.099 -0.6257  1.4484 -2.3375
 3289TIP3    H231359   3.477   0.346   0.122  1.9384  1.7971  1.1348
 3290TIP3   OH231360   3.109   1.144   0.769 -0.1615  0.4013  0.0346
 3290TIP3    H131361   3.049   1.174   0.701  1.2807  0.9116 -1.0748
 3290TIP3    H231362   3.077   1.057   0.793 -0.6490  0.1524 -1.4073
 3291TIP3   OH231363   0.720   4.614   5.041 -0.1353  0.6661  0.1979
 3291TIP3    H131364   0.706   4.641   4.950 -1.0840  0.6688  0.3301
 3291TIP3    H231365   0.708   4.519   5.040 -0.1931  0.6714  0.3226
 3292TIP3   OH231366   2.241   6.661   2.763  0.3489 -0.3586 -0.1833
 3292TIP3    H131367   2.168   6.646   2.823 -1.1179  1.2950 -1.4655
 3292TIP3    H231368   2.252   6.577   2.718  0.7326 -1.2783  1.5500
 3293TIP3   OH231369   3.655   6.114   0.054  0.5550 -0.2884  0.1791
 3293TIP3    H131370   3.657   6.180   0.123 -0.9450  0.5137 -0.5050
 3293TIP3    H231371   3.585   6.142  -0.004  2.6064 -0.1803 -2.4407
 3294TIP3   OH231372   6.467   0.489  13.707 -0.2770 -0.1453  0.6219
 3294TIP3    H131373   6.539   0.517  13.763 -1.1264 -0.4853  1.9365
 3294TIP3    H231374   6.499   0.501  13.617  1.4934 -0.5349  1.1679
 3295TIP3   OH231375   4.368   4.152   4.829 -0.2848  0.5435  0.1151
 3295TIP3    H131376   4.439   4.207   4.799  0.0364 -0.0298 -0.1963
 3295TIP3    H231377   4.395   4.063   4.805 -1.1384  0.3294 -0.0788
 3296TIP3   OH231378   2.341   5.188   3.860 -0.1186 -0.1003 -0.1374
 3296TIP3    H131379   2.326   5.095   3.846 -2.7262  0.3482 -0.8834
 3296TIP3    H231380   2.367   5.221   3.774 -1.5066  0.2186 -0.4503
 3297TIP3   OH231381   6.318   6.169  14.903 -0.0349 -0.6271 -0.9630
 3297TIP3    H131382   6.326   6.189  14.809  1.7617  1.4322 -0.4773
 3297TIP3    H231383   6.395   6.116  14.922  1.4500  1.6681 -0.1313
 3298TIP3   OH231384   4.503   6.053  14.123  0.7859  0.4338 -0.2943
 3298TIP3    H131385   4.539   6.090  14.042  1.0936 -1.0310 -0.8537
 3298TIP3    H231386   4.579   6.020  14.170  0.5156  0.5279  0.2143
 3299TIP3   OH231387   3.075   0.000   4.118 -0.2697  0.1963  0.0686
 3299TIP3    H131388   3.094   0.053   4.040 -0.7751  0.7098  0.2834
 3299TIP3    H231389   2.995   0.039   4.154 -1.0381 -1.1316 -0.1343
 3300TIP3   OH231390   2.898   5.794  17.185  0.0488 -0.0416 -0.0961
 3300TIP3    H131391   2.839   5.767  17.114  0.8117 -1.7259 -0.1549
 3300TIP3    H231392   2.840   5.809  17.260 -0.5877 -0.2957 -0.5258
 3301TIP3   OH231393   3.429   4.413  15.985 -0.6748  0.1492 -0.2406
 3301TIP3    H131394   3.342   4.420  15.945 -0.9086  1.2526  0.4123
 3301TIP3    H231395   3.488   4.396  15.912 -1.5093 -1.3538 -0.6101
 3302TIP3   OH231396   0.507   0.713   0.748 -0.3506  0.4475  1.0452
 3302TIP3    H131397   0.528   0.731   0.657 -0.4457 -1.9735  0.5045
 3302TIP3    H231398   0.468   0.795   0.780 -0.5268  1.2611 -1.1163
 3303TIP3   OH231399   1.583   4.343  11.646  0.1866  0.1071 -0.1468
 3303TIP3    H131400   1.568   4.394  11.567 -1.5915 -0.5627 -0.2837
 3303TIP3    H231401   1.504   4.289  11.656  0.8851 -0.7081  1.4149
 3304TIP3   OH231402   2.552   4.322   4.066 -0.0363 -0.8389 -0.5642
 3304TIP3    H131403   2.539   4.231   4.041  0.3255 -0.2051 -3.4260
 3304TIP3    H231404   2.472   4.367   4.039 -0.1534 -0.2549  0.6812
 3305TIP3   OH231405   1.625   5.872  14.770  0.1809 -0.1355 -0.0669
 3305TIP3    H131406   1.611   5.784  14.806 -0.8387  0.6452  1.6059
 3305TIP3    H231407   1.655   5.923  14.845  2.1844  0.6519 -1.3317
 3306TIP3   OH231408   5.174   6.032   1.198 -0.5929  0.1069 -0.5598
 3306TIP3    H131409   5.144   6.123   1.209 -2.3753 -0.6098  1.0152
 3306TIP3    H231410   5.121   5.982   1.260  0.1041 -2.0840 -1.6540
 3307TIP3   OH231411   6.238   1.028   1.926 -0.1531  0.3984  0.5837
 3307TIP3    H131412   6.270   1.065   1.844 -2.4371  2.1532  0.3842
 3307TIP3    H231413   6.258   1.094   1.992  0.9188 -0.6360  1.3481
 3308TIP3   OH231414   4.947   2.449   5.317  0.1997  0.1308 -0.2385
 3308TIP3    H131415   4.916   2.532   5.282  0.0988  0.8973  1.5868
 3308TIP3    H231416   5.027   2.471   5.365 -0.4088 -0.6142  1.1832
 3309TIP3   OH231417   4.432   4.100  12.972 -0.3254 -0.1841  0.1078
 3309TIP3    H131418   4.503   4.125  13.032  0.1615 -1.6863  0.1835
 3309TIP3    H231419   4.371   4.051  13.027 -1.0779  0.4787 -0.1188
 3310TIP3   OH231420   3.731   0.236  11.741  0.3596  0.4896  0.3368
 3310TIP3    H131421   3.670   0.259  11.811  0.3042 -0.6200  0.6870
 3310TIP3    H231422   3.751   0.143  11.757 -1.3810 -0.4693 -2.3535
 3311TIP3   OH231423   5.069   0.733  12.912 -0.1345 -0.0029  0.5394
 3311TIP3    H131424   5.162   0.756  12.915 -0.4198  1.1919  1.0372
 3311TIP3    H231425   5.027   0.797  12.970 -1.2658 -0.5247  0.3208
 3312TIP3   OH231426   0.001   0.641   5.799 -0.0649 -0.2938  0.2610
 3312TIP3    H131427  -0.002   0.727   5.758 -0.6216  0.5589  2.0131
 3312TIP3    H231428  -0.041   0.583   5.734 -1.6992  1.1475 -0.0491
 3313TIP3   OH231429   4.662   4.073  11.498  0.4415  0.5689  0.2467
 3313TIP3    H131430   4.654   3.979  11.513  1.1090  0.7773  2.2064
 3313TIP3    H231431   4.744   4.082  11.449 -0.2603  0.0533 -1.0471
 3314TIP3   OH231432   3.226   3.456  16.724 -0.0789  0.3886  0.2330
 3314TIP3    H131433   3.137   3.475  16.695 -0.4033  0.6010  1.3083
 3314TIP3    H231434   3.282   3.509  16.668 -0.5726 -0.3062 -0.9440
 3315TIP3   OH231435   5.847   6.446   5.670  0.0942  0.7789  0.4413
 3315TIP3    H131436   5.930   6.410   5.702 -0.2405  0.3419  0.8258
 3315TIP3    H231437   5.865   6.539   5.656  1.2879  0.3196 -1.5680
 3316TIP3   OH231438   4.874   3.551   5.099  0.0170  0.3600  0.2208
 3316TIP3    H131439   4.952   3.503   5.070 -0.1725 -0.8625  1.6479
 3316TIP3    H231440   4.856   3.518   5.187 -1.9307  0.8439  0.0516
 3317TIP3   OH231441   6.443   5.093  15.319  0.9154 -0.5280  0.6446
 3317TIP3    H131442   6.472   5.164  15.376 -0.0298 -0.2171  0.7571
 3317TIP3    H231443   6.374   5.049  15.369  1.2130 -1.2859  0.4124
 3318TIP3   OH231444   6.813   1.584  14.294 -0.0355 -0.1574 -0.0947
 3318TIP3    H131445   6.908   1.585  14.303 -0.1134  0.5933  0.9667
 3318TIP3    H231446   6.797   1.564  14.202  1.1672  0.7187 -0.5189
 3319TIP3   OH231447   2.355   5.380   2.900 -0.0454  0.2174 -0.0456
 3319TIP3    H131448   2.325   5.412   2.985 -0.7618 -0.5212 -0.0039
 3319TIP3    H231449   2.407   5.303   2.920  0.7666  0.7070 -0.2140
 3320TIP3   OH231450   0.159   2.304   2.852 -0.2854 -0.1940  0.0065
 3320TIP3    H131451   0.141   2.269   2.765 -1.1095 -0.5571  0.3126
 3320TIP3    H231452   0.073   2.307   2.895  0.4487 -2.8909  1.8912
 3321TIP3   OH231453   6.312   4.068  12.385 -0.3978  0.2599 -0.3048
 3321TIP3    H131454   6.235   4.062  12.328 -2.1262  4.6698  1.1600
 3321TIP3    H231455   6.278   4.053  12.473  0.7112  0.7300  0.2296
 3322TIP3   OH231456   2.274   0.624   2.977 -0.2821  0.2605 -0.7356
 3322TIP3    H131457   2.213   0.664   2.915 -0.2110  0.8694 -0.4287
 3322TIP3    H231458   2.348   0.686   2.980  0.3031 -0.4155 -1.0272
 3323TIP3   OH231459   1.627   1.764  14.904 -0.6380  0.3565 -0.6970
 3323TIP3    H131460   1.632   1.854  14.937  0.7813 -0.3265  1.1679
 3323TIP3    H231461   1.706   1.753  14.852 -0.1757 -0.1294  0.0740
 3324TIP3   OH231462   0.064   0.714   4.021 -0.4143 -0.1415  0.7591
 3324TIP3    H131463   0.135   0.656   4.048 -0.8582 -0.3192  1.5413
 3324TIP3    H231464   0.089   0.800   4.056  0.5441  0.3164 -0.8977
 3325TIP3   OH231465   0.521   0.727   3.075 -0.1090 -0.3483 -0.7616
 3325TIP3    H131466   0.604   0.691   3.043  0.0910 -0.8820  0.3274
 3325TIP3    H231467   0.466   0.650   3.090  0.0232 -0.1620  0.7676
 3326TIP3   OH231468   0.476   2.385  11.830  0.1182  0.4598  0.2236
 3326TIP3    H131469   0.456   2.427  11.746 -2.6782  0.3673  0.7309
 3326TIP3    H231470   0.475   2.458  11.893  2.4129  0.5610  0.2147
 3327TIP3   OH231471   0.288   1.396   5.013  0.0710 -0.2866  0.4389
 3327TIP3    H131472   0.216   1.339   4.984 -0.2640  0.1343  0.4224
 3327TIP3    H231473   0.339   1.342   5.073  0.2804 -0.8917 -0.2713
 3328TIP3   OH231474   6.751   3.202   5.881 -0.0854  0.0284  0.0583
 3328TIP3    H131475   6.817   3.240   5.939 -1.7170  1.4193  1.0991
 3328TIP3    H231476   6.696   3.149   5.938 -0.2266 -0.6413 -0.6816
 3329TIP3   OH231477   0.309   4.177   2.892  0.4723 -0.2983 -0.5489
 3329TIP3    H131478   0.382   4.172   2.831 -0.7019  2.3494 -2.4081
 3329TIP3    H231479   0.339   4.235   2.962  0.4411  0.2140 -0.9481
 3330TIP3   OH231480   1.771   2.379  12.603 -0.2468  0.6039 -0.3516
 3330TIP3    H131481   1.790   2.411  12.515 -2.0539  2.0591 -0.2632
 3330TIP3    H231482   1.683   2.341  12.596 -0.2711  0.4274  0.7565
 3331TIP3   OH231483   6.586   4.252   1.595 -0.0976  0.1314 -0.2651
 3331TIP3    H131484   6.527   4.326   1.611 -1.8595 -1.3943  0.7412
 3331TIP3    H231485   6.527   4.177   1.585  1.6639 -1.3319 -0.1484
 3332TIP3   OH231486   1.931   0.265  16.227 -0.3535 -0.2289 -0.5262
 3332TIP3    H131487   1.887   0.180  16.223  0.7480 -0.8851  0.5770
 3332TIP3    H231488   1.872   0.320  16.278 -0.2096 -0.9088  0.3977
 3333TIP3   OH231489   4.477   3.128   0.659  0.3483  0.2163 -0.4857
 3333TIP3    H131490   4.505   3.180   0.583 -3.2322  0.2003 -1.9874
 3333TIP3    H231491   4.453   3.043   0.623 -1.8772  0.3579  0.4929
 3334TIP3   OH231492   4.145   6.685  16.115 -0.0061 -0.3830  0.2512
 3334TIP3    H131493   4.091   6.744  16.168 -0.1498  1.3935 -1.7276
 3334TIP3    H231494   4.094   6.672  16.035  1.0638 -1.3663 -0.2955
 3335TIP3   OH231495   4.696   4.935   2.399  0.2388 -0.5541  0.1545
 3335TIP3    H131496   4.787   4.941   2.425 -0.0440  1.6138  0.8359
 3335TIP3    H231497   4.664   5.025   2.402 -2.3356 -1.4160  1.4229
 3336TIP3   OH231498   5.189   1.142   2.159 -0.3934 -0.3798 -0.1458
 3336TIP3    H131499   5.260   1.107   2.105  0.1862 -0.9808  0.9656
 3336TIP3    H231500   5.127   1.069   2.167 -0.6935 -0.1493 -0.3694
 3337TIP3   OH231501   1.195   5.952   0.161 -0.0218  0.3649  0.7078
 3337TIP3    H131502   1.117   5.910   0.127 -0.0087  1.8442 -1.3323
 3337TIP3    H231503   1.261   5.883   0.163 -0.4192 -0.1083 -1.0661
 3338TIP3   OH231504   1.108   2.130  13.671  0.1183  0.1790  0.0726
 3338TIP3    H131505   1.198   2.158  13.683 -0.0907  0.5785  0.7415
 3338TIP3    H231506   1.114   2.038  13.645  0.6258 -0.7125  3.0104
 3339TIP3   OH231507   2.890   2.587  12.335 -0.3670  0.0728  0.0575
 3339TIP3    H131508   2.877   2.519  12.268 -0.2568  1.7025 -1.7060
 3339TIP3    H231509   2.802   2.620  12.353 -0.2100  1.0680 -0.8977
 3340TIP3   OH231510   1.996   2.375   3.322  0.1851 -0.3735  0.0224
 3340TIP3    H131511   2.005   2.280   3.330  0.4278 -0.2984  0.8086
 3340TIP3    H231512   2.037   2.409   3.402  0.2067  0.3969 -0.3081
 3341TIP3   OH231513   5.830   0.632   4.865  0.2658 -0.5075  0.3410
 3341TIP3    H131514   5.780   0.654   4.944 -0.0432 -0.1044  0.0382
 3341TIP3    H231515   5.763   0.602   4.803  0.2491  1.0379 -0.4287
 3342TIP3   OH231516   3.807   0.836  13.966  0.4392  0.5310  0.2353
 3342TIP3    H131517   3.811   0.924  14.004  2.3014  0.4846  0.2366
 3342TIP3    H231518   3.837   0.778  14.037 -0.6199 -0.1202  0.1841
 3343TIP3   OH231519   6.298   6.472   4.830  0.4402 -0.3020 -0.2250
 3343TIP3    H131520   6.266   6.443   4.915  0.5981  0.0756 -0.0323
 3343TIP3    H231521   6.296   6.568   4.835  0.6630 -0.2765 -0.5658
 3344TIP3   OH231522   2.459   0.480   3.887 -0.1951 -0.2193 -0.0803
 3344TIP3    H131523   2.376   0.467   3.840 -0.7143  2.4394 -0.0700
 3344TIP3    H231524   2.433   0.521   3.970  1.0749  0.0230  0.2124
 3345TIP3   OH231525   0.483   0.394  15.062 -0.1723 -0.4818  0.0226
 3345TIP3    H131526   0.414   0.368  15.000 -0.2652 -0.4321  0.1056
 3345TIP3    H231527   0.442   0.388  15.148 -0.3897  0.5468  0.0018
 3346TIP3   OH231528   5.121   1.969  13.622  0.5497  0.1145  0.6484
 3346TIP3    H131529   5.050   1.956  13.559  0.6262 -0.3578  0.6553
 3346TIP3    H231530   5.159   1.882  13.633  0.0532  0.0313  1.9250
 3347TIP3   OH231531   3.633   1.761   4.387 -0.2449  0.5001 -0.6988
 3347TIP3    H131532   3.603   1.846   4.421  0.1210  0.0212  0.9003
 3347TIP3    H231533   3.713   1.782   4.339 -0.0348  1.0486 -0.1287
 3348TIP3   OH231534   3.204   3.691  11.219 -0.3235 -0.0911 -0.3867
 3348TIP3    H131535   3.178   3.686  11.311  2.2433  0.5572  0.4683
 3348TIP3    H231536   3.253   3.610  11.204  0.1058  0.2564 -0.8954
 3349TIP3   OH231537   2.860   1.490  13.306 -0.2427  0.5285 -0.2905
 3349TIP3    H131538   2.947   1.451  13.300 -0.6114 -0.2453 -0.7245
 3349TIP3    H231539   2.846   1.532  13.221 -0.2902  0.6717 -0.2138
 3350TIP3   OH231540   0.969   0.757   3.237 -0.1609  0.2237 -0.1969
 3350TIP3    H131541   1.063   0.750   3.254  0.2562 -2.8867 -2.7972
 3350TIP3    H231542   0.934   0.670   3.257 -1.7806  0.2281 -2.5192
 3351TIP3   OH231543   6.791   6.079  16.731  0.0476 -0.5852  0.2750
 3351TIP3    H131544   6.857   6.066  16.799  1.6140  1.6468 -0.7183
 3351TIP3    H231545   6.737   6.151  16.764  0.3689  0.0182 -0.4915
 3352TIP3   OH231546   3.627   6.393   5.739  0.0422  0.0064 -0.4757
 3352TIP3    H131547   3.612   6.487   5.725  0.7582 -0.0273 -1.6366
 3352TIP3    H231548   3.543   6.359   5.768 -0.5958  0.7799 -1.3520
 3353TIP3   OH231549   0.609   4.989   4.870  0.0015  0.7851 -0.0146
 3353TIP3    H131550   0.686   4.959   4.917 -0.5264  1.0589  1.0692
 3353TIP3    H231551   0.538   4.934   4.902 -0.5285  1.5616  0.1919
 3354TIP3   OH231552   2.689   1.142  12.625  0.3835 -0.4564 -0.5147
 3354TIP3    H131553   2.769   1.178  12.661  0.1148  0.2209 -0.5818
 3354TIP3    H231554   2.713   1.109  12.538  0.4884  0.1567 -0.7180
 3355TIP3   OH231555   3.715   3.475  11.440  0.4067  0.2467 -0.8885
 3355TIP3    H131556   3.726   3.568  11.420  0.4101  0.2767 -0.7477
 3355TIP3    H231557   3.737   3.430  11.358 -1.8998  0.4848 -1.7300
 3356TIP3   OH231558   3.922   4.161  11.831  0.6587  0.1707  0.2946
 3356TIP3    H131559   3.955   4.242  11.793  0.2500  0.7397  1.1118
 3356TIP3    H231560   3.932   4.096  11.762 -0.4084  1.2363 -0.9122
 3357TIP3   OH231561   1.825   2.565   3.232 -0.0541  0.0356 -0.9023
 3357TIP3    H131562   1.868   2.482   3.251 -1.3426 -0.6535 -0.9222
 3357TIP3    H231563   1.892   2.616   3.185  1.2128 -0.4397  0.2995
 3358TIP3   OH231564   0.513   5.148   0.100 -0.4461 -0.0986 -0.2686
 3358TIP3    H131565   0.451   5.185   0.037  0.2230 -1.4047 -1.7599
 3358TIP3    H231566   0.592   5.201   0.089 -0.9940  1.0581  1.0682
 3359TIP3   OH231567   6.364   1.736   6.458 -0.2171 -0.1605  0.2200
 3359TIP3    H131568   6.362   1.826   6.425  1.0524 -0.4359 -0.6733
 3359TIP3    H231569   6.425   1.738   6.532  0.1896 -0.3732 -0.1053
 3360TIP3   OH231570   4.772   5.368  13.846  0.5768  0.4212 -0.7474
 3360TIP3    H131571   4.688   5.386  13.805 -1.0093 -1.8685  1.2503
 3360TIP3    H231572   4.764   5.401  13.935  1.6721 -0.1509 -0.4106
 3361TIP3   OH231573   2.803   0.565  13.572 -0.0425  0.7692  0.0756
 3361TIP3    H131574   2.741   0.604  13.634 -2.0908 -1.0785 -0.6681
 3361TIP3    H231575   2.755   0.561  13.490  0.8434 -1.2556 -0.4010
 3362TIP3   OH231576   4.050   3.440   2.996 -0.3584  0.2338 -0.5615
 3362TIP3    H131577   4.013   3.418   3.082  0.7374  0.2696 -0.0588
 3362TIP3    H231578   4.096   3.523   3.011  1.7946 -0.9105 -0.5981
 3363TIP3   OH231579   4.725   0.454   0.560  0.4327  0.4360 -0.3689
 3363TIP3    H131580   4.804   0.441   0.612 -0.0327  0.6233  0.4171
 3363TIP3    H231581   4.756   0.483   0.475  1.2682 -0.8999 -0.5532
 3364TIP3   OH231582   1.903   1.535  12.100  0.0749  0.4110  0.4936
 3364TIP3    H131583   1.989   1.513  12.065  0.2330 -0.5084  1.4233
 3364TIP3    H231584   1.847   1.461  12.073 -0.0800  0.2917  1.1225
 3365TIP3   OH231585   4.467   1.385  15.400  0.0417 -0.2263  0.2810
 3365TIP3    H131586   4.476   1.342  15.485  0.7465  2.9034  1.9282
 3365TIP3    H231587   4.546   1.361  15.352  0.9135  0.0641  1.5432
 3366TIP3   OH231588   6.529   3.271   0.223 -0.2284 -0.3412 -0.4433
 3366TIP3    H131589   6.591   3.210   0.263 -1.3477 -0.0283  1.9676
 3366TIP3    H231590   6.578   3.313   0.153  2.7816  0.8321  2.1389
 3367TIP3   OH231591   3.285   5.653   0.077 -0.6962 -0.1170 -0.2371
 3367TIP3    H131592   3.308   5.572   0.032  0.3574  0.5124 -0.8538
 3367TIP3    H231593   3.281   5.719   0.008 -0.5243  0.5668  0.3951
 3368TIP3   OH231594   3.619   6.801  13.856 -0.4787 -0.3580 -0.2149
 3368TIP3    H131595   3.660   6.801  13.942  0.7975 -1.5565 -0.7813
 3368TIP3    H231596   3.546   6.861  13.864  1.4977  2.0804  0.8015
 3369TIP3   OH231597   6.110   1.191  12.743  0.2707 -0.0742 -0.1593
 3369TIP3    H131598   6.170   1.139  12.690  0.5911 -0.0495  0.1839
 3369TIP3    H231599   6.088   1.265  12.686  1.9474  0.8647  0.3391
 3370TIP3   OH231600   1.705   4.737   5.013  0.3782  0.5304 -0.5718
 3370TIP3    H131601   1.733   4.819   4.972  0.5519  0.1231 -1.2918
 3370TIP3    H231602   1.730   4.669   4.950 -0.2586 -0.0311 -0.2381
 3371TIP3   OH231603   3.825   5.970  12.800  0.5761  0.0917 -0.1335
 3371TIP3    H131604   3.791   5.977  12.711  1.3282  0.3264 -0.4068
 3371TIP3    H231605   3.857   5.880  12.807 -0.0517 -0.1204  0.1149
 3372TIP3   OH231606   6.515   2.619   4.537 -0.1363 -0.0362  0.5977
 3372TIP3    H131607   6.556   2.687   4.483  2.2913 -0.0422  2.2957
 3372TIP3    H231608   6.587   2.564   4.566 -1.5533 -1.0430  2.4443
 3373TIP3   OH231609   5.454   4.538  15.109  0.1433  0.4582  0.2341
 3373TIP3    H131610   5.486   4.619  15.150 -0.0155  0.5113  0.2532
 3373TIP3    H231611   5.368   4.524  15.149  0.6581 -0.3502  1.0935
 3374TIP3   OH231612   3.911   6.302  14.475  0.7107 -0.1046  0.2643
 3374TIP3    H131613   4.004   6.285  14.459  0.8015  0.1640  0.4827
 3374TIP3    H231614   3.901   6.290  14.569  0.4624 -0.4176  0.1944
 3375TIP3   OH231615   4.569   4.915  12.895 -0.2170 -0.3989 -0.4750
 3375TIP3    H131616   4.642   4.935  12.836  0.4725 -1.2013  0.0857
 3375TIP3    H231617   4.518   4.849  12.847  0.7105 -1.5488  0.0729
 3376TIP3   OH231618   2.173   5.397   2.696 -0.0136 -0.2696  0.2852
 3376TIP3    H131619   2.246   5.407   2.757  1.1069 -1.9089 -0.6604
 3376TIP3    H231620   2.200   5.323   2.640 -2.4398 -0.9614 -0.0739
 3377TIP3   OH231621   5.561   5.562   0.410  0.7454 -0.2492  0.4086
 3377TIP3    H131622   5.508   5.538   0.334 -0.4401 -1.3675  1.5468
 3377TIP3    H231623   5.651   5.561   0.378  0.3370 -1.4928 -0.7948
 3378TIP3   OH231624   3.506   1.483  17.301 -0.2190 -0.5304 -0.3431
 3378TIP3    H131625   3.467   1.404  17.338  1.5860 -0.1759  2.6228
 3378TIP3    H231626   3.591   1.453  17.267  0.7133  0.1452  1.2887
 3379TIP3   OH231627   4.688   5.446  14.089 -0.3215  0.5176 -0.3326
 3379TIP3    H131628   4.730   5.396  14.159 -1.7749  0.6680  0.6759
 3379TIP3    H231629   4.597   5.453  14.116 -0.6506  1.6390 -1.6562
 3380TIP3   OH231630   2.122   3.228   5.140  0.8419 -0.4393 -0.0806
 3380TIP3    H131631   2.153   3.267   5.223 -1.1927 -0.2932  0.6711
 3380TIP3    H231632   2.175   3.270   5.073  1.2494  0.8782  1.0177
 3381TIP3   OH231633   1.479   0.778   6.421  0.2990  0.0887  0.1005
 3381TIP3    H131634   1.536   0.720   6.471  0.3545  0.6855  0.7463
 3381TIP3    H231635   1.534   0.810   6.349  0.7425  0.5393  0.6309
 3382TIP3   OH231636   6.542   5.754   6.592  0.2421 -0.4218  0.1677
 3382TIP3    H131637   6.563   5.734   6.683 -0.2892  0.7093  0.5657
 3382TIP3    H231638   6.455   5.794   6.596  1.5670  2.8507 -0.3627
 3383TIP3   OH231639   4.653   0.210  16.698  0.0679  0.2229 -0.3627
 3383TIP3    H131640   4.651   0.166  16.784  1.1615  1.4023  0.3036
 3383TIP3    H231641   4.577   0.175  16.652 -0.1104 -1.0294  0.7915
 3384TIP3   OH231642   6.521   3.071  11.774 -0.4266  0.2435  0.6039
 3384TIP3    H131643   6.566   3.127  11.837  1.7683 -0.8836  0.1401
 3384TIP3    H231644   6.482   3.132  11.711  1.3944  1.3163  0.4317
 3385TIP3   OH231645   1.550   1.389   4.392 -0.3418 -0.2660  0.1005
 3385TIP3    H131646   1.499   1.443   4.452 -2.3299 -1.7352 -0.1420
 3385TIP3    H231647   1.502   1.394   4.309 -0.9476 -2.7811  0.2251
 3386TIP3   OH231648   2.180   1.006   5.063 -0.2910  0.3167 -0.1941
 3386TIP3    H131649   2.126   1.075   5.025  0.5634  1.6758  0.9837
 3386TIP3    H231650   2.189   1.030   5.155  1.3636 -0.5020 -0.1101
 3387TIP3   OH231651   6.103   1.975  15.584  0.1806 -0.0063 -0.3327
 3387TIP3    H131652   6.066   1.926  15.657  0.7944 -0.1175 -0.0850
 3387TIP3    H231653   6.076   2.065  15.598 -1.0004 -0.2744 -0.8151
 3388TIP3   OH231654   4.090   0.571   5.556 -0.2333 -0.1891  0.8369
 3388TIP3    H131655   4.090   0.569   5.651  1.4989 -1.3791  0.8633
 3388TIP3    H231656   4.183   0.566   5.532 -0.3974  2.7161 -0.9184
 3389TIP3   OH231657   6.065   1.022   0.776 -0.5860  0.2894  0.5498
 3389TIP3    H131658   6.108   0.944   0.812 -2.5584 -1.0703  0.0885
 3389TIP3    H231659   6.062   1.006   0.682 -2.4493  0.1117  0.6016
 3390TIP3   OH231660   3.132   3.635   3.495  0.3124 -0.1150 -0.1771
 3390TIP3    H131661   3.094   3.559   3.539  0.7694 -1.8670 -2.6040
 3390TIP3    H231662   3.132   3.612   3.403  3.8630  1.2797 -0.7036
 3391TIP3   OH231663   3.014   3.593  14.580 -0.0202  0.4363  0.5002
 3391TIP3    H131664   3.036   3.515  14.631  1.4809  1.8830  2.2014
 3391TIP3    H231665   3.076   3.591  14.506 -0.8232 -0.5776 -0.1878
 3392TIP3   OH231666   0.896   1.005  14.953 -0.5078 -0.0147  0.2034
 3392TIP3    H131667   0.806   1.038  14.962 -0.5074  0.4363 -1.1709
 3392TIP3    H231668   0.887   0.910  14.948 -1.2874  0.1247 -3.0744
 3393TIP3   OH231669   4.910   0.991  11.611  0.0321  0.0685  0.2211
 3393TIP3    H131670   4.942   1.009  11.700 -1.7231  1.0715  0.7050
 3393TIP3    H231671   4.825   0.949  11.624 -0.9686  1.5800 -0.9243
 3394TIP3   OH231672   5.952   0.353  16.714 -0.3165 -0.1750  0.2469
 3394TIP3    H131673   6.020   0.333  16.649  1.2896  1.9904  1.1408
 3394TIP3    H231674   5.943   0.272  16.765 -0.0467 -1.2002 -1.2580
 3395TIP3   OH231675   0.590   5.725  11.591 -0.4317 -0.0568 -0.0166
 3395TIP3    H131676   0.664   5.784  11.607 -0.9069  0.0911  1.9131
 3395TIP3    H231677   0.599   5.657  11.658 -0.2524 -1.8948 -1.8011
 3396TIP3   OH231678   1.012   5.271   1.073  0.3631  0.1615 -0.0748
 3396TIP3    H131679   1.014   5.178   1.052 -0.7825  0.5068 -1.9536
 3396TIP3    H231680   1.010   5.315   0.988 -0.2251  1.8738  0.7720
 3397TIP3   OH231681   6.258   0.926  11.749 -0.2484 -0.5391 -0.1558
 3397TIP3    H131682   6.318   0.985  11.795 -0.8223 -1.3106  1.7003
 3397TIP3    H231683   6.171   0.964  11.763 -0.5136 -1.2249  0.1460
 3398TIP3   OH231684   0.694   0.071   0.194 -0.1321 -0.8100 -0.0696
 3398TIP3    H131685   0.606   0.097   0.220  0.2306 -1.2770  1.7685
 3398TIP3    H231686   0.743   0.153   0.189 -0.2774 -0.6799  0.5413
 3399TIP3   OH231687   1.929   4.856  12.967 -0.4294  0.6019  0.1048
 3399TIP3    H131688   1.966   4.924  12.911 -1.0969  2.2053  1.5300
 3399TIP3    H231689   1.887   4.904  13.039  0.0033 -1.3344  1.7483
 3400TIP3   OH231690   0.262   0.858  14.803 -0.5606  0.2381 -0.5475
 3400TIP3    H131691   0.234   0.768  14.819  0.8894  0.1169  1.7423
 3400TIP3    H231692   0.339   0.851  14.748 -1.6588  0.2589 -2.1582
 3401TIP3   OH231693   2.448   2.822   0.634 -0.4604 -0.0993  0.0622
 3401TIP3    H131694   2.357   2.848   0.624 -0.8704 -1.4526  0.1562
 3401TIP3    H231695   2.448   2.759   0.706  0.3250 -1.2131 -0.8777
 3402TIP3   OH231696   2.820   4.317   5.495  0.3403 -0.3400  0.2398
 3402TIP3    H131697   2.732   4.312   5.459 -0.6769 -1.2252  2.5998
 3402TIP3    H231698   2.818   4.394   5.552  0.5071 -1.2804  1.5788
 3403TIP3   OH231699   6.450   0.188  16.652 -0.2462 -0.1895  0.3804
 3403TIP3    H131700   6.500   0.118  16.695 -0.1430 -0.1785  0.2794
 3403TIP3    H231701   6.361   0.177  16.684 -0.0475  0.2238  1.1253
 3404TIP3   OH231702   5.303   0.242   1.345  0.0367  0.5166 -0.6277
 3404TIP3    H131703   5.279   0.206   1.430  0.7144  1.2696 -0.1026
 3404TIP3    H231704   5.220   0.268   1.305 -0.2532  0.5078 -0.0351
 3405TIP3   OH231705   3.186   5.662   5.373 -0.0596 -0.2126 -0.1945
 3405TIP3    H131706   3.262   5.625   5.417 -1.2275 -2.1955  0.2910
 3405TIP3    H231707   3.198   5.641   5.281  1.4169  2.2019 -0.6420
 3406TIP3   OH231708   0.023   0.372   5.060  0.4960 -0.3034 -0.5738
 3406TIP3    H131709   0.081   0.297   5.074  0.8350 -0.2278 -1.5326
 3406TIP3    H231710   0.078   0.449   5.075  0.0277 -0.2168  0.9030
 3407TIP3   OH231711   0.812   4.171   2.248  0.3261  0.2369  0.0463
 3407TIP3    H131712   0.890   4.194   2.298 -0.8251  1.1554  1.4957
 3407TIP3    H231713   0.814   4.230   2.172  0.4849  1.0093  0.6381
 3408TIP3   OH231714   3.733   5.231  13.251  0.3370 -0.2335 -0.0653
 3408TIP3    H131715   3.740   5.224  13.156  2.0831  2.4649 -0.2611
 3408TIP3    H231716   3.822   5.220  13.283  0.1303  0.9141  1.0216
 3409TIP3   OH231717   3.191   1.950  14.264 -0.1512 -0.0991 -0.0412
 3409TIP3    H131718   3.215   1.879  14.325  2.3599  0.9959  0.3883
 3409TIP3    H231719   3.195   2.029  14.317  0.5361  0.7175 -1.2704
 3410TIP3   OH231720   6.497   4.644  11.559 -0.0264 -0.1758  0.0402
 3410TIP3    H131721   6.426   4.613  11.615 -0.4524  0.9572  0.1436
 3410TIP3    H231722   6.454   4.687  11.485  0.5201  1.0214  0.3890
 3411TIP3   OH231723   1.389   4.617   1.170  0.0503 -0.1800  0.2185
 3411TIP3    H131724   1.411   4.559   1.243  0.5808  0.1920  0.3550
 3411TIP3    H231725   1.449   4.592   1.100 -1.6172 -1.7702 -0.7516
 3412TIP3   OH231726   2.749   3.155  13.929 -0.0920 -0.5700  0.0785
 3412TIP3    H131727   2.776   3.175  13.840  0.9472 -0.2801  0.4437
 3412TIP3    H231728   2.711   3.067  13.924 -0.7776 -0.2467 -0.7780
 3413TIP3   OH231729   4.988   2.646   0.080 -0.8836 -0.1598  0.3527
 3413TIP3    H131730   5.004   2.569   0.133 -0.8877 -0.3478  0.0850
 3413TIP3    H231731   5.056   2.708   0.105 -1.0433 -0.1481  0.7617
 3414TIP3   OH231732   1.942   2.182   2.607  0.0382  0.2932 -0.0880
 3414TIP3    H131733   1.995   2.229   2.671  4.1291  0.7494 -3.4632
 3414TIP3    H231734   1.906   2.249   2.550  1.0531 -0.2936 -1.4708
 3415TIP3   OH231735   5.543   3.340  11.606 -0.3123  0.0965 -0.2930
 3415TIP3    H131736   5.494   3.258  11.604  1.1044 -0.7546 -0.9954
 3415TIP3    H231737   5.605   3.333  11.534 -2.4878  3.2707 -2.7918
 3416TIP3   OH231738   5.482   5.405  14.322 -0.2105  0.1023  0.4947
 3416TIP3    H131739   5.505   5.437  14.235  3.6836 -3.1618  0.0207
 3416TIP3    H231740   5.473   5.310  14.311  0.9066 -0.5051  3.6429
 3417TIP3   OH231741   2.225   0.745   1.926  0.0884  0.0749  0.3320
 3417TIP3    H131742   2.186   0.659   1.909 -0.5974  0.0814  1.7676
 3417TIP3    H231743   2.286   0.758   1.853 -1.2014 -0.7718 -0.9659
 3418TIP3   OH231744   0.246   1.153  11.515  0.0942  0.3486  0.0112
 3418TIP3    H131745   0.333   1.114  11.526  0.2345  0.1051 -1.6897
 3418TIP3    H231746   0.264   1.242  11.486 -0.2006  0.0964 -0.9830
 3419TIP3   OH231747   0.731   5.848   4.495 -0.0965  0.1717 -0.2454
 3419TIP3    H131748   0.779   5.795   4.558  0.1603 -0.1788 -0.7371
 3419TIP3    H231749   0.641   5.816   4.501  0.2761 -1.2195 -1.4470
 3420TIP3   OH231750   2.855   0.986  16.920  0.2151 -0.1133 -0.1214
 3420TIP3    H131751   2.908   1.009  16.844 -0.3509 -3.8039 -1.8179
 3420TIP3    H231752   2.909   0.925  16.970 -1.1723 -1.4215 -0.1537
 3421TIP3   OH231753   3.590   4.997  11.642 -0.2973  0.7260 -0.1395
 3421TIP3    H131754   3.669   5.035  11.603 -1.8319  2.3288 -1.8756
 3421TIP3    H231755   3.537   5.073  11.668 -0.8207 -0.3136  2.0655
 3422TIP3   OH231756   6.666   6.620  17.123  0.0195  0.1760 -0.8426
 3422TIP3    H131757   6.598   6.556  17.101  0.2277 -0.4084  0.1646
 3422TIP3    H231758   6.630   6.669  17.197  0.6278 -0.0574 -0.3787
 3423TIP3   OH231759   2.640   0.100  14.406 -0.1609 -0.4770 -0.2056
 3423TIP3    H131760   2.562   0.098  14.350  0.1018 -1.3290 -0.5544
 3423TIP3    H231761   2.713   0.089  14.346  0.2929  0.9787  0.0420
 3424TIP3   OH231762   4.660   2.686   6.354  0.0432  0.1571 -0.2506
 3424TIP3    H131763   4.619   2.717   6.272  1.0657  2.6204  0.0722
 3424TIP3    H231764   4.734   2.745   6.366  1.3899 -1.7518  1.1958
 3425TIP3   OH231765   6.608   2.705  13.357 -0.2497 -0.4483  0.1481
 3425TIP3    H131766   6.575   2.676  13.272  0.4161  0.1128 -0.3176
 3425TIP3    H231767   6.625   2.625  13.406 -0.8597 -0.7696 -0.1659
 3426TIP3   OH231768   6.451   4.228  16.226  0.3774 -0.3775  0.2410
 3426TIP3    H131769   6.482   4.317  16.214  0.7519 -0.6633 -0.9504
 3426TIP3    H231770   6.374   4.221  16.171 -0.0137 -0.6170  0.8020
 3427TIP3   OH231771   6.463   2.582   2.775  0.0355  0.4690 -0.3108
 3427TIP3    H131772   6.400   2.625   2.716 -0.3511  1.2176  0.6271
 3427TIP3    H231773   6.546   2.584   2.727  0.1520  2.7110 -0.1239
 3428TIP3   OH231774   4.357   5.629  15.412 -0.1356  0.6041  0.0136
 3428TIP3    H131775   4.273   5.648  15.454  0.7881 -0.5207  2.5469
 3428TIP3    H231776   4.421   5.679  15.463  1.0654 -0.9470  0.0774
 3429TIP3   OH231777   5.501   4.736   2.776  0.2943 -0.3677 -0.3426
 3429TIP3    H131778   5.543   4.728   2.862  0.5507  0.5159 -0.3715
 3429TIP3    H231779   5.441   4.810   2.786  0.4463 -0.1580 -0.9680
 3430TIP3   OH231780   3.191   4.313   2.433 -0.1631 -0.1547  0.1050
 3430TIP3    H131781   3.188   4.380   2.365 -2.8560 -1.0891 -0.8356
 3430TIP3    H231782   3.105   4.315   2.474 -0.4564 -3.1148 -0.0963
 3431TIP3   OH231783   4.770   5.713  14.417  0.2821  0.5653 -0.4954
 3431TIP3    H131784   4.833   5.758  14.474 -1.2747  1.2023  0.8137
 3431TIP3    H231785   4.766   5.624  14.451 -0.6721  0.9549  0.4587
 3432TIP3   OH231786   4.642   3.547   1.846  0.1688 -0.2427  0.3761
 3432TIP3    H131787   4.551   3.517   1.839  0.0140  0.1066  0.8429
 3432TIP3    H231788   4.654   3.606   1.772  0.2580 -0.8923 -0.1390
 3433TIP3   OH231789   4.958   2.411  12.385 -0.2120  0.2554 -0.5330
 3433TIP3    H131790   4.865   2.419  12.406 -0.5363 -0.9358 -1.4670
 3433TIP3    H231791   4.979   2.319  12.400  0.5864  0.3060 -1.2469
 3434TIP3   OH231792   2.109   4.941  12.568 -0.1812  0.4852 -0.5090
 3434TIP3    H131793   2.039   5.005  12.559 -1.0726 -0.5013 -0.8931
 3434TIP3    H231794   2.186   4.992  12.593 -0.7840  1.7283 -1.1057
 3435TIP3   OH231795   5.894   6.527  13.988  0.1420 -0.0869  0.1047
 3435TIP3    H131796   5.946   6.603  13.962  0.3759 -0.1853  0.2847
 3435TIP3    H231797   5.868   6.487  13.906  0.2102  0.0581  0.0109
 3436TIP3   OH231798   5.563   6.252   3.436 -0.2053  0.2293  0.1037
 3436TIP3    H131799   5.647   6.223   3.399  0.3346  0.1189  1.3655
 3436TIP3    H231800   5.498   6.194   3.397  0.3900 -0.1296 -0.3740
 3437TIP3   OH231801   1.351   4.357   2.417  0.1074  0.0593  0.3506
 3437TIP3    H131802   1.332   4.450   2.412  0.4019  0.1990  1.4875
 3437TIP3    H231803   1.335   4.334   2.509  0.4807 -0.9061  0.1920
 3438TIP3   OH231804   5.425   1.621   2.362  0.5541 -0.2489  0.4456
 3438TIP3    H131805   5.360   1.690   2.348  2.1799  1.2287 -0.2085
 3438TIP3    H231806   5.427   1.571   2.280  1.8030  1.1373 -0.4243
 3439TIP3   OH231807   3.868   3.309   0.961  0.4229 -0.0280 -0.0424
 3439TIP3    H131808   3.895   3.225   1.000  0.4555  0.6206  1.3975
 3439TIP3    H231809   3.844   3.287   0.871  0.6815 -1.5369  0.2276
 3440TIP3   OH231810   5.664   0.503  16.124  0.8483  0.2055  0.0396
 3440TIP3    H131811   5.757   0.528  16.119 -0.0548  4.8564  1.4008
 3440TIP3    H231812   5.631   0.517  16.036  1.0548  0.5190  0.0102
 3441TIP3   OH231813   5.353   4.824  14.432 -0.2843 -0.3124  0.7922
 3441TIP3    H131814   5.329   4.732  14.430  0.4246 -0.4899  0.1367
 3441TIP3    H231815   5.287   4.868  14.379 -0.9336 -0.3607  1.5464
 3442TIP3   OH231816   2.869   4.184  16.264  0.7948 -0.4929  0.0893
 3442TIP3    H131817   2.908   4.261  16.222  0.6400 -1.5112 -2.0580
 3442TIP3    H231818   2.798   4.219  16.318  0.9158  0.8920 -0.6167
 3443TIP3   OH231819   4.315   3.467  15.706  0.9202 -0.1012  0.0664
 3443TIP3    H131820   4.270   3.382  15.702  0.7947 -0.1652  1.9325
 3443TIP3    H231821   4.373   3.467  15.631 -2.5971  0.2533 -2.9386
 3444TIP3   OH231822   3.579   2.759   2.661  0.4048  0.7157  0.1574
 3444TIP3    H131823   3.602   2.837   2.609  0.6906  1.0361  0.7602
 3444TIP3    H231824   3.487   2.742   2.637 -0.0894  2.0397  1.0024
 3445TIP3   OH231825   2.264   0.953  12.492 -0.3678 -0.2584  0.0674
 3445TIP3    H131826   2.265   0.942  12.397  0.5013 -2.2855  0.2678
 3445TIP3    H231827   2.356   0.954  12.518 -0.6100 -0.7961  0.9875
 3446TIP3   OH231828   2.374   0.774  11.980 -0.1828 -0.3294  0.1749
 3446TIP3    H131829   2.365   0.837  11.908 -0.6936  0.0421  0.5500
 3446TIP3    H231830   2.342   0.692  11.944 -4.2217  0.6457  1.0352
 3447TIP3   OH231831   1.836   1.955  12.222 -0.5259 -0.0754  0.0657
 3447TIP3    H131832   1.891   1.883  12.192 -0.4615  0.0306 -0.0710
 3447TIP3    H231833   1.896   2.029  12.229 -0.4272 -0.2249  0.9535
 3448TIP3   OH231834   2.536   2.901   2.557 -0.2281 -0.0278 -0.7410
 3448TIP3    H131835   2.443   2.894   2.538 -0.3730 -1.6924  0.3853
 3448TIP3    H231836   2.573   2.816   2.532  0.1101 -1.1744  2.9755
 3449TIP3   OH231837   6.568   4.240  11.141 -0.4528 -0.5381  0.1722
 3449TIP3    H131838   6.587   4.331  11.168 -0.2536 -0.6021  0.2550
 3449TIP3    H231839   6.627   4.224  11.068 -0.0438 -0.8026  0.5524
 3450TIP3   OH231840   4.295   1.195   0.395  0.3800 -0.5097 -0.5325
 3450TIP3    H131841   4.365   1.240   0.443 -2.0214  0.6218  2.2093
 3450TIP3    H231842   4.279   1.252   0.319  0.0325  1.2858  0.7999
 3451TIP3   OH231843   6.158   2.397   5.332  0.1941  0.2450 -0.5817
 3451TIP3    H131844   6.138   2.475   5.383  0.3119  1.0365 -1.7055
 3451TIP3    H231845   6.073   2.358   5.313  0.1614 -0.1602  0.3574
 3452TIP3   OH231846   2.038   4.077  14.206  1.0548 -0.1909  0.1619
 3452TIP3    H131847   2.053   4.003  14.265 -0.4360 -0.0628  0.7525
 3452TIP3    H231848   1.958   4.055  14.159  0.9652  0.7438 -0.1485
 3453TIP3   OH231849   5.325   2.960  15.466  0.1125 -0.2028 -0.2615
 3453TIP3    H131850   5.254   2.952  15.403 -0.6827  0.0027  0.5945
 3453TIP3    H231851   5.379   3.032  15.432 -1.3128  1.1406  0.2375
 3454TIP3   OH231852   5.074   1.567  15.385 -0.4529 -0.1072 -0.8259
 3454TIP3    H131853   5.055   1.506  15.314  1.0307  0.5738 -1.8801
 3454TIP3    H231854   5.170   1.576  15.384 -0.5700  1.6924 -0.2663
 3455TIP3   OH231855   1.410   3.756   1.591  0.5337  0.3262 -0.5438
 3455TIP3    H131856   1.461   3.793   1.519 -0.1815  1.0803 -0.6751
 3455TIP3    H231857   1.397   3.664   1.567  4.0206 -0.6435  0.7114
 3456TIP3   OH231858   3.727   5.646   3.416  0.3377 -0.2958 -0.8841
 3456TIP3    H131859   3.712   5.567   3.364  1.1542 -0.2482 -1.2024
 3456TIP3    H231860   3.731   5.717   3.351 -0.8751  0.0943 -0.5674
 3457TIP3   OH231861   2.551   5.309  16.502 -0.8713  0.2571  0.0472
 3457TIP3    H131862   2.601   5.278  16.426  0.2238 -0.5286  1.0413
 3457TIP3    H231863   2.470   5.259  16.499  0.1162 -1.4844  0.6138
 3458TIP3   OH231864   4.470   2.619   3.899  0.6652  0.7257  0.0728
 3458TIP3    H131865   4.395   2.585   3.850  2.1745 -1.6343 -0.7388
 3458TIP3    H231866   4.470   2.571   3.982  1.5357  0.3311 -0.1402
 3459TIP3   OH231867   6.193   5.846  15.898 -0.1303 -0.0176  0.0323
 3459TIP3    H131868   6.219   5.938  15.893 -0.7939  0.1760  0.0800
 3459TIP3    H231869   6.207   5.812  15.810 -3.5827  1.1506 -1.0965
 3460TIP3   OH231870   3.735   4.045   2.459 -0.3715 -0.4154  0.2658
 3460TIP3    H131871   3.675   4.066   2.388 -1.4646  1.5372  1.6531
 3460TIP3    H231872   3.712   3.955   2.484 -1.3504 -0.4117 -0.5391
 3461TIP3   OH231873   5.324   2.002  15.691  0.5022 -0.2163  0.1129
 3461TIP3    H131874   5.384   2.045  15.630  0.3839  0.8554  0.7099
 3461TIP3    H231875   5.241   2.049  15.681 -0.3811 -1.8996 -0.9458
 3462TIP3   OH231876   0.922   0.157   2.317 -0.0687  1.1345  0.2895
 3462TIP3    H131877   0.844   0.170   2.264  0.0131 -2.4111 -1.0096
 3462TIP3    H231878   0.890   0.135   2.404 -0.5850 -0.0282 -0.1706
 3463TIP3   OH231879   2.499   5.665  12.265 -0.3469 -0.0183  0.0631
 3463TIP3    H131880   2.463   5.731  12.325 -0.4913  2.5413 -2.6082
 3463TIP3    H231881   2.430   5.650  12.201  0.1915 -1.8339 -0.1506
 3464TIP3   OH231882   0.014   0.567   0.259  0.2724 -0.2338  0.1400
 3464TIP3    H131883   0.007   0.637   0.324  2.0240 -0.3192  0.4690
 3464TIP3    H231884   0.107   0.565   0.236 -0.2789 -0.0953 -2.5034
 3465TIP3   OH231885   1.525   2.569  17.133 -0.1438  0.4827  0.6745
 3465TIP3    H131886   1.572   2.486  17.140  2.5077  1.8975  0.9823
 3465TIP3    H231887   1.544   2.600  17.044 -2.4413  0.1067 -0.0230
 3466TIP3   OH231888   2.606   2.983  15.686  0.3078 -0.1175 -0.0894
 3466TIP3    H131889   2.596   3.076  15.666 -0.2086 -0.4441 -1.4422
 3466TIP3    H231890   2.581   2.938  15.605  0.1010 -1.4538  0.6863
 3467TIP3   OH231891   5.763   4.030   5.451  0.5424  0.9170  0.2746
 3467TIP3    H131892   5.813   4.049   5.530  0.3402  2.0054  0.1527
 3467TIP3    H231893   5.675   4.008   5.482  0.1780  2.3613  0.3120
 3468TIP3   OH231894   6.170   1.277  16.913 -0.2009 -0.0737 -0.0378
 3468TIP3    H131895   6.221   1.213  16.964  0.6853  0.9340  0.3725
 3468TIP3    H231896   6.090   1.290  16.964 -0.0277 -0.2671  0.2882
 3469TIP3   OH231897   3.602   6.448   2.247  0.4224 -0.5667 -0.3526
 3469TIP3    H131898   3.567   6.405   2.325  0.4208 -0.1165 -0.1047
 3469TIP3    H231899   3.671   6.388   2.216 -0.8385 -1.6720 -1.1016
 3470TIP3   OH231900   2.748   5.994  12.145 -0.0650 -0.4454 -0.1985
 3470TIP3    H131901   2.819   6.034  12.196 -1.4671  0.9290  0.7869
 3470TIP3    H231902   2.739   5.907  12.183 -0.4388  0.2123  1.3358
 3471TIP3   OH231903   4.723   6.293   2.743 -0.7039 -0.5192 -0.0395
 3471TIP3    H131904   4.787   6.364   2.734 -1.3466  0.2500  1.2554
 3471TIP3    H231905   4.640   6.332   2.717 -0.9880 -0.9384  0.2333
 3472TIP3   OH231906   2.312   2.995  12.984  0.1057  0.0887  0.2437
 3472TIP3    H131907   2.366   2.919  13.004 -1.0883 -0.6641  0.6862
 3472TIP3    H231908   2.352   3.034  12.906  0.1350 -1.5880 -0.6112
 3473TIP3   OH231909   2.505   5.815  13.479 -0.1756  0.7699  0.3311
 3473TIP3    H131910   2.429   5.757  13.483  1.1712 -1.0741  0.3372
 3473TIP3    H231911   2.493   5.876  13.551 -0.6700 -0.7523  1.5809
 3474TIP3   OH231912   0.249   2.424  15.453  0.1640 -0.0027 -0.2271
 3474TIP3    H131913   0.208   2.431  15.539  0.2856  1.6477 -0.2756
 3474TIP3    H231914   0.182   2.454  15.392  0.0546 -1.2329 -0.7494
 3475TIP3   OH231915   3.976   2.393  15.013  0.2449 -0.1237  0.3972
 3475TIP3    H131916   4.007   2.470  15.060 -2.1327 -0.0721  2.0891
 3475TIP3    H231917   4.053   2.337  15.002  1.5557  1.4671  1.1731
 3476TIP3   OH231918   0.555   0.898   2.645  0.5289 -0.7846  0.6011
 3476TIP3    H131919   0.605   0.922   2.723  0.9343 -0.7347  0.3300
 3476TIP3    H231920   0.561   0.976   2.589  2.8063 -1.8535 -0.7763
 3477TIP3   OH231921   4.413   1.092  12.642 -0.2358  0.3129 -0.2949
 3477TIP3    H131922   4.319   1.100  12.660  0.0412  0.5754  1.2287
 3477TIP3    H231923   4.445   1.182  12.641 -0.1456  0.2890 -1.8552
 3478TIP3   OH231924   6.141   2.026  12.253 -0.2996  0.4919 -0.7329
 3478TIP3    H131925   6.218   2.009  12.199 -0.0830 -1.9016  0.1875
 3478TIP3    H231926   6.128   2.121  12.249  1.6598  0.7481 -2.2662
 3479TIP3   OH231927   0.446   5.672  17.037 -1.0546  0.0562  0.8893
 3479TIP3    H131928   0.535   5.649  17.065 -0.5493 -0.6932 -1.1677
 3479TIP3    H231929   0.406   5.710  17.115  1.0291  0.3257  1.9043
 3480TIP3   OH231930   0.798   0.251  15.436  0.4413  0.9215  0.1620
 3480TIP3    H131931   0.892   0.243  15.417 -0.0663  0.4759 -2.5425
 3480TIP3    H231932   0.794   0.261  15.531  3.2826  1.9274  0.2874
 3481TIP3   OH231933   1.942   6.289   6.526  0.7412  0.4492  0.1580
 3481TIP3    H131934   1.984   6.374   6.511  1.3426 -0.1759 -2.0542
 3481TIP3    H231935   2.015   6.227   6.531  0.2239 -0.2086 -0.3617
 3482TIP3   OH231936   4.487   4.691  10.422 -0.0260 -0.8920  0.6102
 3482TIP3    H131937   4.412   4.743  10.450  0.2879  0.3477 -0.7407
 3482TIP3    H231938   4.562   4.748  10.436  0.6756 -2.0435  1.7527
 3483TIP3   OH231939   3.479   1.987  13.964  0.2105 -0.2771  0.2717
 3483TIP3    H131940   3.414   1.963  13.898  1.2756 -1.4385 -0.3843
 3483TIP3    H231941   3.462   2.080  13.981 -3.7002 -1.2008  2.5204
 3484TIP3   OH231942   1.209   5.269  11.341  0.1571 -0.2952  0.1511
 3484TIP3    H131943   1.129   5.252  11.291  0.6116  0.4431 -0.8487
 3484TIP3    H231944   1.259   5.187  11.334  0.6935  0.1364 -1.5415
 3485TIP3   OH231945   2.570   2.529  11.774  0.4146  0.0211  0.5013
 3485TIP3    H131946   2.544   2.441  11.748  0.1352 -0.2722  1.7132
 3485TIP3    H231947   2.612   2.566  11.696 -0.6234 -0.7025 -0.4275
 3486TIP3   OH231948   3.140   4.920  16.211  0.0432  0.4245  0.2545
 3486TIP3    H131949   3.063   4.868  16.188 -1.1976  2.2987 -0.1153
 3486TIP3    H231950   3.172   4.880  16.292 -1.6273 -0.1416  0.6951
 3487TIP3   OH231951   1.561   4.792   0.961  0.0283  0.3850 -0.3504
 3487TIP3    H131952   1.599   4.715   1.005  1.0646  2.2044  2.1628
 3487TIP3    H231953   1.636   4.849   0.944 -0.9355  1.7554 -0.1744
 3488TIP3   OH231954   3.552   4.712  17.050 -0.0911 -0.5210  0.9742
 3488TIP3    H131955   3.571   4.787  16.994 -0.9265 -0.6622  0.4819
 3488TIP3    H231956   3.460   4.725  17.076 -2.0443 -3.7876 -3.1011
 3489TIP3   OH231957   3.795   3.735   4.069  0.1663 -0.4078 -0.4308
 3489TIP3    H131958   3.847   3.665   4.031 -1.1565 -1.7483  0.1564
 3489TIP3    H231959   3.734   3.691   4.128 -2.6502  0.9025 -2.1477
 3490TIP3   OH231960   1.039   4.054  13.140  0.2513  0.2016  0.2067
 3490TIP3    H131961   1.068   3.964  13.125 -1.6168 -0.3632 -0.3361
 3490TIP3    H231962   1.002   4.053  13.228 -1.4439 -0.0793 -0.4719
 3491TIP3   OH231963   2.237   6.279   3.481  0.2882  0.5268 -0.0158
 3491TIP3    H131964   2.198   6.197   3.447  3.2031 -1.3897  0.9035
 3491TIP3    H231965   2.188   6.297   3.561 -0.1034 -0.5969  0.0196
 3492TIP3   OH231966   3.634   4.096  11.659  0.7287  0.2547 -0.0016
 3492TIP3    H131967   3.633   4.139  11.573  0.8044  0.6818  0.2063
 3492TIP3    H231968   3.564   4.139  11.708 -0.8610 -1.5502 -0.5783
 3493TIP3   OH231969   2.515   5.757   4.031 -0.0682  0.0838 -0.3395
 3493TIP3    H131970   2.589   5.742   3.973 -0.8081  0.5626 -1.4332
 3493TIP3    H231971   2.452   5.689   4.008 -0.1340 -0.0769  0.3037
 3494TIP3   OH231972   1.416   6.590   6.131  0.0551 -0.1125  0.6935
 3494TIP3    H131973   1.472   6.543   6.193 -0.6117 -1.5576  0.2414
 3494TIP3    H231974   1.328   6.557   6.149 -0.1772 -0.4324 -0.9004
 3495TIP3   OH231975   6.323   5.332  15.539 -0.0567 -0.3821  0.0215
 3495TIP3    H131976   6.357   5.418  15.563  1.1983 -0.4952 -1.2262
 3495TIP3    H231977   6.243   5.351  15.489  0.4926  0.1140 -0.7024
 3496TIP3   OH231978   3.723   0.635   0.450 -0.0067  0.1904 -0.1148
 3496TIP3    H131979   3.749   0.647   0.358  0.6068  0.0624  0.0377
 3496TIP3    H231980   3.763   0.710   0.496 -1.4702  1.0278 -0.1637
 3497TIP3   OH231981   4.752   2.447  10.888  0.8114 -0.3475  0.4801
 3497TIP3    H131982   4.794   2.477  10.968  0.5033 -0.6682  0.7678
 3497TIP3    H231983   4.824   2.413  10.834  0.9070 -1.0674  1.0444
 3498TIP3   OH231984   4.199   3.435  10.461  0.1388  0.4108 -0.5971
 3498TIP3    H131985   4.189   3.340  10.457  0.4434  0.4139 -2.0353
 3498TIP3    H231986   4.168   3.459  10.548  0.6629 -1.0746  0.0332
 3499TIP3   OH231987   2.441   3.982  15.279  0.3955 -0.0352  0.1391
 3499TIP3    H131988   2.505   4.036  15.233  0.8523 -2.0281 -1.7249
 3499TIP3    H231989   2.361   4.033  15.278  1.3808  1.5933  0.6001
 3500TIP3   OH231990   1.477   4.482   5.220 -0.2893 -0.4420  0.1943
 3500TIP3    H131991   1.509   4.567   5.250 -0.2031  0.2175 -1.6650
 3500TIP3    H231992   1.413   4.455   5.286 -2.2848  2.2876 -0.4965
 3501TIP3   OH231993   6.644   0.339  13.290 -0.6284  0.1802  0.0037
 3501TIP3    H131994   6.571   0.391  13.258 -0.8927 -0.1017  0.1424
 3501TIP3    H231995   6.720   0.397  13.284 -0.9099  0.5599  0.1006
 3502TIP3   OH231996   3.968   3.400   1.198 -0.5945  0.0534  0.4860
 3502TIP3    H131997   4.005   3.486   1.176  0.6432 -0.3421  0.9419
 3502TIP3    H231998   3.947   3.361   1.113  0.3945  0.1539  0.1855
 3503TIP3   OH231999   4.672   1.221   0.643 -0.2622  0.4766  0.3205
 3503TIP3    H132000   4.744   1.176   0.600  0.0022  0.1425  1.1052
 3503TIP3    H232001   4.704   1.241   0.731 -1.3345 -0.2711  0.9146
 3504TIP3   OH232002   3.678   6.295  12.989 -0.1741  0.3168  0.1674
 3504TIP3    H132003   3.598   6.251  13.016 -0.2158  0.4697  0.2966
 3504TIP3    H232004   3.726   6.311  13.071 -0.1589  0.5070  0.1235
 3505TIP3   OH232005   6.299   6.171  12.861 -0.1070 -0.3773 -0.1376
 3505TIP3    H132006   6.239   6.241  12.886 -0.7819 -0.8913 -0.2619
 3505TIP3    H232007   6.277   6.099  12.921  0.0206 -0.7519 -0.5340
 3506TIP3   OH232008   0.600   2.784  16.362 -1.1773  0.0659 -0.2360
 3506TIP3    H132009   0.677   2.832  16.330  0.0486 -1.9879 -0.5680
 3506TIP3    H232010   0.542   2.852  16.396  1.0837  1.6850  0.6889
 3507TIP3   OH232011   5.708   1.262  13.792 -0.5831 -0.2747 -0.1213
 3507TIP3    H132012   5.727   1.314  13.869  1.6083  0.9085 -1.3785
 3507TIP3    H232013   5.629   1.302  13.755 -1.0110 -0.1730  0.8628
 3508TIP3   OH232014   4.020   6.157   2.954 -0.1839  0.2202  0.7945
 3508TIP3    H132015   4.069   6.140   3.035  1.6400 -3.6843 -0.9070
 3508TIP3    H232016   3.949   6.092   2.954  0.6819 -0.8129 -1.2871
 3509TIP3   OH232017   3.468   3.285   2.217  0.3624  0.3158  0.3147
 3509TIP3    H132018   3.462   3.295   2.312  2.2919 -2.1337  0.7947
 3509TIP3    H232019   3.465   3.375   2.183 -2.9578  1.1738  2.3896
 3510TIP3   OH232020   1.417   1.308  12.814 -0.0142 -0.3883  0.2984
 3510TIP3    H132021   1.498   1.303  12.764 -0.2440 -0.9267 -0.0404
 3510TIP3    H232022   1.353   1.343  12.752  0.4808  2.5013  1.2705
 3511TIP3   OH232023   5.555   3.950   0.179  0.0977  0.0878  0.1221
 3511TIP3    H132024   5.531   3.954   0.272 -0.3534  2.0271 -0.0234
 3511TIP3    H232025   5.491   3.891   0.140 -0.0762 -0.2856  0.9459
 3512TIP3   OH232026   5.774   5.020  15.729  0.1127  0.0091 -0.3916
 3512TIP3    H132027   5.771   5.108  15.768 -0.7223  0.0599 -0.5410
 3512TIP3    H232028   5.694   5.015  15.676 -0.6995 -1.4180  0.8703
 3513TIP3   OH232029   0.205   5.382  13.724 -1.0519 -0.3192  0.7727
 3513TIP3    H132030   0.192   5.348  13.636 -1.4675  1.2072  0.2104
 3513TIP3    H232031   0.116   5.393  13.759 -0.9438  0.3775  0.8460
 3514TIP3   OH232032   4.769   1.070  12.167  0.1269 -0.2482 -0.1447
 3514TIP3    H132033   4.690   1.098  12.121 -0.1478 -0.3193  0.2694
 3514TIP3    H232034   4.765   1.116  12.251  0.4759 -0.3288 -0.0826
 3515TIP3   OH232035   0.707   6.191   2.602 -0.0572 -0.1590 -0.5314
 3515TIP3    H132036   0.724   6.285   2.588  0.1145 -0.3005 -1.3620
 3515TIP3    H232037   0.727   6.151   2.517  1.0346 -1.1201  0.1481
 3516TIP3   OH232038   2.544   3.082   1.030  0.6172 -0.1252  0.3337
 3516TIP3    H132039   2.568   3.011   0.970 -0.0311 -0.2509  0.2158
 3516TIP3    H232040   2.539   3.040   1.116  1.5634  0.0586  0.4872
 3517TIP3   OH232041   1.363   3.570  16.670 -0.0039 -0.3565 -0.3345
 3517TIP3    H132042   1.407   3.569  16.756  0.8160 -0.2299 -0.7456
 3517TIP3    H232043   1.434   3.576  16.607 -0.6750  1.1142 -0.9840
 3518TIP3   OH232044   6.001   4.532   2.967  0.3412  0.0567 -0.2764
 3518TIP3    H132045   6.084   4.566   2.933  0.3885 -0.1378 -0.3568
 3518TIP3    H232046   6.027   4.470   3.035  0.2684 -0.1647 -0.4489
 3519TIP3   OH232047   5.920   2.565   1.623  0.2689  0.1476  0.1112
 3519TIP3    H132048   5.896   2.515   1.701 -1.3937  0.4707 -0.1607
 3519TIP3    H232049   5.923   2.500   1.553  0.4369  0.0685  0.1903
 3520TIP3   OH232050   4.391   1.295  11.842 -0.2750 -0.2460 -0.0202
 3520TIP3    H132051   4.385   1.301  11.747  3.5594 -0.5281 -0.4355
 3520TIP3    H232052   4.396   1.202  11.860 -0.4813 -0.1750  0.4273
 3521TIP3   OH232053   6.124   2.224   1.059 -0.5989  0.4233 -0.2396
 3521TIP3    H132054   6.157   2.264   0.978  1.0196  2.0496  1.1373
 3521TIP3    H232055   6.203   2.198   1.107 -1.4133  1.2803  1.6604
 3522TIP3   OH232056   6.444   6.474   1.265  0.2085  0.1963  0.1341
 3522TIP3    H132057   6.408   6.410   1.327  1.0578 -0.0606  0.3794
 3522TIP3    H232058   6.484   6.421   1.197  1.2747  0.4510  0.5458
 3523TIP3   OH232059   3.489   4.120   1.243  0.5033  0.3721  0.4571
 3523TIP3    H132060   3.540   4.134   1.163 -0.0648 -0.2599 -0.0205
 3523TIP3    H232061   3.499   4.026   1.262  0.1245  0.3938  0.7829
 3524TIP3   OH232062   3.817   5.959   5.652 -0.0239 -0.0353  0.1126
 3524TIP3    H132063   3.773   6.014   5.717 -2.0023  0.3025 -1.4259
 3524TIP3    H232064   3.747   5.913   5.607  1.3115 -0.6703 -1.4373
 3525TIP3   OH232065   5.629   0.539  13.325 -0.5370 -0.0623  0.1653
 3525TIP3    H132066   5.676   0.573  13.248 -0.0175 -0.0303  0.4946
 3525TIP3    H232067   5.556   0.599  13.336 -1.1607 -0.6039 -0.8666
 3526TIP3   OH232068   5.893   4.222   3.442 -0.1504 -0.8656  0.3338
 3526TIP3    H132069   5.978   4.214   3.486 -0.2406 -0.2400  0.6277
 3526TIP3    H232070   5.849   4.139   3.461  1.4232 -2.3486 -2.0731
 3527TIP3   OH232071   1.791   2.159   2.212  0.1142  0.1092  0.3886
 3527TIP3    H132072   1.752   2.168   2.126  1.1399  1.0758 -0.0016
 3527TIP3    H232073   1.885   2.157   2.196  0.3115 -0.1462  1.4538
 3528TIP3   OH232074   4.658   5.577   1.103 -0.1587  0.5201  0.0935
 3528TIP3    H132075   4.565   5.590   1.085 -0.0450  1.6634  0.2561
 3528TIP3    H232076   4.661   5.497   1.156 -1.0666  0.6021  0.2933
 3529TIP3   OH232077   6.227   4.662   2.898 -0.5566  0.4222 -0.0363
 3529TIP3    H132078   6.276   4.719   2.957  0.4847  0.2191 -0.6677
 3529TIP3    H232079   6.213   4.716   2.820  0.3290 -0.1338 -0.5909
 3530TIP3   OH232080   2.887   2.688  16.798 -0.2241  0.6189 -0.1602
 3530TIP3    H132081   2.896   2.599  16.832 -0.7653  0.9039  0.7509
 3530TIP3    H232082   2.976   2.712  16.770  0.4228  0.6676  1.8186
 3531TIP3   OH232083   3.972   2.985  16.726 -0.0708 -0.7099  0.2257
 3531TIP3    H132084   3.927   2.955  16.806  0.2254 -3.3867 -0.5110
 3531TIP3    H232085   4.040   2.919  16.711 -0.0865 -0.2480 -2.2056
 3532TIP3   OH232086   3.708   2.239  11.814  0.5420  0.1299 -0.1941
 3532TIP3    H132087   3.782   2.290  11.846  0.0833  0.8019 -0.1760
 3532TIP3    H232088   3.631   2.285  11.849  0.1432 -1.3924  1.0277
 3533TIP3   OH232089   4.152   3.048   5.125 -0.3520 -0.5806  0.1380
 3533TIP3    H132090   4.191   3.118   5.178  0.7547 -0.8994 -0.2500
 3533TIP3    H232091   4.113   3.094   5.050  3.9467 -0.5712 -2.3853
 3534TIP3   OH232092   0.698   2.502  13.301  0.1652  0.1657  0.4173
 3534TIP3    H132093   0.752   2.447  13.245 -1.6110 -0.9294 -0.3205
 3534TIP3    H232094   0.743   2.586  13.302  1.8084 -0.6514 -0.2232
 3535TIP3   OH232095   2.444   4.782   4.688  0.8079 -0.1009 -0.4936
 3535TIP3    H132096   2.459   4.839   4.764  0.2777  0.2241 -0.6323
 3535TIP3    H232097   2.439   4.694   4.725  0.4296  0.0698 -0.1321
 3536TIP3   OH232098   2.704   4.898   4.056  0.2595  0.4584 -0.4054
 3536TIP3    H132099   2.792   4.912   4.091  0.1858 -0.2029  0.0768
 3536TIP3    H232100   2.645   4.919   4.129  0.0429  0.4197 -0.5686
 3537TIP3   OH232101   1.495   6.076   5.937 -0.3087 -0.0369 -0.0144
 3537TIP3    H132102   1.440   6.152   5.960  0.2332  0.5991 -0.7578
 3537TIP3    H232103   1.572   6.115   5.897  0.9187 -0.8959  1.4299
 3538TIP3   OH232104   6.592   2.583  12.028 -0.1648  0.1302 -0.1560
 3538TIP3    H132105   6.503   2.614  12.045 -0.7152 -1.5523  0.3107
 3538TIP3    H232106   6.579   2.503  11.976  1.1082  0.1717 -0.5567
 3539TIP3   OH232107   3.226   3.811   3.099  0.1994 -0.4685  0.0843
 3539TIP3    H132108   3.246   3.732   3.049  0.5565 -0.4875  0.2551
 3539TIP3    H232109   3.155   3.785   3.158 -0.6311 -0.2857 -0.8195
 3540TIP3   OH232110   0.491   2.356  15.359  0.8732 -0.3165  0.7295
 3540TIP3    H132111   0.400   2.384  15.366 -0.0641 -2.6147 -0.9342
 3540TIP3    H232112   0.509   2.312  15.442 -0.4896 -2.1520  0.1264
 3541TIP3   OH232113   1.494   1.648   2.401 -0.2320 -0.6161 -0.8318
 3541TIP3    H132114   1.575   1.606   2.432 -0.7256  0.5351  2.5016
 3541TIP3    H232115   1.443   1.576   2.365  0.5991 -2.1991  0.9395
 3542TIP3   OH232116   3.486   4.125   2.905  0.1633 -0.0616 -0.2378
 3542TIP3    H132117   3.543   4.188   2.862  0.8950 -0.6312 -0.1252
 3542TIP3    H232118   3.535   4.043   2.902  1.2647  0.2397  3.4821
 3543TIP3   OH232119   6.776   0.125  14.455  0.1924  0.2659  0.0720
 3543TIP3    H132120   6.730   0.041  14.451  1.8089 -0.6490 -0.2144
 3543TIP3    H232121   6.810   0.128  14.545  0.4150  0.4547 -0.0195
 3544TIP3   OH232122   5.583   5.336   0.587 -0.4780  0.1455 -0.1014
 3544TIP3    H132123   5.672   5.302   0.582 -1.1679 -1.6512 -1.0732
 3544TIP3    H232124   5.591   5.428   0.565  1.4294  0.6085  2.1669
 3545TIP3   OH232125   2.425   1.917   3.015  0.3908 -0.0940 -0.1936
 3545TIP3    H132126   2.389   1.830   3.000  0.4665 -0.1460 -0.0621
 3545TIP3    H232127   2.432   1.925   3.110  1.2474 -0.2899 -0.2318
 3546TIP3   OH232128   4.601   1.379  12.027 -0.2848 -0.2909  0.1024
 3546TIP3    H132129   4.583   1.328  12.106 -1.2812 -0.1067  0.0085
 3546TIP3    H232130   4.518   1.380  11.980  0.2648 -0.2855 -0.8866
 3547TIP3   OH232131   3.937   5.628  15.693  0.0355 -0.1814 -0.4995
 3547TIP3    H132132   4.028   5.638  15.665  0.1047 -0.3031 -0.3223
 3547TIP3    H232133   3.886   5.639  15.613  0.1612  0.6121 -0.4804
 3548TIP3   OH232134   5.662   0.735  10.687 -0.1760 -0.4065  0.0633
 3548TIP3    H132135   5.753   0.735  10.719  0.6679 -0.4818 -2.1163
 3548TIP3    H232136   5.662   0.800  10.616 -2.4710  1.3414  1.5493
 3549TIP3   OH232137   2.223   4.257  14.276 -0.3265  0.3325 -0.0698
 3549TIP3    H132138   2.143   4.212  14.249 -1.0395  1.4186  0.1564
 3549TIP3    H232139   2.192   4.331  14.329  0.8743  0.2790  0.7409
 3550TIP3   OH232140   0.216   0.589  14.330  0.1687 -0.3300  0.2176
 3550TIP3    H132141   0.155   0.597  14.403  1.3842 -1.2032  1.3779
 3550TIP3    H232142   0.226   0.495  14.317  0.5010 -0.1882 -0.6031
 3551TIP3   OH232143   3.699   6.423  12.307  0.1748  0.3021 -0.2952
 3551TIP3    H132144   3.692   6.336  12.346  2.0152 -0.9989 -2.6001
 3551TIP3    H232145   3.763   6.468  12.362 -0.8809  0.2866  0.9890
 3552TIP3   OH232146   3.750   0.674   3.549  0.0348  0.4634 -0.1208
 3552TIP3    H132147   3.673   0.637   3.508  0.3434  0.0795 -0.3545
 3552TIP3    H232148   3.758   0.762   3.512 -0.0050  0.3208 -0.4658
 3553TIP3   OH232149   5.771   2.138  16.824 -0.3156 -0.0428 -0.2850
 3553TIP3    H132150   5.680   2.117  16.847  0.0711 -1.3382  0.1794
 3553TIP3    H232151   5.821   2.065  16.859  0.9679  0.8864 -0.1261
 3554TIP3   OH232152   6.094   5.135  15.207 -0.4880 -0.1636 -0.1429
 3554TIP3    H132153   6.174   5.186  15.221 -0.1876 -0.8079  0.5731
 3554TIP3    H232154   6.062   5.116  15.295 -0.7230 -1.0033 -0.4025
 3555TIP3   OH232155   1.685   1.140   4.369 -0.0438 -0.5313 -0.2221
 3555TIP3    H132156   1.597   1.116   4.342 -0.5319  1.4704 -0.5888
 3555TIP3    H232157   1.682   1.235   4.379  2.0481 -0.4162 -0.1699
 3556TIP3   OH232158   3.279   0.734  13.188 -0.0162  0.2821  0.5371
 3556TIP3    H132159   3.260   0.793  13.115  1.6087 -1.1752 -1.1792
 3556TIP3    H232160   3.196   0.687  13.203 -0.1352 -0.1200 -1.1220
 3557TIP3   OH232161   3.919   3.950  12.115 -0.0843 -0.2615  0.1197
 3557TIP3    H132162   3.880   4.038  12.115  1.3402  0.4050  1.3756
 3557TIP3    H232163   4.009   3.963  12.085  0.9546 -0.8547  2.7216
 3558TIP3   OH232164   0.633   3.387  16.779  0.2290 -0.1082  0.1930
 3558TIP3    H132165   0.717   3.366  16.736  0.3464 -0.2185  0.4708
 3558TIP3    H232166   0.648   3.365  16.871 -0.2878 -0.6615  0.1487
 3559TIP3   OH232167   4.026   3.072   2.386  0.8499  0.1593  0.2472
 3559TIP3    H132168   3.965   3.016   2.434 -0.1032 -1.1734 -2.3166
 3559TIP3    H232169   3.969   3.134   2.340  1.6676  0.8861  0.1944
 3560TIP3   OH232170   4.710   1.523   0.088 -0.4354 -0.0764 -0.4542
 3560TIP3    H132171   4.792   1.487   0.056 -0.5603 -0.5688 -0.2404
 3560TIP3    H232172   4.735   1.582   0.159 -0.2235  0.3154 -0.8472
 3561TIP3   OH232173   5.098   1.148   4.431  0.8647 -0.5132  0.0242
 3561TIP3    H132174   5.139   1.095   4.500  1.0153 -0.1869  0.1897
 3561TIP3    H232175   5.043   1.087   4.383  0.7853 -0.7530  0.4162
 3562TIP3   OH232176   4.237   3.182  15.629 -0.3343  0.6063  0.1898
 3562TIP3    H132177   4.191   3.219  15.554 -2.1150  2.6098  2.1049
 3562TIP3    H232178   4.258   3.092  15.603  0.4994  1.6086 -3.1895
 3563TIP3   OH232179   6.351   5.857   0.561  0.8587  0.0250 -0.3645
 3563TIP3    H132180   6.317   5.947   0.568  2.1832  0.4564  1.5056
 3563TIP3    H232181   6.275   5.804   0.539 -0.6295  1.2201  1.5831
 3564TIP3   OH232182   3.286   1.425  16.395  0.1630 -0.1497  0.2168
 3564TIP3    H132183   3.360   1.477  16.361 -0.0871  1.1401  1.5335
 3564TIP3    H232184   3.308   1.335  16.372  2.6281  0.0747  1.3598
 3565TIP3   OH232185   0.374   0.220  10.994 -0.7278 -0.1244  0.1701
 3565TIP3    H132186   0.465   0.226  11.021 -1.4238  1.9409  2.3786
 3565TIP3    H232187   0.373   0.253  10.904  0.4126  2.2486  0.9608
 3566TIP3   OH232188   3.227   0.290  12.297 -0.4989  0.1209 -0.1153
 3566TIP3    H132189   3.264   0.324  12.379  0.1740  0.5171 -0.5791
 3566TIP3    H232190   3.154   0.235  12.326  1.0007 -1.4455  0.8815
 3567TIP3   OH232191   6.675   1.700  17.282 -0.2641  0.2094 -0.3648
 3567TIP3    H132192   6.756   1.687  17.333 -0.9403  2.3316  1.3968
 3567TIP3    H232193   6.610   1.647  17.328 -0.8416  2.0154  1.0261
 3568TIP3   OH232194   1.770   2.445   3.627  0.3899  0.8850 -0.0951
 3568TIP3    H132195   1.729   2.512   3.682  0.8102  0.2022  1.0775
 3568TIP3    H232196   1.698   2.410   3.574  0.0814  1.9188 -0.3640
 3569TIP3   OH232197   3.845   6.632   4.272 -0.0810 -0.1173  0.0129
 3569TIP3    H132198   3.795   6.569   4.220  0.3348 -0.2523 -0.2314
 3569TIP3    H232199   3.933   6.629   4.234  0.5823 -1.1613  1.5043
 3570TIP3   OH232200   3.741   6.759   1.074 -0.0436  0.1608  0.6323
 3570TIP3    H132201   3.743   6.843   1.120  1.9042  0.4143  0.1505
 3570TIP3    H232202   3.661   6.717   1.105 -0.7626  1.9334  1.3307
 3571TIP3   OH232203   1.823   6.667  12.679  0.1331  0.4508 -0.4635
 3571TIP3    H132204   1.828   6.743  12.738 -0.3495  1.0948 -1.2235
 3571TIP3    H232205   1.914   6.645  12.661  0.2827  1.0703 -0.5025
 3572TIP3   OH232206   0.162   0.557   1.361 -0.3334  0.6390  0.3723
 3572TIP3    H132207   0.115   0.480   1.393  0.3285 -0.8526 -2.0382
 3572TIP3    H232208   0.227   0.575   1.430  0.0995 -1.5372  0.6168
 3573TIP3   OH232209   1.087   0.336  10.955 -0.1295  0.0237  0.0926
 3573TIP3    H132210   1.007   0.286  10.973 -1.6523  1.2664 -2.5282
 3573TIP3    H232211   1.158   0.274  10.969 -1.1923 -0.5442  4.8504
 3574TIP3   OH232212   1.512   5.451  16.659 -0.6450 -0.9856  0.1545
 3574TIP3    H132213   1.442   5.446  16.594 -0.9064 -0.0792  0.3518
 3574TIP3    H232214   1.516   5.543  16.683 -0.7296 -1.3391  1.6214
 3575TIP3   OH232215   6.806   0.218   2.383 -0.2615 -0.1916 -0.0065
 3575TIP3    H132216   6.895   0.185   2.392 -0.2202 -0.8682 -2.2697
 3575TIP3    H232217   6.815   0.298   2.332 -1.1197 -2.1759 -3.5828
 3576TIP3   OH232218   5.138   6.159  14.663  0.4076  0.0470 -0.0227
 3576TIP3    H132219   5.090   6.099  14.607  0.4158  0.2595 -0.2610
 3576TIP3    H232220   5.191   6.103  14.719  0.0308 -0.1788  0.1042
 3577TIP3   OH232221   5.659   3.658  14.972 -0.2285  0.2583 -0.5549
 3577TIP3    H132222   5.669   3.600  15.047 -1.8679 -1.1607 -1.3719
 3577TIP3    H232223   5.600   3.727  15.002 -0.9520 -0.3574 -0.5387
 3578TIP3   OH232224   4.334   2.981   5.462  0.1416 -0.1163 -0.3237
 3578TIP3    H132225   4.418   2.936   5.459  0.6905  0.6826  1.6836
 3578TIP3    H232226   4.271   2.915   5.432  1.1527 -1.5842  0.6591
 3579TIP3   OH232227   2.768   1.540   2.471  0.4506 -0.4123 -0.3444
 3579TIP3    H132228   2.850   1.498   2.497  1.1789  1.2565  0.1926
 3579TIP3    H232229   2.701   1.498   2.525  1.4722  0.6357  1.8422
 3580TIP3   OH232230   0.546   6.778  12.837 -0.4684  0.2551  0.1565
 3580TIP3    H132231   0.639   6.788  12.815 -0.7977 -1.0578 -2.0233
 3580TIP3    H232232   0.547   6.749  12.929  1.3115 -0.4223 -0.0288
 3581TIP3   OH232233   6.029   3.158   3.930 -0.1970 -0.1647  0.4917
 3581TIP3    H132234   6.041   3.081   3.874  1.2413  0.5242 -0.1975
 3581TIP3    H232235   6.116   3.197   3.935 -0.5186  0.4085  2.3308
 3582TIP3   OH232236   4.347   1.649  15.546  0.9580 -0.0077 -0.4909
 3582TIP3    H132237   4.387   1.604  15.471  0.2168 -2.1366  0.2964
 3582TIP3    H232238   4.382   1.603  15.622  0.2451  0.8655  0.3836
 3583TIP3   OH232239   4.026   5.913   5.427  0.2840 -0.5839  0.1807
 3583TIP3    H132240   4.112   5.931   5.389 -0.5027 -1.3154 -2.1120
 3583TIP3    H232241   3.981   5.997   5.428  0.7118 -0.3554  0.5852
 3584TIP3   OH232242   0.552   4.279   2.635 -0.1289 -0.2158 -0.0849
 3584TIP3    H132243   0.636   4.236   2.619  0.6697  1.0092  0.5972
 3584TIP3    H232244   0.573   4.373   2.633 -1.6086  0.1283 -0.5342
 3585TIP3   OH232245   2.854   4.793   5.766 -0.5568 -0.3355  0.2987
 3585TIP3    H132246   2.827   4.734   5.837  1.4042 -1.2288  0.3654
 3585TIP3    H232247   2.828   4.880   5.797  2.3455 -0.3444  3.3470
 3586TIP3   OH232248   0.490   5.458  14.822  0.2412 -0.1111  0.2906
 3586TIP3    H132249   0.524   5.371  14.801  1.9412  0.7931 -0.9297
 3586TIP3    H232250   0.563   5.502  14.865 -0.2891  1.0099  0.0698
 3587TIP3   OH232251   1.883   1.468  13.090 -0.6498  0.3306 -0.1335
 3587TIP3    H132252   1.828   1.542  13.066 -0.0070  1.3475  1.3751
 3587TIP3    H232253   1.897   1.421  13.008 -2.3968  0.9474 -0.8439
 3588TIP3   OH232254   6.672   1.001  12.292  0.1723  0.4901 -0.4055
 3588TIP3    H132255   6.657   1.092  12.268 -3.1868  0.0495 -0.4543
 3588TIP3    H232256   6.634   0.951  12.219 -1.8854 -0.8476  1.4496
 3589TIP3   OH232257   1.609   0.595   4.167  0.1313  0.4203 -0.3162
 3589TIP3    H132258   1.539   0.565   4.224 -0.3218 -0.2818 -1.2088
 3589TIP3    H232259   1.573   0.587   4.078  0.2043  3.0050 -0.6770
 3590TIP3   OH232260   1.589   4.131  14.776  0.0614 -0.4447 -0.0187
 3590TIP3    H132261   1.653   4.092  14.835  0.6915  1.0457  0.3408
 3590TIP3    H232262   1.512   4.074  14.782  0.3124 -0.6505  1.8002
 3591TIP3   OH232263   6.106   3.722  15.311 -0.3503  0.4134 -0.1357
 3591TIP3    H132264   6.013   3.713  15.289 -0.3797  0.8396 -0.2069
 3591TIP3    H232265   6.133   3.803  15.268 -0.1099  0.6392  0.4213
 3592TIP3   OH232266   0.774   4.043   5.742  0.6161 -0.2973  0.0456
 3592TIP3    H132267   0.746   4.106   5.809  2.4228 -0.4927  1.0437
 3592TIP3    H232268   0.695   3.993   5.722 -0.3420  0.8277  0.8422
 3593TIP3   OH232269   3.687   4.895   2.428 -0.1640  0.1466  0.2549
 3593TIP3    H132270   3.642   4.811   2.421  1.7476 -0.8888 -0.3775
 3593TIP3    H232271   3.646   4.939   2.502 -2.2191 -0.6835 -0.3317
 3594TIP3   OH232272   6.488   2.054   3.525  0.0921 -0.3101 -0.4084
 3594TIP3    H132273   6.543   2.118   3.569  1.6130 -2.1915  0.5561
 3594TIP3    H232274   6.463   2.097   3.443  0.7439  1.6174  0.3355
 3595TIP3   OH232275   5.847   1.330  13.223 -0.2257 -0.2132  0.2543
 3595TIP3    H132276   5.888   1.278  13.154  0.1327 -0.1755  0.4373
 3595TIP3    H232277   5.756   1.299  13.226  0.1296 -1.2384  0.7592
 3596TIP3   OH232278   3.625   1.227  12.320  0.3172 -0.7438  0.5099
 3596TIP3    H132279   3.654   1.141  12.349  2.9783 -0.2845 -0.5472
 3596TIP3    H232280   3.638   1.227  12.225 -1.0222  0.3388  0.2926
 3597TIP3   OH232281   0.887   6.145   0.271 -0.0842  0.8937  0.4970
 3597TIP3    H132282   0.896   6.071   0.211 -0.6982  1.2791 -0.0800
 3597TIP3    H232283   0.949   6.210   0.239 -0.2349  1.0055  0.4347
 3598TIP3   OH232284   4.860   4.577  12.153  0.0143 -0.0684  0.6105
 3598TIP3    H132285   4.823   4.534  12.076 -0.3904  0.6931  0.3745
 3598TIP3    H232286   4.890   4.505  12.208  0.1430 -0.6281 -0.1743
 3599TIP3   OH232287   0.515   0.605   5.203  0.1048  0.8837 -0.3417
 3599TIP3    H132288   0.610   0.607   5.210  0.1173 -1.1709  1.1777
 3599TIP3    H232289   0.489   0.697   5.202  2.0609  1.4833 -0.1473
 3600TIP3   OH232290   0.194   3.445   2.834  0.6380  0.4055 -0.0978
 3600TIP3    H132291   0.208   3.392   2.756  1.6850  1.0918 -0.4081
 3600TIP3    H232292   0.145   3.521   2.804  0.1117  0.1639  0.1309
 3601TIP3   OH232293   6.787   4.195   0.158  0.0983 -0.0039 -0.4088
 3601TIP3    H132294   6.807   4.288   0.151  1.9735 -0.4527 -1.7864
 3601TIP3    H232295   6.867   4.156   0.193 -0.0662 -1.2693 -1.3553
 3602TIP3   OH232296   3.110   4.412  14.542 -0.1411  0.0468  0.4191
 3602TIP3    H132297   3.185   4.357  14.520 -0.8446 -1.0474  0.7100
 3602TIP3    H232298   3.091   4.393  14.634 -0.9342  0.1188  0.2801
 3603TIP3   OH232299   5.188   6.435   5.340 -0.0987 -0.4707  0.0323
 3603TIP3    H132300   5.109   6.437   5.394 -0.3306  1.3074 -0.3080
 3603TIP3    H232301   5.255   6.397   5.397 -0.4157  1.0330  1.4648
 3604TIP3   OH232302   4.832   6.813  13.995  0.3356  0.0596  0.3651
 3604TIP3    H132303   4.819   6.732  14.044 -0.4057  1.0050  1.8176
 3604TIP3    H232304   4.785   6.879  14.047  1.1217  1.4491 -0.6556
 3605TIP3   OH232305   5.588   0.541   4.760 -0.0317  0.8044 -0.8019
 3605TIP3    H132306   5.597   0.465   4.703 -0.3567 -1.2958  1.7724
 3605TIP3    H232307   5.495   0.549   4.776 -0.1764  2.7578 -2.1728
 3606TIP3   OH232308   1.779   3.465   4.661 -0.0670 -0.1173 -0.1639
 3606TIP3    H132309   1.806   3.375   4.643  0.6765  0.2216 -0.7990
 3606TIP3    H232310   1.684   3.460   4.673  0.2647 -1.4578  2.7448
 3607TIP3   OH232311   0.478   2.753  17.178 -0.1432 -0.1785 -0.8675
 3607TIP3    H132312   0.491   2.725  17.088 -1.6268 -0.0359 -1.1523
 3607TIP3    H232313   0.476   2.849  17.174 -1.7760 -0.1882 -0.9590
 3608TIP3   OH232314   2.594   1.747  14.119 -0.3921  0.1139  0.3699
 3608TIP3    H132315   2.674   1.778  14.076  0.1755 -0.0646  1.2823
 3608TIP3    H232316   2.566   1.672  14.066 -0.0288  0.2475 -0.0227
 3609TIP3   OH232317   4.402   5.144  13.974 -0.2245 -0.1488  0.1744
 3609TIP3    H132318   4.448   5.110  13.897 -0.3816  0.1784 -0.0703
 3609TIP3    H232319   4.343   5.074  14.000  0.2925 -0.5139  0.3960
 3610TIP3   OH232320   5.294   4.713   3.295  0.2388 -0.6053 -0.1127
 3610TIP3    H132321   5.289   4.807   3.280  0.7151 -0.7757 -1.4449
 3610TIP3    H232322   5.203   4.685   3.304  0.1255  0.1394  1.5587
 3611TIP3   OH232323   6.062   5.139   5.506 -0.3851  0.4927 -0.3729
 3611TIP3    H132324   6.031   5.162   5.593  0.3556 -1.6688  0.5294
 3611TIP3    H232325   6.157   5.147   5.512 -0.3158  0.1145 -0.9310
 3612TIP3   OH232326   5.067   1.891   0.586 -0.3251 -0.9016  0.6140
 3612TIP3    H132327   5.011   1.834   0.639 -2.9989  1.0191  0.0380
 3612TIP3    H232328   5.045   1.980   0.614  0.3402  0.0562 -1.6457
 3613TIP3   OH232329   1.087   3.680   5.169  0.1622 -0.2632  0.0796
 3613TIP3    H132330   1.165   3.691   5.223  2.0241 -1.7558 -2.1258
 3613TIP3    H232331   1.015   3.671   5.232  2.0968 -1.2712  2.2837
 3614TIP3   OH232332   4.778   2.191   1.322  0.2473  0.1947 -0.0325
 3614TIP3    H132333   4.745   2.260   1.264 -1.2216 -0.9582 -0.6459
 3614TIP3    H232334   4.825   2.237   1.391 -0.3412  1.7778 -0.6523
 3615TIP3   OH232335   3.259   6.390  13.334 -0.0737 -0.5445  0.6791
 3615TIP3    H132336   3.224   6.322  13.277  1.0157 -1.9268  1.5918
 3615TIP3    H232337   3.225   6.472  13.297 -0.6361 -1.4919 -1.0290
 3616TIP3   OH232338   0.808   2.855  11.065 -0.4596  0.2354 -0.3671
 3616TIP3    H132339   0.780   2.940  11.098 -0.7278  0.0478 -0.1115
 3616TIP3    H232340   0.900   2.867  11.044  0.2079 -0.1204  2.0797
 3617TIP3   OH232341   3.719   3.092   4.979 -0.5089  0.3206 -0.0097
 3617TIP3    H132342   3.726   3.187   4.985  1.5108  0.2953 -1.0942
 3617TIP3    H232343   3.625   3.075   4.973 -0.9016  2.2448  0.1169
 3618TIP3   OH232344   1.709   4.489  17.279 -0.0444  0.2100 -0.2890
 3618TIP3    H132345   1.654   4.450  17.211  0.1009  0.2560 -0.4341
 3618TIP3    H232346   1.684   4.582  17.278 -0.8195  0.0223  0.4598
 3619TIP3   OH232347   6.313   0.497  16.700 -0.3012 -0.2892  0.1557
 3619TIP3    H132348   6.351   0.412  16.676  0.1841 -0.4151  1.2998
 3619TIP3    H232349   6.374   0.533  16.764 -0.3495  1.0722 -0.5418
 3620TIP3   OH232350   2.447   3.706  11.808 -0.3576  0.0487  0.4607
 3620TIP3    H132351   2.422   3.715  11.900 -0.2762  0.9704  0.3939
 3620TIP3    H232352   2.510   3.776  11.793 -0.1692 -0.2608 -0.2326
 3621TIP3   OH232353   4.219   2.421   0.641 -0.4603 -0.3085  0.0087
 3621TIP3    H132354   4.148   2.371   0.681 -0.4309 -1.4498 -1.2920
 3621TIP3    H232355   4.265   2.357   0.587  1.4521  0.4398  0.6548
 3622TIP3   OH232356   5.432   6.035  14.054  0.0264 -0.1485  0.2804
 3622TIP3    H132357   5.483   5.990  14.121 -1.2392 -0.7412  0.8894
 3622TIP3    H232358   5.397   6.113  14.098  1.0234  0.6901 -0.3595
 3623TIP3   OH232359   1.194   0.432  15.534 -0.3100 -0.2364 -0.5565
 3623TIP3    H132360   1.182   0.347  15.492 -0.5095  0.8204 -2.7900
 3623TIP3    H232361   1.283   0.459  15.509 -0.6294  0.6591 -0.7699
 3624TIP3   OH232362   2.229   0.238  15.805  0.6697 -0.2772 -0.1195
 3624TIP3    H132363   2.177   0.294  15.862  1.6106  1.2104 -0.6630
 3624TIP3    H232364   2.303   0.210  15.860  0.3777 -0.7203  0.0511
 3625TIP3   OH232365   4.499   3.416   2.993 -0.4560 -0.5497 -0.3752
 3625TIP3    H132366   4.562   3.480   2.960  0.2300  0.1441  2.0630
 3625TIP3    H232367   4.489   3.353   2.922  0.7515  0.9015 -1.9197
 3626TIP3   OH232368   6.502   2.180  11.406 -0.5262  0.2984  0.3842
 3626TIP3    H132369   6.483   2.088  11.425 -0.5365  0.3451  0.5922
 3626TIP3    H232370   6.431   2.207  11.346 -0.4359  0.1285  0.1987
 3627TIP3   OH232371   5.909   5.933   3.530  0.4177  0.0922 -0.6069
 3627TIP3    H132372   5.894   5.847   3.568  3.3742 -1.4357 -2.5777
 3627TIP3    H232373   5.937   5.987   3.604 -0.7222 -0.8037  0.5222
 3628TIP3   OH232374   0.418   1.552  15.744 -0.0908 -0.1793  0.6118
 3628TIP3    H132375   0.352   1.564  15.812  0.3070  0.4269  0.9032
 3628TIP3    H232376   0.440   1.641  15.716  0.0332 -0.4089 -0.0355
 3629TIP3   OH232377   4.201   3.685  17.139 -0.2115  0.7253  0.0149
 3629TIP3    H132378   4.126   3.744  17.148 -0.6701 -0.0019  1.2088
 3629TIP3    H232379   4.171   3.617  17.078 -0.1042  1.0516 -0.4097
 3630TIP3   OH232380   2.238   5.301  11.439 -0.3546 -0.2560  0.6239
 3630TIP3    H132381   2.256   5.387  11.478 -2.1145  0.5090 -0.0887
 3630TIP3    H232382   2.252   5.315  11.345  3.0894 -1.8575  0.7675
 3631TIP3   OH232383   4.854   5.754   5.449 -0.1086 -0.5078  0.5221
 3631TIP3    H132384   4.799   5.676   5.447 -1.0560  0.1429 -0.7594
 3631TIP3    H232385   4.828   5.800   5.528  0.1840 -1.2804  1.0860
 3632TIP3   OH232386   0.886   4.637  16.801 -0.3861  0.2226 -0.0923
 3632TIP3    H132387   0.953   4.635  16.869 -0.6402 -0.9107  0.1423
 3632TIP3    H232388   0.831   4.561  16.819 -2.1006  1.4353  0.0761
 3633TIP3   OH232389   0.156   3.895   2.543  0.3183 -0.3762 -0.3000
 3633TIP3    H132390   0.122   3.984   2.543 -1.5375 -1.0185 -1.3234
 3633TIP3    H232391   0.244   3.903   2.504  0.0202  0.9448 -0.7601
 3634TIP3   OH232392   1.244   3.002   4.198 -0.4573  0.1780 -0.3225
 3634TIP3    H132393   1.306   2.937   4.165  0.1626  1.3659 -1.6056
 3634TIP3    H232394   1.171   2.951   4.233  0.6347 -1.2130 -0.0242
 3635TIP3   OH232395   2.279   3.068   3.181 -0.2153  0.2930  0.1639
 3635TIP3    H132396   2.340   3.038   3.114 -1.7079 -0.5515 -0.8773
 3635TIP3    H232397   2.302   3.019   3.259  0.7872  0.4106 -0.0488
 3636TIP3   OH232398   4.417   2.415   1.403  0.0665  0.9504  0.3035
 3636TIP3    H132399   4.343   2.355   1.408 -0.2250  1.0561 -1.8231
 3636TIP3    H232400   4.483   2.377   1.461 -0.6607 -0.6124  0.1598
 3637TIP3   OH232401   0.274   1.517  15.305 -0.7310 -0.0063  0.4094
 3637TIP3    H132402   0.202   1.454  15.298 -0.6867 -0.2304  1.7167
 3637TIP3    H232403   0.258   1.563  15.387 -0.6123  1.5385 -0.3883
 3638TIP3   OH232404   2.709   4.432   1.049 -0.6328  0.5331 -0.3729
 3638TIP3    H132405   2.687   4.480   1.129 -1.2113 -1.5898  0.8296
 3638TIP3    H232406   2.741   4.348   1.080 -0.2472 -0.1099 -2.3913
 3639TIP3   OH232407   3.486   5.650   1.069 -0.3261 -0.4547  0.0675
 3639TIP3    H132408   3.493   5.723   1.131 -0.2101 -0.9702  0.6759
 3639TIP3    H232409   3.438   5.687   0.994 -0.2047  0.2611  0.3308
 3640TIP3   OH232410   3.956   2.699  13.445 -0.1269 -0.0890  0.4579
 3640TIP3    H132411   3.974   2.684  13.353 -1.4108 -0.2993  0.2148
 3640TIP3    H232412   3.888   2.635  13.467 -1.0667  1.0820  1.0835
 3641TIP3   OH232413   1.498   2.305  12.599  0.5134 -0.4148  0.3912
 3641TIP3    H132414   1.502   2.224  12.651  0.8466 -0.5255  0.1944
 3641TIP3    H232415   1.440   2.283  12.526  0.0793 -0.2727  0.6875
 3642TIP3   OH232416   4.163   5.017  13.704 -0.1239 -0.0951  0.2990
 3642TIP3    H132417   4.121   4.955  13.645  1.0661  0.2299 -0.9253
 3642TIP3    H232418   4.257   4.999  13.696  0.0869  0.2445  1.7750
 3643TIP3   OH232419   4.148   4.317   2.074 -0.4773 -0.2785 -0.4558
 3643TIP3    H132420   4.207   4.373   2.125  0.2590 -1.9621  0.6408
 3643TIP3    H232421   4.069   4.312   2.126  0.3931 -2.2618  0.7717
 3644TIP3   OH232422   4.442   1.550   0.309  0.1761  0.2509 -0.5688
 3644TIP3    H132423   4.481   1.473   0.349  0.4569  0.4946 -0.3764
 3644TIP3    H232424   4.398   1.517   0.230  2.3410  0.2339 -1.8407
 3645TIP3   OH232425   3.376   1.151  14.952 -0.6154  0.3495 -0.5468
 3645TIP3    H132426   3.351   1.217  15.017  0.8123  1.6887 -1.3004
 3645TIP3    H232427   3.382   1.069  15.003 -1.1328  1.0393  0.6684
 3646TIP3   OH232428   6.604   4.249  16.693  0.2013  0.3938  0.0620
 3646TIP3    H132429   6.657   4.326  16.671  0.0879  0.4011 -0.1796
 3646TIP3    H232430   6.595   4.201  16.611  3.2667 -1.8019  0.8192
 3647TIP3   OH232431   3.425   1.700  16.750 -0.8648 -0.1191 -0.2670
 3647TIP3    H132432   3.428   1.727  16.841 -0.9227 -1.1271  0.0438
 3647TIP3    H232433   3.401   1.607  16.753  0.6911 -0.6062 -1.2130
 3648TIP3   OH232434   6.406   5.849   1.763 -0.4907 -0.5835  0.6743
 3648TIP3    H132435   6.425   5.921   1.822 -0.7262 -0.6780  0.8670
 3648TIP3    H232436   6.314   5.860   1.740  0.0129  0.4185 -1.0032
 3649TIP3   OH232437   3.320   0.897   5.959  0.4838 -0.3255  0.4595
 3649TIP3    H132438   3.342   0.820   6.010  3.2338  0.6636  0.9416
 3649TIP3    H232439   3.389   0.903   5.893 -0.5243  0.8972 -0.5546
 3650TIP3   OH232440   2.686   6.600  15.341 -0.2846  0.2819  0.5283
 3650TIP3    H132441   2.781   6.610  15.345 -0.3441  0.8537  0.5610
 3650TIP3    H232442   2.665   6.608  15.248 -0.0617 -2.2149  0.1948
 3651TIP3   OH232443   2.624   5.504   6.247  0.0787  0.0180  0.5564
 3651TIP3    H132444   2.716   5.525   6.258  1.0041 -3.1711 -0.3481
 3651TIP3    H232445   2.590   5.496   6.336  0.7994  0.5641  0.8879
 3652TIP3   OH232446   0.024   4.583  12.304  0.0735  0.3464  0.6773
 3652TIP3    H132447   0.102   4.598  12.250 -1.0275 -1.3932 -1.5618
 3652TIP3    H232448   0.054   4.596  12.394  2.5147  1.3553 -0.2018
 3653TIP3   OH232449   6.280   3.592  16.052 -0.0066 -0.6886  0.1289
 3653TIP3    H132450   6.219   3.522  16.076 -1.1780  0.7516  1.5999
 3653TIP3    H232451   6.326   3.558  15.975 -1.2682 -2.6272  0.1435
 3654TIP3   OH232452   0.541   3.378  11.987  0.5266  0.1567 -0.0447
 3654TIP3    H132453   0.606   3.308  11.974  0.7412 -0.0003  1.6263
 3654TIP3    H232454   0.499   3.355  12.070 -0.8338  0.9240 -0.5036
 3655TIP3   OH232455   4.610   6.053   4.957 -0.7797  0.0432  0.1347
 3655TIP3    H132456   4.654   6.021   4.879  0.3734  2.3989 -0.2502
 3655TIP3    H232457   4.623   6.148   4.956 -1.5934  0.2654  2.6646
 3656TIP3   OH232458   6.293   3.657  13.671 -0.4008 -0.9639  0.2764
 3656TIP3    H132459   6.327   3.741  13.699  0.3473 -1.3642  0.5802
 3656TIP3    H232460   6.289   3.664  13.575 -2.6505  0.2765  0.3777
 3657TIP3   OH232461   6.167   3.046  12.557 -0.3698  0.0436 -0.2953
 3657TIP3    H132462   6.091   2.988  12.553  0.3049 -0.8692 -0.0014
 3657TIP3    H232463   6.234   2.996  12.604  0.3887  0.8673 -0.4740
 3658TIP3   OH232464   5.649   6.660  10.779  0.3637 -0.1221  0.0622
 3658TIP3    H132465   5.584   6.679  10.712  0.1479  1.1533  0.6013
 3658TIP3    H232466   5.607   6.594  10.835  1.0057 -2.1175 -1.6648
 3659TIP3   OH232467   4.624   4.934  11.519 -0.3125  0.7163 -0.1220
 3659TIP3    H132468   4.564   4.870  11.559  0.2592  0.7966  0.8996
 3659TIP3    H232469   4.579   5.018  11.530 -0.7573  0.5878 -0.8616
 3660TIP3   OH232470   0.860   6.718  11.747  0.6745 -0.1526  0.0217
 3660TIP3    H132471   0.806   6.787  11.708  1.8674  0.3699 -0.7486
 3660TIP3    H232472   0.927   6.764  11.797  1.2604 -0.7481 -0.1984
 3661TIP3   OH232473   1.941   5.362  12.802 -0.0467  0.2089 -0.2963
 3661TIP3    H132474   1.946   5.447  12.844 -1.1988  0.2970 -0.3009
 3661TIP3    H232475   1.922   5.382  12.710 -0.5066 -0.0536 -0.2595
 3662TIP3   OH232476   0.759   5.631  12.221  0.1624 -0.4840  0.3449
 3662TIP3    H132477   0.831   5.637  12.157 -0.7944  0.0067 -0.7085
 3662TIP3    H232478   0.745   5.537  12.232  0.0798 -0.5722 -0.4780
 3663TIP3   OH232479   2.364   6.707   6.216  0.2383  0.2284  0.1863
 3663TIP3    H132480   2.310   6.718   6.294  0.0197  1.2502 -0.0964
 3663TIP3    H232481   2.316   6.644   6.163  0.4713 -0.6069  0.9368
 3664TIP3   OH232482   4.553   2.645   2.995  0.0176  0.1528  0.7591
 3664TIP3    H132483   4.541   2.618   2.904  2.4169 -1.2215  0.7780
 3664TIP3    H232484   4.576   2.738   2.990 -1.1457  0.4253  0.1054
 3665TIP3   OH232485   5.992   1.974   4.622  0.0800 -0.4197 -0.3383
 3665TIP3    H132486   6.046   1.943   4.695  0.6666 -1.0884 -1.0355
 3665TIP3    H232487   5.985   2.069   4.636  0.4891 -0.4872  0.3777
 3666TIP3   OH232488   6.373   4.407   4.106  0.1896 -0.4311  0.4617
 3666TIP3    H132489   6.422   4.324   4.102  0.1073 -0.4943  0.7605
 3666TIP3    H232490   6.296   4.391   4.053  0.3479 -0.4307  0.2305
 3667TIP3   OH232491   1.058   5.862   5.055 -0.5130 -0.3005  0.5800
 3667TIP3    H132492   0.998   5.807   5.106 -0.3982  1.0829  2.3039
 3667TIP3    H232493   1.125   5.889   5.118  0.1511  0.7460 -0.5347
 3668TIP3   OH232494   0.934   1.497  12.190  0.3550  0.5673 -0.3071
 3668TIP3    H132495   0.962   1.564  12.252 -0.2408 -0.1874  0.8191
 3668TIP3    H232496   0.850   1.466  12.224  0.8337 -1.0616 -0.5117
 3669TIP3   OH232497   1.396   2.513  14.137 -0.0450 -0.3229  0.5904
 3669TIP3    H132498   1.378   2.435  14.084  0.0046 -0.3522  0.6167
 3669TIP3    H232499   1.451   2.481  14.208 -2.2447 -0.8045  2.1629
 3670TIP3   OH232500   4.627   0.630  16.150  0.0545 -0.2014 -0.3789
 3670TIP3    H132501   4.683   0.575  16.204  2.3499  3.3431  1.2074
 3670TIP3    H232502   4.539   0.616  16.183  0.6800 -2.1474  0.5631
 3671TIP3   OH232503   2.189   5.915   5.995 -0.1852 -0.1196  0.7607
 3671TIP3    H132504   2.107   5.931   6.042 -1.1356  1.7119 -1.3539
 3671TIP3    H232505   2.169   5.933   5.903  2.8158  1.5390  0.2754
 3672TIP3   OH232506   4.893   5.926   2.334  0.2869  0.5607  0.1610
 3672TIP3    H132507   4.832   5.871   2.382  1.7778 -1.3781 -0.0228
 3672TIP3    H232508   4.913   5.876   2.255  1.5791  1.4391 -0.1007
 3673TIP3   OH232509   6.811   2.682   3.397 -0.3915 -0.1304 -0.1062
 3673TIP3    H132510   6.819   2.756   3.458  2.9520  0.2541 -0.7779
 3673TIP3    H232511   6.764   2.717   3.322  1.9244  1.7335 -0.8179
 3674TIP3   OH232512   1.317   2.004  11.463 -0.0860  0.2759 -0.3033
 3674TIP3    H132513   1.316   2.008  11.559 -2.4663 -0.3202 -0.2404
 3674TIP3    H232514   1.400   1.962  11.441  1.2466  1.8492  1.3790
 3675TIP3   OH232515   6.234   5.087   2.832 -0.2416  0.1104  0.3112
 3675TIP3    H132516   6.217   5.136   2.751  1.3047  1.0583  0.5173
 3675TIP3    H232517   6.305   5.027   2.810 -0.3242 -0.1652  0.7770
 3676TIP3   OH232518   1.387   6.798  14.978  0.2636  0.4833  0.5798
 3676TIP3    H132519   1.350   6.710  14.986  3.5187 -1.0456  0.4369
 3676TIP3    H232520   1.398   6.811  14.883  2.4152 -0.2402  0.6871
 3677TIP3   OH232521   3.399   2.414  15.389 -0.0540 -0.5544 -0.4951
 3677TIP3    H132522   3.430   2.495  15.430  0.9721 -1.0528 -0.2367
 3677TIP3    H232523   3.351   2.369  15.458 -1.4231  0.2388 -0.9042
 3678TIP3   OH232524   5.799   2.521  12.163 -0.6208 -0.0204  0.3242
 3678TIP3    H132525   5.787   2.449  12.224 -1.6868  0.6143  0.8975
 3678TIP3    H232526   5.835   2.481  12.083 -4.9876 -1.9384 -0.9518
 3679TIP3   OH232527   0.946   3.680  15.681  0.0210 -0.2009 -0.3227
 3679TIP3    H132528   0.977   3.738  15.611  0.2484  0.1249  0.0430
 3679TIP3    H232529   0.851   3.680  15.671 -0.0449  0.8730  0.1567
 3680TIP3   OH232530   1.101   6.086   3.063 -0.2088 -0.2426  0.1046
 3680TIP3    H132531   1.190   6.115   3.044 -0.0743  0.4943  1.6865
 3680TIP3    H232532   1.083   6.118   3.151 -1.4316 -1.8382  0.5019
 3681TIP3   OH232533   4.891   4.656   2.484 -0.1537 -0.0333  0.1036
 3681TIP3    H132534   4.927   4.573   2.514  1.5490  1.0345  1.2077
 3681TIP3    H232535   4.872   4.642   2.392  0.9232 -1.3849  0.0559
 3682TIP3   OH232536   5.043   6.452  16.569  0.4353  0.3546  0.1620
 3682TIP3    H132537   5.052   6.375  16.626  1.5940 -0.2043 -0.7288
 3682TIP3    H232538   4.990   6.513  16.620  0.7726 -0.4362  1.5241
 3683TIP3   OH232539   5.781   0.220   2.848 -0.1927 -0.2691 -0.2845
 3683TIP3    H132540   5.784   0.293   2.909  2.8435 -0.6469  0.1539
 3683TIP3    H232541   5.709   0.165   2.879 -0.5220  0.9605  1.2185
 3684TIP3   OH232542   6.665   3.180   0.802  0.7528 -0.3263  0.2189
 3684TIP3    H132543   6.650   3.131   0.882 -1.4314  0.8341  0.6014
 3684TIP3    H232544   6.724   3.251   0.828  0.3037 -0.1393  0.7655
 3685TIP3   OH232545   5.286   0.874   0.987 -0.1941 -0.4834  0.2235
 3685TIP3    H132546   5.362   0.832   0.946 -0.3867  0.3521 -1.0641
 3685TIP3    H232547   5.314   0.892   1.076  1.6732  1.0443 -0.5923
 3686TIP3   OH232548   6.814   2.430  12.693  0.3506  0.5004 -0.3085
 3686TIP3    H132549   6.782   2.448  12.782  1.3096  0.9752 -0.0533
 3686TIP3    H232550   6.838   2.515  12.658  0.1653  0.2919 -0.9648
 3687TIP3   OH232551   1.410   0.223   3.481  0.7257  0.1587  0.2820
 3687TIP3    H132552   1.446   0.149   3.432 -0.4555  0.1655 -0.6584
 3687TIP3    H232553   1.320   0.196   3.501 -0.0429  1.6669 -0.8983
 3688TIP3   OH232554   5.836   5.985  11.296  0.5361 -0.2321 -0.4845
 3688TIP3    H132555   5.764   5.999  11.358 -0.1610  0.1504 -1.3503
 3688TIP3    H232556   5.859   5.892  11.306 -1.1595 -0.7878 -1.2893
 3689TIP3   OH232557   1.046   2.858   4.556 -0.4117 -0.0831  0.0059
 3689TIP3    H132558   1.079   2.802   4.627 -0.5816  0.9084  0.8879
 3689TIP3    H232559   1.045   2.946   4.593 -0.9031  0.4007 -1.1041
 3690TIP3   OH232560   0.065   5.086   5.519 -0.3433  0.3398 -0.2460
 3690TIP3    H132561   0.122   5.010   5.510 -2.2854 -1.1800 -0.1788
 3690TIP3    H232562   0.106   5.138   5.589  1.7990  0.1588 -1.2754
 3691TIP3   OH232563   0.136   6.000  13.667  0.8257  0.0937  0.1747
 3691TIP3    H132564   0.074   6.022  13.736 -0.0447  0.6298 -0.7391
 3691TIP3    H232565   0.174   5.916  13.693  0.3591  0.1869  1.1763
 3692TIP3   OH232566   3.211   4.457  15.792 -0.5738 -0.0967 -0.7454
 3692TIP3    H132567   3.277   4.522  15.770 -0.4038 -0.3627 -1.0325
 3692TIP3    H232568   3.216   4.392  15.722 -1.0130 -0.2159 -0.6738
 3693TIP3   OH232569   5.359   6.043   1.754 -0.0484  0.3448  0.1109
 3693TIP3    H132570   5.417   6.057   1.680  0.6907  2.7556  1.0723
 3693TIP3    H232571   5.410   5.988   1.814  0.0587 -0.0753 -0.3595
 3694TIP3   OH232572   0.687   6.298   0.801  0.0527  0.2224 -0.1828
 3694TIP3    H132573   0.762   6.242   0.820 -0.9514 -0.8063  0.9365
 3694TIP3    H232574   0.671   6.345   0.883 -1.0673 -0.2579 -0.1056
 3695TIP3   OH232575   1.593   0.862  14.387 -0.3884 -0.1194  0.7049
 3695TIP3    H132576   1.650   0.822  14.322 -1.8971 -0.0967 -0.7094
 3695TIP3    H232577   1.591   0.800  14.459 -0.0134 -0.9820 -0.0102
 3696TIP3   OH232578   2.437   1.226   2.278 -0.0861 -0.2400  0.4139
 3696TIP3    H132579   2.343   1.242   2.270 -0.2725 -1.6471 -0.4459
 3696TIP3    H232580   2.455   1.155   2.217  2.1126  1.9740 -1.7867
 3697TIP3   OH232581   3.146   0.647  12.794 -0.1269  0.3145  0.2903
 3697TIP3    H132582   3.132   0.559  12.761 -2.9433  0.9547 -0.5247
 3697TIP3    H232583   3.106   0.647  12.881 -1.3147  1.0661 -0.2276
 3698TIP3   OH232584   6.386   3.376   2.695  0.3574  0.2358  0.5285
 3698TIP3    H132585   6.412   3.462   2.662  3.0248 -0.2347  1.1503
 3698TIP3    H232586   6.414   3.377   2.787 -1.4524 -0.5989  1.1276
 3699TIP3   OH232587   3.624   2.308  13.450  0.4063 -0.3348  0.9008
 3699TIP3    H132588   3.559   2.295  13.519 -1.7891  0.0964 -0.9486
 3699TIP3    H232589   3.665   2.222  13.439 -0.8813 -1.0106  1.1780
 3700TIP3   OH232590   4.735   4.024  16.368  0.3484 -0.5634 -0.2136
 3700TIP3    H132591   4.804   4.057  16.310 -0.3666  0.9852 -0.2298
 3700TIP3    H232592   4.778   3.956  16.420  1.5170 -0.6038 -1.1891
 3701TIP3   OH232593   4.592   6.731  12.617  0.2652 -0.4135 -0.1103
 3701TIP3    H132594   4.625   6.801  12.560 -0.7152  0.4910  0.3972
 3701TIP3    H232595   4.546   6.777  12.687 -1.4113 -1.5862 -0.3699
 3702TIP3   OH232596   4.985   0.433  13.997 -0.1580 -0.4416  0.0588
 3702TIP3    H132597   5.000   0.508  13.939 -1.1004  0.1853  0.5915
 3702TIP3    H232598   5.071   0.395  14.010  0.1961 -0.0465 -1.0163
 3703TIP3   OH232599   4.341   0.450   2.575  0.0786  0.1403  0.3873
 3703TIP3    H132600   4.269   0.394   2.545  0.4866  0.1730 -0.6767
 3703TIP3    H232601   4.339   0.526   2.516  0.8935  0.2137  0.4486
 3704TIP3   OH232602   5.772   5.703   2.937  0.1829  0.6393 -0.2130
 3704TIP3    H132603   5.764   5.641   2.865 -1.0546  0.6790 -0.1297
 3704TIP3    H232604   5.824   5.657   3.003  0.3309  0.1650 -0.6600
 3705TIP3   OH232605   1.575   3.010   4.263  0.0757 -0.6912  0.2222
 3705TIP3    H132606   1.536   2.967   4.187  0.7835  0.8553 -1.0735
 3705TIP3    H232607   1.623   2.941   4.308 -0.9963 -1.8004 -0.2843
 3706TIP3   OH232608   6.288   0.844   3.446 -0.3140 -0.3510  0.4039
 3706TIP3    H132609   6.260   0.843   3.354 -0.4310 -0.2549  0.4386
 3706TIP3    H232610   6.214   0.809   3.494 -0.6048  0.4501  0.5579
 3707TIP3   OH232611   2.788   1.585   5.680  0.2400 -0.4541  0.1668
 3707TIP3    H132612   2.883   1.578   5.679  0.6486  3.0424 -2.1320
 3707TIP3    H232613   2.768   1.635   5.759  0.2965 -0.9212  0.4836
 3708TIP3   OH232614   6.009   2.841   2.593 -0.4868 -0.2022 -0.7837
 3708TIP3    H132615   6.017   2.786   2.514  3.7553 -0.2976 -0.4903
 3708TIP3    H232616   5.962   2.786   2.655 -0.8269 -1.4941 -2.1173
 3709TIP3   OH232617   3.874   0.375  11.558  0.7436  0.2763 -0.1136
 3709TIP3    H132618   3.819   0.325  11.619 -0.3966  1.5458 -0.0519
 3709TIP3    H232619   3.816   0.396  11.485  1.5997  0.3117 -0.7948
 3710TIP3   OH232620   1.903   3.590  14.436 -0.5314  0.5414  0.1751
 3710TIP3    H132621   1.861   3.520  14.386  1.2933 -0.5354  0.0773
 3710TIP3    H232622   1.865   3.583  14.524  0.7752 -1.6990  0.6365
 3711TIP3   OH232623   1.885   4.721  15.424  0.8126  0.1805  0.3778
 3711TIP3    H132624   1.949   4.687  15.487  1.5554  0.5742 -0.1452
 3711TIP3    H232625   1.809   4.745  15.477  0.8990 -0.7478  0.9572
 3712TIP3   OH232626   3.705   5.652   3.962  0.2759 -0.1280  0.5721
 3712TIP3    H132627   3.684   5.670   4.054 -0.2438 -1.3337  0.7104
 3712TIP3    H232628   3.632   5.599   3.931  1.0242 -0.7312 -0.2024
 3713TIP3   OH232629   5.297   3.664  16.145  0.4033  0.3460  0.2365
 3713TIP3    H132630   5.228   3.616  16.190 -1.8355  2.3824 -0.8054
 3713TIP3    H232631   5.263   3.753  16.136  3.1857  1.4507 -0.3758
 3714TIP3   OH232632   2.125   4.578  14.854 -0.0273  0.0039 -0.1130
 3714TIP3    H132633   2.044   4.621  14.827 -0.1491  0.3212  0.7259
 3714TIP3    H232634   2.104   4.485  14.854 -0.0527 -0.0051 -0.9726
 3715TIP3   OH232635   4.290   4.864  15.995 -0.0456 -0.1974 -0.3664
 3715TIP3    H132636   4.360   4.889  16.056 -0.1639 -1.4961  0.3293
 3715TIP3    H232637   4.336   4.840  15.914  0.3781 -1.4626  0.2267
 3716TIP3   OH232638   4.155   4.142  16.319 -0.0993 -0.1729 -0.6900
 3716TIP3    H132639   4.084   4.086  16.352  0.1909 -0.6652 -0.8800
 3716TIP3    H232640   4.186   4.096  16.240 -0.5413  0.7935 -1.4527
 3717TIP3   OH232641   5.754   6.354   0.363  0.2537  0.1825 -0.2002
 3717TIP3    H132642   5.703   6.364   0.283  1.0047  0.8699 -0.6175
 3717TIP3    H232643   5.791   6.266   0.358  0.4997  0.3143 -0.7374
 3718TIP3   OH232644   6.571   3.428  14.943  0.1176  0.0046  0.1713
 3718TIP3    H132645   6.619   3.387  14.871  0.9222  0.8063  0.2368
 3718TIP3    H232646   6.629   3.498  14.975 -0.5691  0.1918  1.0651
 3719TIP3   OH232647   5.455   5.242   3.002  0.3916 -0.1333  0.6202
 3719TIP3    H132648   5.377   5.287   3.035 -0.2722  0.9295 -2.0736
 3719TIP3    H232649   5.428   5.151   2.993 -0.4907  0.1767 -0.0441
 3720TIP3   OH232650   1.609   3.333  10.919 -0.1922  0.0125 -0.3270
 3720TIP3    H132651   1.656   3.414  10.937 -0.3311  0.6020 -2.4384
 3720TIP3    H232652   1.607   3.326  10.824 -1.8197 -1.5200 -0.2363
 3721TIP3   OH232653   5.984   2.458   3.634  0.1292  0.4267  0.0561
 3721TIP3    H132654   6.032   2.380   3.606  0.1014  0.2988  0.3605
 3721TIP3    H232655   5.909   2.462   3.575 -0.2182 -0.1429  0.4430
 3722TIP3   OH232656   5.792   1.542  13.565  1.2422  0.5544  0.0436
 3722TIP3    H132657   5.742   1.468  13.532  1.1747 -0.0566  1.4507
 3722TIP3    H232658   5.765   1.616  13.510 -0.2711 -0.0193 -0.0252
 3723TIP3   OH232659   1.575   4.443  14.305  0.1537 -0.2800  0.1972
 3723TIP3    H132660   1.610   4.504  14.370  1.8045 -1.3972  0.4490
 3723TIP3    H232661   1.488   4.420  14.338  0.7516 -0.4319  1.7858
 3724TIP3   OH232662   2.317   0.685  14.286  0.1852  0.0367 -0.5174
 3724TIP3    H132663   2.401   0.728  14.300 -0.2043  0.8852 -0.7450
 3724TIP3    H232664   2.318   0.658  14.194 -0.1728  0.8969 -0.7772
 3725TIP3   OH232665   3.666   2.526   5.165 -0.4001 -0.1363 -0.0537
 3725TIP3    H132666   3.761   2.530   5.174 -0.3848 -0.6393  0.0548
 3725TIP3    H232667   3.638   2.617   5.159 -0.0113  0.0615  0.9847
 3726TIP3   OH232668   6.146   4.215   3.563 -0.3320 -0.1376 -0.2474
 3726TIP3    H132669   6.240   4.205   3.580 -0.0525  0.8048 -1.1876
 3726TIP3    H232670   6.129   4.308   3.576 -1.3307 -0.4462  0.7847
 3727TIP3   OH232671   2.773   4.846   3.268 -0.6227 -0.2192 -0.0995
 3727TIP3    H132672   2.781   4.900   3.190 -0.4549 -1.9877 -1.3643
 3727TIP3    H232673   2.822   4.893   3.335  1.0975  0.2960 -1.6461
 3728TIP3   OH232674   0.225   3.980  11.101 -0.0084  0.5928  0.0997
 3728TIP3    H132675   0.230   3.924  11.023 -2.2479  0.5461 -0.1005
 3728TIP3    H232676   0.176   3.928  11.164 -0.5052  1.6218  0.5751
 3729TIP3   OH232677   1.663   4.521  15.864  0.6374 -0.1772 -0.5645
 3729TIP3    H132678   1.712   4.600  15.887  0.3244  0.4284 -1.8491
 3729TIP3    H232679   1.648   4.476  15.947 -1.4483  2.4259  0.6137
 3730TIP3   OH232680   2.724   2.001  12.340  0.3314 -0.1983 -0.0669
 3730TIP3    H132681   2.633   2.021  12.319 -0.1840 -1.3762  0.9339
 3730TIP3    H232682   2.737   2.039  12.428  1.0617  0.6593 -0.5301
 3731TIP3   OH232683   1.588   6.783   4.388 -0.1962  0.0441  0.0250
 3731TIP3    H132684   1.492   6.785   4.388 -0.2174 -0.6650  0.1769
 3731TIP3    H232685   1.613   6.832   4.311 -0.6992 -0.1485 -0.2675
 3732TIP3   OH232686   6.652   5.620   4.055  0.2170  0.8798 -0.2272
 3732TIP3    H132687   6.735   5.663   4.033  0.9223 -0.3425 -0.0129
 3732TIP3    H232688   6.599   5.630   3.976  1.7515 -1.1217 -1.6051
 3733TIP3   OH232689   0.284   0.906  12.732 -0.5638 -0.5264  0.2155
 3733TIP3    H132690   0.263   0.999  12.725 -2.3987 -0.7386  1.9615
 3733TIP3    H232691   0.373   0.904  12.767 -0.5053  0.5698  0.1570
 3734TIP3   OH232692   4.085   6.658   0.207  0.2106 -0.4530 -0.0878
 3734TIP3    H132693   3.990   6.658   0.209  0.1369  2.5546 -0.1353
 3734TIP3    H232694   4.111   6.624   0.292 -0.9703  1.2116  0.9793
 3735TIP3   OH232695   4.707   5.660  11.953 -0.0613  0.6032  0.1525
 3735TIP3    H132696   4.751   5.610  11.885 -0.1123 -0.4829  0.9032
 3735TIP3    H232697   4.615   5.636  11.945 -0.2735  1.4885 -0.2357
 3736TIP3   OH232698   3.468   4.610  12.037 -0.2205  0.8132  0.4573
 3736TIP3    H132699   3.512   4.643  11.959  0.7629 -0.6160  0.3654
 3736TIP3    H232700   3.392   4.561  12.004  0.2087  0.1883  0.3654
 3737TIP3   OH232701   2.032   0.196   0.841 -0.2401 -0.2838 -0.2069
 3737TIP3    H132702   1.968   0.136   0.879  0.5138 -1.3592 -0.5865
 3737TIP3    H232703   2.065   0.150   0.764  0.2278  0.7031 -0.6105
 3738TIP3   OH232704   1.553   6.430  14.252  0.3827 -0.6009  0.0238
 3738TIP3    H132705   1.501   6.481  14.314  1.2231 -1.6931  1.6980
 3738TIP3    H232706   1.488   6.382  14.201 -0.3101 -0.5875  0.8696
 3739TIP3   OH232707   4.219   5.945   0.157 -0.0376  0.3334  0.1549
 3739TIP3    H132708   4.258   6.028   0.130  0.0578  0.8849  1.8798
 3739TIP3    H232709   4.128   5.951   0.126  0.0222  1.0056  0.0787
 3740TIP3   OH232710   1.955   1.988  15.357  0.5780 -0.0596  0.6795
 3740TIP3    H132711   1.863   2.006  15.338  0.8026  0.6499  0.2026
 3740TIP3    H232712   1.954   1.939  15.439 -0.2723 -0.8699  0.1959
 3741TIP3   OH232713   3.035   4.993   6.758 -0.3468 -0.5549  0.1033
 3741TIP3    H132714   2.991   4.967   6.839 -2.1695 -0.0954 -0.6910
 3741TIP3    H232715   2.964   5.015   6.698  1.0007  1.6986 -0.7803
 3742TIP3   OH232716   4.983   4.102  13.065 -0.0091 -0.3476 -0.3618
 3742TIP3    H132717   4.994   4.021  13.116 -1.0675 -0.6299 -0.5579
 3742TIP3    H232718   5.044   4.092  12.992 -1.1046 -1.6379 -1.1556
 3743TIP3   OH232719   4.735   4.279  11.714 -0.3780 -0.0253  0.4139
 3743TIP3    H132720   4.672   4.251  11.648  0.9660  0.9771 -1.3967
 3743TIP3    H232721   4.817   4.289  11.666 -0.1155  4.3526  1.3439
 3744TIP3   OH232722   0.490   5.101  16.921  1.0163  0.0039 -0.9062
 3744TIP3    H132723   0.546   5.144  16.857  2.6637  0.7601  0.9077
 3744TIP3    H232724   0.546   5.090  16.998 -1.4991  1.4141  1.3012
 3745TIP3   OH232725   3.379   1.238  13.197  0.0269  0.3436 -0.4371
 3745TIP3    H132726   3.420   1.321  13.173  0.0897  0.3783 -0.2122
 3745TIP3    H232727   3.285   1.258  13.197 -0.0137  0.1954 -1.2138
 3746TIP3   OH232728   5.803   1.378  12.285  0.5594 -0.5847  0.1718
 3746TIP3    H132729   5.766   1.338  12.364  0.1081 -0.1268  0.1987
 3746TIP3    H232730   5.824   1.304  12.228  0.4525 -0.8966  0.5328
 3747TIP3   OH232731   2.686   1.004  11.884  0.3453  0.4172 -0.3324
 3747TIP3    H132732   2.596   0.986  11.856  0.1314 -1.7244  1.4621
 3747TIP3    H232733   2.739   0.992  11.805 -0.9545  2.9412 -1.7393
 3748TIP3   OH232734   1.308   1.322  16.506  0.3527 -0.4304  0.5408
 3748TIP3    H132735   1.286   1.397  16.561 -0.9808 -0.1382 -0.3646
 3748TIP3    H232736   1.277   1.246  16.556  1.6607 -0.4056  1.4332
 3749TIP3   OH232737   1.464   6.177   0.443  0.2577 -0.3364  0.3391
 3749TIP3    H132738   1.551   6.194   0.409  0.1453  2.0248  1.0663
 3749TIP3    H232739   1.471   6.092   0.486  1.5789 -1.2312 -1.5300
 3750TIP3   OH232740   5.428   1.106  15.230 -0.4301  0.2346 -0.3136
 3750TIP3    H132741   5.340   1.124  15.198  0.1225 -0.1461 -2.1809
 3750TIP3    H232742   5.472   1.191  15.227 -0.5690  0.3260  0.1212
 3751TIP3   OH232743   3.956   2.875  14.856  0.0124 -0.6826  0.3034
 3751TIP3    H132744   4.019   2.816  14.815  1.1001  0.7310 -0.1340
 3751TIP3    H232745   3.902   2.907  14.783  0.3961 -0.0050  0.3110
 3752TIP3   OH232746   6.247   2.509  11.467  0.0773  0.2230  0.0368
 3752TIP3    H132747   6.199   2.481  11.545  1.9096 -1.1495  0.7376
 3752TIP3    H232748   6.179   2.516  11.399 -1.7226  2.3155  1.8700
 3753TIP3   OH232749   2.938   6.181   4.798  0.5466 -0.2969  0.3813
 3753TIP3    H132750   2.906   6.223   4.878 -1.0069 -0.7933  0.0607
 3753TIP3    H232751   2.859   6.163   4.747  1.5738  0.9823 -1.7807
 3754TIP3   OH232752   5.983   6.403  14.829 -0.8642 -0.1427 -0.2368
 3754TIP3    H132753   6.019   6.330  14.879 -0.3814 -0.0475 -0.4425
 3754TIP3    H232754   5.917   6.442  14.886 -1.0702 -0.6944 -0.0998
 3755TIP3   OH232755   5.419   2.900   1.780  0.1102 -0.1785  0.8520
 3755TIP3    H132756   5.365   2.929   1.854  2.5020  0.4469  2.4457
 3755TIP3    H232757   5.479   2.972   1.764  0.8275 -1.0381 -0.5383
 3756TIP3   OH232758   3.873   2.106   1.033 -0.0344  0.4254  0.6849
 3756TIP3    H132759   3.810   2.174   1.054 -0.0210  0.1148  1.8128
 3756TIP3    H232760   3.932   2.103   1.109 -0.1126 -0.9167  0.7286
 3757TIP3   OH232761   0.590   4.001   6.167 -0.4891 -0.4179  0.1435
 3757TIP3    H132762   0.668   4.051   6.191 -0.2642 -0.8335  0.3036
 3757TIP3    H232763   0.603   3.916   6.210 -0.5228 -0.8574 -0.7117
 3758TIP3   OH232764   3.189   4.551  11.872  0.1398  0.4492  0.5367
 3758TIP3    H132765   3.137   4.618  11.916 -1.0594 -0.3359  0.3604
 3758TIP3    H232766   3.175   4.471  11.923 -0.2038 -0.1591 -0.4772
 3759TIP3   OH232767   5.299   6.301  11.475 -0.2180 -0.1853 -0.1494
 3759TIP3    H132768   5.251   6.223  11.503  0.6579 -0.3393  0.9840
 3759TIP3    H232769   5.387   6.289  11.511 -0.1796  1.5358  0.3937
 3760TIP3   OH232770   2.781   1.141   2.462 -0.6726  0.0960 -0.4902
 3760TIP3    H132771   2.723   1.207   2.501 -0.4875  1.4456 -2.3494
 3760TIP3    H232772   2.829   1.189   2.395  1.8460 -1.2393  0.2335
 3761TIP3   OH232773   2.258   4.753  15.855 -0.1174 -0.2320  0.1003
 3761TIP3    H132774   2.309   4.751  15.774  1.5551 -0.8992  1.1243
 3761TIP3    H232775   2.189   4.688  15.841  0.2859 -0.5096 -0.6874
 3762TIP3   OH232776   5.230   1.585  13.718 -0.5789 -0.4558 -0.0267
 3762TIP3    H132777   5.311   1.633  13.702 -0.2447 -0.4463  1.5361
 3762TIP3    H232778   5.210   1.543  13.634  1.5623 -1.2259 -0.2177
 3763TIP3   OH232779   3.721   4.334  12.243  0.2775 -0.6741 -0.0590
 3763TIP3    H132780   3.627   4.347  12.248  0.2200 -0.7755 -0.7110
 3763TIP3    H232781   3.748   4.311  12.332  0.2318  2.6298  0.9402
 3764TIP3   OH232782   6.383   0.967  15.846  0.4169  0.0035  0.3057
 3764TIP3    H132783   6.405   0.978  15.754  0.0067 -0.0088  0.2048
 3764TIP3    H232784   6.356   0.875  15.853  1.1356 -0.1894  0.5818
 3765TIP3   OH232785   5.551   2.712  15.284 -0.5720 -0.0850 -0.5325
 3765TIP3    H132786   5.619   2.668  15.335  0.6318 -0.2974 -2.2212
 3765TIP3    H232787   5.561   2.804  15.306  0.0732 -0.1509 -0.5230
 3766TIP3   OH232788   1.394   1.517  11.405  0.1455  0.5309  0.4211
 3766TIP3    H132789   1.411   1.564  11.323  2.7683  0.9534  1.1012
 3766TIP3    H232790   1.380   1.426  11.378  2.2286  0.4195 -0.4896
 3767TIP3   OH232791   3.840   4.606  14.850 -0.0106  0.3775 -0.1314
 3767TIP3    H132792   3.841   4.518  14.812  1.1562  0.6610 -0.8204
 3767TIP3    H232793   3.756   4.612  14.895 -0.5979 -0.6876 -1.0279
 3768TIP3   OH232794   5.619   4.152   0.993 -0.0742 -0.2506  0.7955
 3768TIP3    H132795   5.545   4.151   0.932  1.2517  0.6000 -0.9053
 3768TIP3    H232796   5.597   4.220   1.056 -0.6164  0.2113  0.1217
 3769TIP3   OH232797   3.010   2.088  13.452 -0.0082 -0.0326  0.1210
 3769TIP3    H132798   2.987   2.171  13.410  1.2659  0.6223  0.6517
 3769TIP3    H232799   2.946   2.026  13.419 -1.3738  1.2908  0.1586
 3770TIP3   OH232800   5.424   0.935  14.378 -0.3445  0.2554 -0.0736
 3770TIP3    H132801   5.331   0.924  14.396  0.0927 -1.7873  1.2900
 3770TIP3    H232802   5.427   0.973  14.290 -2.4490  0.7462  0.0178
 3771TIP3   OH232803   1.926   1.678  10.585 -0.1145 -0.3440  0.0591
 3771TIP3    H132804   1.961   1.661  10.498  0.8663 -0.6822  0.5095
 3771TIP3    H232805   1.992   1.734  10.627 -0.4142 -0.4679  0.7072
 3772TIP3   OH232806   2.740   5.636   4.287  0.2888 -0.3976  0.5047
 3772TIP3    H132807   2.652   5.643   4.322 -0.7518 -1.8615 -1.5822
 3772TIP3    H232808   2.747   5.710   4.226  1.4142  1.0553  2.2797
 3773TIP3   OH232809   4.436   1.964  13.418 -0.4463  0.2782 -0.1600
 3773TIP3    H132810   4.529   1.984  13.426 -0.7123  2.0435 -0.9683
 3773TIP3    H232811   4.393   2.025  13.479 -1.0926 -0.3437  0.0202
 3774TIP3   OH232812   1.391   4.075   3.124 -0.4848  0.2774 -0.1093
 3774TIP3    H132813   1.377   4.110   3.211 -2.2107 -0.9892  0.1736
 3774TIP3    H232814   1.413   3.982   3.138 -0.6214  0.0937 -1.0092
 3775TIP3   OH232815   2.441   4.965   1.134 -0.3046 -0.0286  0.3438
 3775TIP3    H132816   2.391   5.046   1.119  1.0362  0.3733 -2.4631
 3775TIP3    H232817   2.533   4.992   1.129  0.2000 -1.4847  1.0968
 3776TIP3   OH232818   4.566   1.075  16.841 -0.4295  0.0445  0.1131
 3776TIP3    H132819   4.626   1.009  16.876 -1.7302 -1.1713  0.1660
 3776TIP3    H232820   4.608   1.158  16.858  1.5342 -0.7892 -0.4232
 3777TIP3   OH232821   3.943   4.121  17.089  0.3552 -0.0710 -1.1266
 3777TIP3    H132822   3.961   4.209  17.055  0.4221 -0.0607 -1.0643
 3777TIP3    H232823   3.850   4.107  17.072  0.2673  0.1482 -0.8163
 3778TIP3   OH232824   3.353   4.133   3.709  0.0449  0.3802  0.0457
 3778TIP3    H132825   3.355   4.044   3.745  0.0635  0.5986  0.6017
 3778TIP3    H232826   3.423   4.134   3.643  1.5479  0.6124  1.5697
 3779TIP3   OH232827   4.867   5.197   1.662 -0.6038  0.2276  0.3440
 3779TIP3    H132828   4.848   5.277   1.710  1.0686  0.0939  1.2891
 3779TIP3    H232829   4.878   5.225   1.571 -2.6291  0.6546  0.1915
 3780TIP3   OH232830   3.283   2.818   5.764 -0.2452 -0.9296  0.7341
 3780TIP3    H132831   3.280   2.753   5.834  1.2034 -1.4712  0.3260
 3780TIP3    H232832   3.199   2.864   5.770  0.0181 -0.6135  3.1461
 3781TIP3   OH232833   3.685   2.877   4.668  0.0150  0.4385 -0.6712
 3781TIP3    H132834   3.666   2.971   4.671  2.1193  0.9056  0.2101
 3781TIP3    H232835   3.680   2.849   4.760  0.0899 -0.1476 -0.8428
 3782TIP3   OH232836   1.110   3.530   1.467  0.2707 -0.3407  0.0282
 3782TIP3    H132837   1.081   3.621   1.460  0.3626 -0.3265 -0.1637
 3782TIP3    H232838   1.030   3.478   1.462  0.3818 -0.3828 -1.9815
 3783TIP3   OH232839   6.687   5.880   2.787  0.0307 -0.1563  0.4572
 3783TIP3    H132840   6.681   5.854   2.695  1.8848 -1.7100  0.6975
 3783TIP3    H232841   6.769   5.931   2.792 -1.8934  3.2518  0.6319
 3784TIP3   OH232842   0.155   3.789   6.070 -0.4214 -0.1819 -0.5660
 3784TIP3    H132843   0.138   3.788   6.164 -1.1601 -0.1206 -0.6902
 3784TIP3    H232844   0.119   3.706   6.038 -0.2735 -0.1537 -0.8129
 3785TIP3   OH232845   4.089   1.490   6.007  0.3520  0.1754  0.3551
 3785TIP3    H132846   4.051   1.514   6.092  0.2384  1.2965 -0.0023
 3785TIP3    H232847   4.148   1.562   5.986  0.6433 -0.2648 -0.3600
 3786TIP3   OH232848   4.093   1.171  15.291 -0.1993 -0.1963  0.2619
 3786TIP3    H132849   4.188   1.157  15.292 -0.3530 -1.2791  0.3767
 3786TIP3    H232850   4.071   1.177  15.198  0.4872  4.0041  0.1723
 3787TIP3   OH232851   3.747   2.752  16.685 -0.3028 -0.0270 -0.5172
 3787TIP3    H132852   3.735   2.845  16.665 -1.1898 -0.1083 -0.3958
 3787TIP3    H232853   3.690   2.736  16.760  0.8489 -0.3805  0.3082
 3788TIP3   OH232854   0.227   0.100   2.097 -0.1028 -0.1569 -0.1587
 3788TIP3    H132855   0.273   0.018   2.081 -1.2252 -0.8709  0.1986
 3788TIP3    H232856   0.139   0.074   2.124 -0.5699  1.1675 -0.3269
 3789TIP3   OH232857   5.983   2.444  11.780  0.0257  0.3609 -0.5235
 3789TIP3    H132858   5.963   2.537  11.790 -1.5127 -0.1090  1.1430
 3789TIP3    H232859   6.078   2.439  11.792  0.7363  2.0660 -3.9645
 3790TIP3   OH232860   5.321   5.428   4.927  0.6750  0.1255 -0.0860
 3790TIP3    H132861   5.234   5.450   4.894  0.3593 -0.9675 -0.0328
 3790TIP3    H232862   5.306   5.353   4.984  1.6621 -0.0964 -0.1070
 3791TIP3   OH232863   3.894   6.340   5.571 -0.5357 -0.3355  0.5528
 3791TIP3    H132864   3.827   6.371   5.510 -0.8385 -1.2383  0.4032
 3791TIP3    H232865   3.858   6.357   5.657 -1.3441 -1.5367  0.4819
 3792TIP3   OH232866   6.707   1.427  14.063 -0.5399  0.4250 -0.0470
 3792TIP3    H132867   6.647   1.353  14.069 -0.6867  0.4640 -0.8803
 3792TIP3    H232868   6.793   1.386  14.051 -0.6769  0.3807 -0.9516
 3793TIP3   OH232869   3.098   4.726   5.557  0.6159 -0.5312  0.6634
 3793TIP3    H132870   3.099   4.631   5.557 -0.1222 -0.5443  0.9099
 3793TIP3    H232871   3.009   4.750   5.584  0.5592  0.2264 -0.1361
 3794TIP3   OH232872   6.636   4.022   5.283  0.0015  0.7154  0.4014
 3794TIP3    H132873   6.559   3.988   5.330  0.3842  0.9123  1.1837
 3794TIP3    H232874   6.608   4.026   5.192  0.4319 -3.2518 -0.0963
 3795TIP3   OH232875   3.150   0.913  13.029 -0.0697  0.3009 -0.5302
 3795TIP3    H132876   3.201   0.993  13.041  0.5483  0.0850 -1.6139
 3795TIP3    H232877   3.086   0.914  13.101  0.4483  1.3566 -0.0706
 3796TIP3   OH232878   4.755   1.193   4.077  0.3128  0.2542  0.3444
 3796TIP3    H132879   4.760   1.227   3.988 -0.9030 -1.7428 -0.5555
 3796TIP3    H232880   4.678   1.137   4.077  1.4777 -1.4693  2.0626
 3797TIP3   OH232881   3.579   5.623  11.140  0.0578  0.1048  0.5563
 3797TIP3    H132882   3.562   5.651  11.050 -0.2007  1.0048  0.8684
 3797TIP3    H232883   3.666   5.659  11.160  1.9010 -3.3103 -0.5699
 3798TIP3   OH232884   0.124   3.391  15.164  0.1333 -0.1048 -0.1091
 3798TIP3    H132885   0.162   3.369  15.079 -1.8391  0.3749 -1.1632
 3798TIP3    H232886   0.064   3.320  15.183 -3.0261  1.9663 -1.4797
 3799TIP3   OH232887   4.502   4.123   2.815  0.2640 -0.1482 -0.0539
 3799TIP3    H132888   4.583   4.111   2.865  1.4146  0.7286 -1.5842
 3799TIP3    H232889   4.453   4.189   2.863  0.5405 -0.5692  0.8137
 3800TIP3   OH232890   0.953   2.087   0.992  0.6885  0.1805  0.4476
 3800TIP3    H132891   0.882   2.131   0.945  0.1284  0.3142  1.4068
 3800TIP3    H232892   0.936   1.994   0.979  0.0347  0.1989  1.0894
 3801TIP3   OH232893   5.576   4.792   1.211 -0.4714 -0.0203 -0.0345
 3801TIP3    H132894   5.574   4.887   1.203 -0.0334  0.0193  0.3221
 3801TIP3    H232895   5.638   4.775   1.282 -0.9530 -0.5512  0.2662
 3802TIP3   OH232896   2.836   0.229  13.154 -0.0365 -0.6077 -0.4179
 3802TIP3    H132897   2.765   0.223  13.091 -0.2662  1.3693 -0.3969
 3802TIP3    H232898   2.802   0.286  13.223  1.7271  0.8425 -0.6815
 3803TIP3   OH232899   5.828   5.343   1.110  0.1560 -0.5523 -0.4067
 3803TIP3    H132900   5.748   5.394   1.100  0.4287  0.0533  0.3928
 3803TIP3    H232901   5.863   5.370   1.195  1.3592 -0.6033 -0.8734
 3804TIP3   OH232902   0.763   5.875   1.363  0.0618 -0.5400  0.2015
 3804TIP3    H132903   0.816   5.881   1.443  1.7687  0.2013 -0.9235
 3804TIP3    H232904   0.806   5.806   1.312 -0.9952 -0.9877 -0.0978
 3805TIP3   OH232905   1.257   1.912   0.299  0.3803  0.7451  0.9395
 3805TIP3    H132906   1.322   1.913   0.229  0.8326 -0.1635  1.3241
 3805TIP3    H232907   1.267   1.826   0.340 -1.9601  0.0403  0.1760
 3806TIP3   OH232908   6.293   0.946   5.880  0.1932  0.3977 -0.0617
 3806TIP3    H132909   6.274   0.989   5.963 -1.1971 -0.5538  0.1506
 3806TIP3    H232910   6.206   0.927   5.843  0.7718 -0.8717 -0.8344
 3807TIP3   OH232911   0.959   5.887   2.591  0.2304 -0.0117  0.0820
 3807TIP3    H132912   1.004   5.952   2.645  0.1274 -0.5331  0.8021
 3807TIP3    H232913   1.014   5.879   2.513  0.3572  0.7782  0.0827
 3808TIP3   OH232914   6.467   0.416  16.944 -0.7266 -0.2606 -0.1370
 3808TIP3    H132915   6.546   0.364  16.935 -0.0304  0.9861 -1.7956
 3808TIP3    H232916   6.499   0.505  16.960 -1.7938  0.1677 -0.3070
 3809TIP3   OH232917   3.414   1.893   3.978  0.3344 -0.1622  0.2999
 3809TIP3    H132918   3.474   1.830   4.018 -0.1916 -1.2138 -0.4952
 3809TIP3    H232919   3.470   1.964   3.947  1.3086 -1.4882 -1.1171
 3810TIP3   OH232920   5.889   4.084  13.945  0.2159  0.2676  0.3083
 3810TIP3    H132921   5.879   4.088  14.040  1.3986  3.3206  0.4262
 3810TIP3    H232922   5.983   4.074  13.930  0.2498  1.4592 -0.4767
 3811TIP3   OH232923   3.205   5.285   4.667  0.1866 -0.5282  0.5929
 3811TIP3    H132924   3.180   5.196   4.694 -2.8388  0.2608  0.7682
 3811TIP3    H232925   3.191   5.338   4.746  1.1180  0.2582  0.2477
 3812TIP3   OH232926   4.197   3.256   3.197 -0.0126  0.0159 -0.5802
 3812TIP3    H132927   4.105   3.248   3.221  0.2500 -1.0559  0.1156
 3812TIP3    H232928   4.207   3.348   3.173 -1.3650  0.0404 -1.1282
 3813TIP3   OH232929   3.804   3.000  12.317  0.2279 -0.3517 -0.7910
 3813TIP3    H132930   3.893   3.025  12.342 -0.1306 -0.6017  0.8692
 3813TIP3    H232931   3.766   2.965  12.398 -1.7812  0.8590 -1.1547
 3814TIP3   OH232932   0.012   2.171  15.987  0.1567  1.0501  0.2608
 3814TIP3    H132933   0.097   2.175  15.945 -0.8015  0.2961 -1.8901
 3814TIP3    H232934  -0.006   2.078  15.999  0.5237  1.2293  2.7457
 3815TIP3   OH232935   2.872   2.443   2.523  0.2777 -0.4126  0.0948
 3815TIP3    H132936   2.792   2.473   2.565  0.9920  0.8032  0.6427
 3815TIP3    H232937   2.906   2.520   2.477  1.5946 -0.6485  0.6247
 3816TIP3   OH232938   4.026   0.407  17.221 -0.1850 -0.6766 -0.8696
 3816TIP3    H132939   4.010   0.501  17.209  0.1409 -0.2543  1.5091
 3816TIP3    H232940   3.948   0.365  17.185 -1.4916  0.6877  0.2184
 3817TIP3   OH232941   5.642   3.858   4.404  0.2624 -0.6546  0.8010
 3817TIP3    H132942   5.599   3.930   4.356  1.0166 -0.6018  0.1893
 3817TIP3    H232943   5.629   3.880   4.496 -2.1441 -1.3020  0.6753
 3818TIP3   OH232944   3.452   3.133  15.729 -0.4462  0.1940  0.0794
 3818TIP3    H132945   3.409   3.202  15.779  1.3183  1.9614 -0.6697
 3818TIP3    H232946   3.390   3.111  15.659 -0.9321  1.2713  0.1542
 3819TIP3   OH232947   4.647   4.447  16.788  0.5233  0.2362 -0.6049
 3819TIP3    H132948   4.590   4.384  16.745  1.7027 -1.2950 -0.0006
 3819TIP3    H232949   4.708   4.475  16.720 -0.0396  0.7915 -0.8874
 3820TIP3   OH232950   1.745   0.353   0.274 -0.0486  0.0236  0.0787
 3820TIP3    H132951   1.679   0.298   0.234 -1.1156  0.0500  1.7101
 3820TIP3    H232952   1.725   0.352   0.368  1.6747  0.8146  0.5177
 3821TIP3   OH232953   5.855   1.415   4.006  0.2588 -0.1859  0.2761
 3821TIP3    H132954   5.946   1.433   4.031  0.8996 -0.8202 -1.5029
 3821TIP3    H232955   5.831   1.338   4.058  1.4909 -1.3602 -0.8182
 3822TIP3   OH232956   4.299   6.575   4.434 -0.3793 -0.5654  0.2987
 3822TIP3    H132957   4.245   6.539   4.504 -0.7520 -0.2460  0.1834
 3822TIP3    H232958   4.245   6.644   4.396 -0.9987 -2.0138 -1.5853
 3823TIP3   OH232959   3.451   6.036  15.747  0.4765 -0.1399  0.2117
 3823TIP3    H132960   3.421   6.091  15.674  1.3311  0.9477  0.6560
 3823TIP3    H232961   3.405   6.071  15.824  1.9506  0.7952  0.7039
 3824TIP3   OH232962   2.128   2.542   0.266 -0.0710  0.1843 -0.1010
 3824TIP3    H132963   2.174   2.460   0.283 -0.4029 -0.1857 -0.9581
 3824TIP3    H232964   2.125   2.585   0.351  2.0063  0.2989 -0.0217
 3825TIP3   OH232965   1.059   5.591   0.288  0.1504  0.1016 -0.3124
 3825TIP3    H132966   1.082   5.676   0.327  1.7072 -0.4198 -0.0611
 3825TIP3    H232967   1.043   5.612   0.195 -0.0873  0.7685 -0.1311
 3826TIP3   OH232968   4.412   5.029   1.183  0.2290 -0.0294 -1.0282
 3826TIP3    H132969   4.423   5.086   1.107 -0.0819  0.1345 -0.9494
 3826TIP3    H232970   4.409   4.941   1.145  0.2938  0.0352 -1.1857
 3827TIP3   OH232971   2.623   0.573   3.048  0.4284 -0.3183  0.4358
 3827TIP3    H132972   2.641   0.562   2.954  0.0566  0.8114  0.2172
 3827TIP3    H232973   2.635   0.485   3.085  0.9750 -0.7018 -0.5974
 3828TIP3   OH232974   4.067   1.697   5.016  0.1784  0.0944 -0.4043
 3828TIP3    H132975   4.035   1.631   4.955  1.6563 -1.6947  0.6506
 3828TIP3    H232976   4.024   1.676   5.099  1.1582  0.0304  0.1001
 3829TIP3   OH232977   5.686   6.265   5.139 -0.0181 -0.3579  0.2020
 3829TIP3    H132978   5.638   6.346   5.156  0.1875 -0.5786  2.0912
 3829TIP3    H232979   5.714   6.272   5.048  0.1315  1.7801  0.3525
 3830TIP3   OH232980   3.715   3.466  12.471 -0.5793  0.2250 -0.0873
 3830TIP3    H132981   3.670   3.550  12.479  0.1140  0.5720  0.3617
 3830TIP3    H232982   3.674   3.423  12.397 -1.4046  0.6750  0.0994
 3831TIP3   OH232983   5.720   6.673  12.716  0.4289  0.4221  0.1162
 3831TIP3    H132984   5.625   6.670  12.711  0.2496 -1.0221  2.6180
 3831TIP3    H232985   5.749   6.585  12.693  0.9059  0.0533  1.9491
 3832TIP3   OH232986   1.342   2.834  12.619 -0.1957  0.7049 -0.5331
 3832TIP3    H132987   1.269   2.818  12.677 -0.4353  2.1944 -0.3981
 3832TIP3    H232988   1.358   2.928  12.624  0.1849  0.7914 -2.3751
 3833TIP3   OH232989   3.180   3.919   0.741 -0.2025  0.7317  0.3139
 3833TIP3    H132990   3.149   4.009   0.732  0.7305  1.0565  0.2277
 3833TIP3    H232991   3.101   3.868   0.760 -0.6400  1.6855  1.1388
 3834TIP3   OH232992   1.522   5.122  16.411 -0.2822  0.1377 -0.3616
 3834TIP3    H132993   1.596   5.093  16.358 -0.6149 -0.5652 -0.4460
 3834TIP3    H232994   1.467   5.045  16.419 -0.2773  0.2582  0.9506
 3835TIP3   OH232995   2.769   2.759  11.658  0.2644 -0.2689  0.1619
 3835TIP3    H132996   2.784   2.769  11.564 -1.3938 -1.7797 -0.3397
 3835TIP3    H232997   2.769   2.848  11.692  0.9597  0.3127 -1.2531
 3836TIP3   OH232998   0.846   4.457   1.585 -0.0736 -0.0165  0.4899
 3836TIP3    H132999   0.872   4.542   1.550  0.6701 -1.8453 -3.9190
 3836TIP3    H233000   0.769   4.433   1.535 -1.2335 -1.3895  2.7501
 3837TIP3   OH233001   5.046   0.454  17.032  0.3733 -0.2042  0.3378
 3837TIP3    H133002   5.136   0.425  17.017  0.5599  0.7869 -0.6204
 3837TIP3    H233003   5.054   0.543  17.066 -0.2287 -0.4409  1.1198
 3838TIP3   OH233004   0.372   3.354  13.083  0.0891 -0.4925  0.2521
 3838TIP3    H133005   0.296   3.383  13.033 -0.6759 -0.8480  1.1771
 3838TIP3    H233006   0.380   3.417  13.154  0.8608 -0.2844 -0.0058
 3839TIP3   OH233007   4.921   3.328  14.265  0.5733 -0.2794 -0.2781
 3839TIP3    H133008   4.916   3.422  14.281  0.8861 -0.6805  2.8097
 3839TIP3    H233009   5.015   3.310  14.255  0.7886 -0.5344  1.7639
 3840TIP3   OH233010   0.516   0.843   5.042  0.2270 -0.4052  0.3089
 3840TIP3    H133011   0.520   0.931   5.006  0.4167  0.2552  1.8431
 3840TIP3    H233012   0.563   0.789   4.979 -0.4775  0.4567 -0.9887
 3841TIP3   OH233013   6.034   1.454  14.483  0.0157 -0.0289  0.6073
 3841TIP3    H133014   6.082   1.437  14.402 -1.6151  0.0662 -0.4042
 3841TIP3    H233015   6.055   1.379  14.539  2.1931  0.5463  0.6431
 3842TIP3   OH233016   1.887   4.442   2.344  0.2957  0.4654  0.2385
 3842TIP3    H133017   1.824   4.395   2.288  0.0149 -0.1252  1.0308
 3842TIP3    H233018   1.845   4.526   2.361  0.3318  0.6032 -0.3406
 3843TIP3   OH233019   3.671   3.844  13.344 -0.1579 -0.4046 -0.2983
 3843TIP3    H133020   3.719   3.792  13.279  0.9836 -1.2811  1.1990
 3843TIP3    H233021   3.613   3.781  13.387  0.2132 -0.1583  0.5712
 3844TIP3   OH233022   3.232   2.997  15.134  0.2962  0.1361  0.5690
 3844TIP3    H133023   3.139   3.004  15.110 -0.2169  1.6038  2.6985
 3844TIP3    H233024   3.243   2.905  15.160  0.2819 -0.8657 -2.5553
 3845TIP3   OH233025   5.372   5.178   5.565  0.2185 -0.1706 -0.3042
 3845TIP3    H133026   5.382   5.272   5.582 -0.6694 -0.1641  0.2360
 3845TIP3    H233027   5.338   5.143   5.647 -2.7669 -0.3964 -1.5429
 3846TIP3   OH233028   0.371   6.686   0.255 -0.0531 -0.1170  0.2556
 3846TIP3    H133029   0.304   6.629   0.216 -1.1802  1.0185  0.4536
 3846TIP3    H233030   0.426   6.627   0.306  0.1174 -1.3251 -1.2505
 3847TIP3   OH233031   4.238   2.857  11.380 -0.2346  0.2185  0.2360
 3847TIP3    H133032   4.268   2.934  11.331 -0.2490  0.7422  1.0317
 3847TIP3    H233033   4.180   2.893  11.447 -0.9171 -0.5793  0.0876
 3848TIP3   OH233034   5.359   4.969  11.799  0.2064  0.3518 -0.4490
 3848TIP3    H133035   5.285   5.013  11.842  0.2611  0.0858 -0.0769
 3848TIP3    H233036   5.437   5.006  11.840  0.2296 -1.8591  1.6931
 3849TIP3   OH233037   1.340   4.651  16.949 -0.5317 -0.9884  0.3279
 3849TIP3    H133038   1.360   4.557  16.949  0.4420 -0.8294  2.2387
 3849TIP3    H233039   1.407   4.689  16.892 -0.5236 -1.3697  0.0742
 3850TIP3   OH233040   0.886   4.130  13.797 -0.5703  0.1733  0.0236
 3850TIP3    H133041   0.812   4.100  13.744  0.2892  0.8578 -1.6274
 3850TIP3    H233042   0.903   4.219  13.766  0.6498  0.1982  0.7133
 3851TIP3   OH233043   6.502   6.760  15.594 -0.2160  0.2813 -0.7064
 3851TIP3    H133044   6.529   6.719  15.512 -1.3205 -2.8209  0.3507
 3851TIP3    H233045   6.584   6.789  15.634  0.4378  0.7929 -2.3548
 3852TIP3   OH233046   5.827   0.287  12.317 -0.2331 -0.3868  0.7923
 3852TIP3    H133047   5.858   0.324  12.399 -0.3908  1.1684  0.1845
 3852TIP3    H233048   5.737   0.320  12.308 -1.1013 -2.5128  1.1446
 3853TIP3   OH233049   4.401   5.396  11.384  0.3043 -0.3975 -0.8228
 3853TIP3    H133050   4.478   5.433  11.342  1.5055 -0.7028  0.9921
 3853TIP3    H233051   4.348   5.473  11.408  1.9403  0.1691  1.3478
 3854TIP3   OH233052   1.574   4.074   4.024 -0.2795  0.0826  0.9243
 3854TIP3    H133053   1.570   4.122   3.942  0.1352 -1.0083  0.2450
 3854TIP3    H233054   1.628   3.997   4.005 -1.3450 -0.9381  1.8280
 3855TIP3   OH233055   3.554   5.804  16.047  0.2104  0.3130  0.0945
 3855TIP3    H133056   3.563   5.741  16.120 -0.3901 -0.5705 -0.5688
 3855TIP3    H233057   3.592   5.758  15.972  0.7383  1.1838 -0.1831
 3856TIP3   OH233058   1.068   2.964  13.055  0.2219 -0.3238 -0.8966
 3856TIP3    H133059   1.083   3.043  13.108  1.9293 -0.8363 -0.5587
 3856TIP3    H233060   1.089   2.891  13.114  0.4665 -0.9602 -1.7513
 3857TIP3   OH233061   5.010   2.995  16.538 -0.1173 -0.2970  0.1502
 3857TIP3    H133062   5.023   3.078  16.583  0.9321 -0.2367 -0.2468
 3857TIP3    H233063   5.065   3.002  16.459  1.3055 -2.0161  0.9460
 3858TIP3   OH233064   1.607   2.920   0.307 -0.0261 -0.1647  0.5400
 3858TIP3    H133065   1.545   2.916   0.380  0.1475  1.1853  0.7900
 3858TIP3    H233066   1.617   3.013   0.289  0.7778 -0.4278 -0.4991
 3859TIP3   OH233067   0.239   1.198   0.771  0.4835  0.2154  0.4567
 3859TIP3    H133068   0.223   1.189   0.677 -1.0531 -1.4285  0.8241
 3859TIP3    H233069   0.165   1.154   0.812  0.4622  1.9838  2.4704
 3860TIP3   OH233070   5.179   3.852   4.928  0.1041 -0.2306 -0.6967
 3860TIP3    H133071   5.142   3.812   4.849 -0.2766  0.2089 -0.7469
 3860TIP3    H233072   5.193   3.943   4.904 -0.7294  0.0880 -0.0207
 3861TIP3   OH233073   0.620   3.062  11.447 -0.0481 -0.1761  0.0337
 3861TIP3    H133074   0.585   2.974  11.430 -1.6808  0.6043 -0.8680
 3861TIP3    H233075   0.543   3.118  11.451  0.9907  1.2848  0.2860
 3862TIP3   OH233076   5.434   1.408   3.341 -0.2595 -0.3490  0.0128
 3862TIP3    H133077   5.501   1.343   3.363  1.3781  1.0408 -0.6680
 3862TIP3    H233078   5.466   1.449   3.260 -0.9409  1.6692  0.7131
 3863TIP3   OH233079   6.149   1.796   2.647  0.3449 -0.0361 -0.0257
 3863TIP3    H133080   6.141   1.805   2.552 -0.7659  0.8420  0.1356
 3863TIP3    H233081   6.202   1.717   2.659  1.0017  0.1662 -1.3760
 3864TIP3   OH233082   4.615   0.492  17.231 -0.3852  0.1312 -0.0904
 3864TIP3    H133083   4.603   0.508  17.324 -1.1434  0.5181 -0.2532
 3864TIP3    H233084   4.535   0.450  17.202  0.0147 -0.3790 -0.4876
 3865TIP3   OH233085   6.263   4.899   3.654  0.4071 -0.0916 -0.1980
 3865TIP3    H133086   6.264   4.988   3.689  2.2482 -0.3722  0.6112
 3865TIP3    H233087   6.267   4.910   3.559  1.1157  0.7043 -0.0866
 3866TIP3   OH233088   1.231   6.227   3.679  0.2418  0.0241 -0.0760
 3866TIP3    H133089   1.247   6.133   3.682 -0.7290 -0.1369  0.5730
 3866TIP3    H233090   1.213   6.250   3.770 -3.4267  0.1089 -0.6906
 3867TIP3   OH233091   0.605   2.216  12.558  0.1085 -0.8843  0.0069
 3867TIP3    H133092   0.653   2.195  12.478  1.8192 -2.0170  1.2731
 3867TIP3    H233093   0.657   2.285  12.600 -0.3087 -0.8920  0.5565
 3868TIP3   OH233094   6.823   2.896  14.709 -0.1041 -0.3996  0.4126
 3868TIP3    H133095   6.760   2.912  14.639 -1.1727 -0.3498  1.3638
 3868TIP3    H233096   6.908   2.915  14.669 -0.6316 -0.8841 -1.0239
 3869TIP3   OH233097   3.981   2.331  15.621  0.9524 -0.0384 -0.9016
 3869TIP3    H133098   3.922   2.359  15.691  0.4606 -3.5549  0.3370
 3869TIP3    H233099   3.933   2.349  15.541 -0.1405  0.6801 -0.1177
 3870TIP3   OH233100   4.766   2.119   0.461 -0.0622  0.2758 -0.0248
 3870TIP3    H133101   4.707   2.052   0.495  0.6712 -0.6192 -0.4700
 3870TIP3    H233102   4.842   2.116   0.519  1.2598 -1.3513 -1.7150
 3871TIP3   OH233103   3.517   0.191   0.687 -0.8277  0.0753 -0.5336
 3871TIP3    H133104   3.578   0.233   0.626  1.3492 -1.4013  0.5180
 3871TIP3    H233105   3.547   0.218   0.774 -1.6468 -0.7480  0.0204
 3872TIP3   OH233106   1.574   6.688   4.835 -0.0637 -0.8633 -0.2133
 3872TIP3    H133107   1.556   6.744   4.759 -1.0598 -0.1456  0.5357
 3872TIP3    H233108   1.517   6.722   4.904  2.7415  0.3092  1.7291
 3873TIP3   OH233109   2.059   2.671  14.084 -0.3768 -0.0320 -0.0716
 3873TIP3    H133110   2.046   2.581  14.114  0.0021 -0.0975 -0.0885
 3873TIP3    H233111   2.011   2.725  14.146  0.3785 -0.1664  0.6544
 3874TIP3   OH233112   0.510   3.718  12.524 -0.1487  0.1679  0.0701
 3874TIP3    H133113   0.561   3.777  12.579 -0.9570 -0.2433  1.3173
 3874TIP3    H233114   0.430   3.701  12.575 -1.3237  0.4234 -1.5910
 3875TIP3   OH233115   4.759   0.113   4.520 -0.0946  0.3512 -0.3995
 3875TIP3    H133116   4.813   0.158   4.585 -0.3510 -0.1549  0.1782
 3875TIP3    H233117   4.813   0.039   4.492 -0.8181 -0.7294  0.8981
 3876TIP3   OH233118   0.508   0.131  11.311 -0.2208 -0.1077 -0.3800
 3876TIP3    H133119   0.550   0.156  11.229  0.9407 -1.4182 -0.2186
 3876TIP3    H233120   0.444   0.065  11.285 -0.1376 -0.2289 -0.2733
 3877TIP3   OH233121   3.504   5.474   3.959  0.1354 -0.1589  0.1954
 3877TIP3    H133122   3.559   5.409   4.002  0.2861  1.2241  2.1980
 3877TIP3    H233123   3.446   5.506   4.028 -1.2638  0.4711 -1.2047
 3878TIP3   OH233124   3.546   2.334   4.137  0.4010  0.2768 -0.8691
 3878TIP3    H133125   3.537   2.240   4.122  2.3006  0.0997 -1.0726
 3878TIP3    H233126   3.638   2.347   4.160 -0.6576  1.4905  3.7631
 3879TIP3   OH233127   3.277   4.782   5.906 -0.4464  0.2207  0.2054
 3879TIP3    H133128   3.369   4.757   5.898 -0.3374  0.7777 -0.3552
 3879TIP3    H233129   3.235   4.706   5.947  0.2122 -0.1425  0.2174
 3880TIP3   OH233130   5.462   3.642   3.135 -0.0513 -0.8095  0.3435
 3880TIP3    H133131   5.534   3.622   3.195  0.0760  0.5160  0.6557
 3880TIP3    H233132   5.455   3.564   3.080  2.6046 -0.4645 -0.6634
 3881TIP3   OH233133   6.322   4.683  13.332  0.1511 -0.0450 -0.1440
 3881TIP3    H133134   6.233   4.654  13.352  0.6377 -0.4848  1.6148
 3881TIP3    H233135   6.377   4.635  13.394  1.3037  2.3988  0.8902
 3882TIP3   OH233136   3.921   5.539  15.243 -0.0528  0.3961 -0.2879
 3882TIP3    H133137   3.883   5.466  15.292 -0.4232  1.7816  1.6040
 3882TIP3    H233138   3.932   5.609  15.308 -0.1342  2.1971 -2.0918
 3883TIP3   OH233139   0.435   1.846   2.906  0.0555  0.3947 -0.1997
 3883TIP3    H133140   0.481   1.837   2.989 -0.9612  0.2984  0.3820
 3883TIP3    H233141   0.394   1.933   2.911 -1.9653 -0.5157  0.4835
 3884TIP3   OH233142   2.008   4.954   3.285 -0.2362 -0.0885 -0.5599
 3884TIP3    H133143   2.082   4.949   3.225 -0.9007  0.1493 -1.4141
 3884TIP3    H233144   2.030   4.893   3.356  1.2307  0.7418 -0.2790
 3885TIP3   OH233145   6.727   6.607   2.271  0.0180 -0.3806 -0.0510
 3885TIP3    H133146   6.735   6.645   2.358  0.2599 -0.0531 -0.2174
 3885TIP3    H233147   6.713   6.514   2.287  0.8024 -0.4422  0.3228
 3886TIP3   OH233148   0.186   3.016  15.409  0.5242  0.5911 -0.2698
 3886TIP3    H133149   0.279   3.021  15.385  1.4602 -1.4259  2.5281
 3886TIP3    H233150   0.174   3.085  15.475 -0.0272  0.8914 -0.6709
 3887TIP3   OH233151   0.272   3.465  14.569  0.2113 -0.4767  0.3639
 3887TIP3    H133152   0.285   3.371  14.557 -2.2325 -0.6276 -1.9504
 3887TIP3    H233153   0.229   3.472  14.654 -0.0658 -1.5082  0.3278
 3888TIP3   OH233154   4.820   5.149   4.497  0.0758  0.4734  0.1649
 3888TIP3    H133155   4.776   5.093   4.433  2.2877 -0.8506 -0.2895
 3888TIP3    H233156   4.871   5.088   4.550 -0.8456  1.6547  2.5565
 3889TIP3   OH233157   5.370   3.167  15.739 -0.0059  0.0684 -0.1387
 3889TIP3    H133158   5.342   3.248  15.781  0.1651  0.5308 -0.8960
 3889TIP3    H233159   5.324   3.166  15.655  1.2678  0.2297 -0.8636
 3890TIP3   OH233160   1.158   0.259  15.003 -0.4707 -0.8088  0.4488
 3890TIP3    H133161   1.225   0.244  14.937  0.1546 -1.4871  1.2114
 3890TIP3    H233162   1.203   0.309  15.071 -1.2701  0.4119  0.0944
 3891TIP3   OH233163   5.702   3.861   4.925 -0.5446 -0.2148  0.0507
 3891TIP3    H133164   5.758   3.802   4.976 -1.5311 -1.1653  0.0679
 3891TIP3    H233165   5.706   3.944   4.973  0.5201 -0.3698  0.2678
 3892TIP3   OH233166   5.158   0.644  11.147 -0.0497  0.0379 -0.0524
 3892TIP3    H133167   5.134   0.707  11.079  1.5753 -1.7914 -2.5522
 3892TIP3    H233168   5.254   0.649  11.151 -0.0371 -0.7741  1.2545
 3893TIP3   OH233169   5.211   2.128   5.217  0.0227 -0.4038 -0.4212
 3893TIP3    H133170   5.244   2.198   5.161  2.7672 -1.3866 -0.1603
 3893TIP3    H233171   5.157   2.075   5.159 -0.5545  0.8561 -1.0758
 3894TIP3   OH233172   2.154   3.279   0.210  0.4027 -0.7362  0.6345
 3894TIP3    H133173   2.223   3.328   0.253 -0.2293  2.2586 -1.4721
 3894TIP3    H233174   2.181   3.276   0.118 -0.4350 -2.9921  0.3938
 3895TIP3   OH233175   4.923   0.208   4.715  0.2062  0.0251 -0.5236
 3895TIP3    H133176   4.915   0.165   4.800 -1.3405 -0.2607 -0.7875
 3895TIP3    H233177   4.949   0.298   4.737  0.1102 -0.1217  0.2401
 3896TIP3   OH233178   0.411   3.690  10.555  0.2053 -0.1508  0.2212
 3896TIP3    H133179   0.347   3.649  10.613 -1.4865  0.7156 -0.9377
 3896TIP3    H233180   0.408   3.783  10.578  0.9654 -0.0761  0.0520
 3897TIP3   OH233181   3.544   0.306  13.016  0.3916 -0.9077 -0.2328
 3897TIP3    H133182   3.623   0.361  13.019 -0.5241  0.4035  1.7689
 3897TIP3    H233183   3.526   0.296  12.923  1.8375  0.3577 -0.7028
 3898TIP3   OH233184   2.972   4.772  13.054  0.2769  0.2176 -0.0712
 3898TIP3    H133185   2.920   4.711  13.106  0.8394 -0.3637 -0.1847
 3898TIP3    H233186   2.963   4.742  12.964  0.3098  0.4833 -0.1647
 3899TIP3   OH233187   0.403   3.257   2.291 -0.2255 -0.2965  0.0644
 3899TIP3    H133188   0.489   3.217   2.303  0.3445  1.0332  0.6537
 3899TIP3    H233189   0.379   3.289   2.378  0.6229  3.0429 -0.7964
 3900TIP3   OH233190   2.693   4.105   5.612 -0.1160 -0.2974 -0.4039
 3900TIP3    H133191   2.730   4.022   5.640 -0.2954 -0.8735 -1.7965
 3900TIP3    H233192   2.767   4.165   5.610  0.3184 -0.8418 -0.9308
 3901TIP3   OH233193   4.508   4.279  13.969 -0.1981 -0.2459  0.3447
 3901TIP3    H133194   4.555   4.362  13.958  0.8273 -0.8917 -0.3175
 3901TIP3    H233195   4.418   4.305  13.987  0.2791  1.0212  1.0302
 3902TIP3   OH233196   2.877   5.409  13.675 -0.3647 -0.1474  0.4943
 3902TIP3    H133197   2.821   5.411  13.753  1.6523  0.0915  2.0040
 3902TIP3    H233198   2.853   5.328  13.630  0.4903 -1.8954  3.0070
 3903TIP3   OH233199   0.920   5.438   4.346  0.1500 -0.0554 -0.3652
 3903TIP3    H133200   0.856   5.371   4.370  1.1807 -0.6094  0.9681
 3903TIP3    H233201   0.971   5.399   4.276 -1.0555  0.4692 -1.5839
 3904TIP3   OH233202   2.003   6.474  16.180  0.3168 -0.0895 -0.2155
 3904TIP3    H133203   1.944   6.417  16.230 -1.8608  0.8501 -1.5742
 3904TIP3    H233204   2.090   6.437  16.194 -0.4423 -1.0230  2.6037
 3905TIP3   OH233205   0.737   4.272   1.074 -0.3399  0.2555 -0.2288
 3905TIP3    H133206   0.780   4.188   1.089 -1.7369 -0.5203 -0.4092
 3905TIP3    H233207   0.692   4.261   0.990 -2.4201  0.3686  0.8293
 3906TIP3   OH233208   4.392   3.949   3.395  0.4506  0.4293  0.6101
 3906TIP3    H133209   4.436   3.899   3.463  0.5796  0.7578  0.7671
 3906TIP3    H233210   4.303   3.962   3.428  0.3080 -0.0001  0.4115
 3907TIP3   OH233211   3.696   2.969   3.333 -0.7202 -0.1916 -0.1378
 3907TIP3    H133212   3.733   2.884   3.310 -0.4288 -0.0994 -0.0090
 3907TIP3    H233213   3.627   2.983   3.267 -1.1504 -0.7776  0.1737
 3908TIP3   OH233214   4.438   5.735  14.334 -0.5726  0.3354  0.4112
 3908TIP3    H133215   4.527   5.709  14.357 -0.4774 -0.4235 -0.7213
 3908TIP3    H233216   4.435   5.829  14.350  0.9483  0.6781 -1.0434
 3909TIP3   OH233217   2.729   3.175  15.262  1.0096 -0.8081  0.1945
 3909TIP3    H133218   2.705   3.253  15.313 -3.0970 -1.2052 -0.7199
 3909TIP3    H233219   2.764   3.113  15.327 -1.5172 -0.3586  2.1548
 3910TIP3   OH233220   1.651   1.508  10.309  0.3382 -0.0257  0.4429
 3910TIP3    H133221   1.704   1.579  10.273 -0.6922 -0.1464 -1.4312
 3910TIP3    H233222   1.560   1.536  10.295 -0.1564 -0.1922  2.8282
 3911TIP3   OH233223   0.600   1.544  17.127 -0.3173  0.3156  0.5593
 3911TIP3    H133224   0.645   1.627  17.110 -0.2934  0.2647  0.3773
 3911TIP3    H233225   0.657   1.497  17.187  1.0747 -0.8049 -1.5448
 3912TIP3   OH233226   4.894   1.461  15.847  0.0014 -0.4991  0.3155
 3912TIP3    H133227   4.895   1.383  15.903  0.8745 -0.5189  0.2776
 3912TIP3    H233228   4.862   1.430  15.763 -0.4390 -0.6511  0.5354
 3913TIP3   OH233229   2.702   2.114   3.445  0.1677  0.5572  0.1863
 3913TIP3    H133230   2.652   2.132   3.525  2.2629  0.2481  1.6572
 3913TIP3    H233231   2.722   2.021   3.450  0.0049  0.4487 -0.9321
 3914TIP3   OH233232   2.838   1.513  16.860 -0.0837 -0.0243 -0.0614
 3914TIP3    H133233   2.818   1.510  16.767 -1.3264  1.7537  0.0943
 3914TIP3    H233234   2.930   1.541  16.864 -0.4773  1.4582 -0.7706
 3915TIP3   OH233235   5.554   4.691   3.415  0.2883  0.6253  0.2261
 3915TIP3    H133236   5.628   4.677   3.356 -0.8026 -0.4017 -0.9857
 3915TIP3    H233237   5.478   4.700   3.356 -0.8819 -0.6909  1.4605
 3916TIP3   OH233238   1.568   2.228   6.795  0.0276 -0.4221 -0.5547
 3916TIP3    H133239   1.620   2.164   6.844 -0.6175  0.0228  0.7667
 3916TIP3    H233240   1.478   2.202   6.811 -0.2562  0.9061  0.1842
 3917TIP3   OH233241   3.644   3.741  16.538 -0.2816  0.5469  0.3414
 3917TIP3    H133242   3.660   3.836  16.540 -0.9460  0.6578  0.9396
 3917TIP3    H233243   3.608   3.721  16.625  0.8990 -0.4596  0.6240
 3918TIP3   OH233244   5.802   4.310   1.612  0.6074 -0.0613 -0.5883
 3918TIP3    H133245   5.862   4.383   1.599  0.4817 -0.0053 -0.8532
 3918TIP3    H233246   5.729   4.347   1.662  1.4954 -0.4690  1.1193
 3919TIP3   OH233247   2.080   3.111  11.519 -0.0392  0.1566 -0.0583
 3919TIP3    H133248   2.145   3.145  11.580  0.1129 -1.8883  1.0073
 3919TIP3    H233249   2.003   3.095  11.574  0.1245 -1.7994 -0.3307
 3920TIP3   OH233250   4.453   3.870   0.600  0.5336  0.2948 -0.6853
 3920TIP3    H133251   4.359   3.856   0.617  0.4912  0.4328 -0.8057
 3920TIP3    H233252   4.462   3.864   0.505  0.7815 -0.5244 -0.6136
 3921TIP3   OH233253   6.559   0.080   1.564  0.0997  0.4836 -0.0714
 3921TIP3    H133254   6.631   0.023   1.587 -0.2466  0.2742  0.5024
 3921TIP3    H233255   6.589   0.126   1.485  0.9945  0.6694  0.3706
 3922TIP3   OH233256   4.858   3.462   5.392 -0.2660  1.0266  0.4410
 3922TIP3    H133257   4.890   3.398   5.455 -2.3870  0.7618  1.3332
 3922TIP3    H233258   4.819   3.532   5.445 -1.3128  1.2266 -0.5311
 3923TIP3   OH233259   0.620   0.619  14.113 -0.2943 -0.4006 -0.2433
 3923TIP3    H133260   0.666   0.698  14.140 -0.0752 -0.5949 -0.0334
 3923TIP3    H233261   0.685   0.549  14.121 -0.0923 -0.4107 -1.6924
 3924TIP3   OH233262   2.609   2.463  12.216 -0.0276 -0.1177  0.0144
 3924TIP3    H133263   2.557   2.434  12.141 -0.0620 -0.6979  0.2559
 3924TIP3    H233264   2.587   2.556  12.226  0.2701  0.0594 -0.9245
 3925TIP3   OH233265   4.626   4.534  11.180 -0.2693  0.6561 -0.3074
 3925TIP3    H133266   4.722   4.528  11.187 -0.2500  0.7987 -0.4535
 3925TIP3    H233267   4.598   4.567  11.265 -0.0304  2.3842 -0.8550
 3926TIP3   OH233268   1.395   1.618   1.447  0.0085 -0.1720  0.3744
 3926TIP3    H133269   1.370   1.687   1.384  2.2233  0.9492  0.6274
 3926TIP3    H233270   1.484   1.594   1.422 -0.0289 -1.6011  1.5008
 3927TIP3   OH233271   3.868   1.231   1.724 -0.8294  0.3186 -0.1845
 3927TIP3    H133272   3.950   1.252   1.679 -0.6579  0.2866  0.1107
 3927TIP3    H233273   3.822   1.172   1.664 -0.2160 -0.4115  0.0680
 3928TIP3   OH233274   3.473   5.404   6.056  0.4083  0.2262 -0.2187
 3928TIP3    H133275   3.563   5.427   6.035  0.8279 -1.5119 -0.4624
 3928TIP3    H233276   3.427   5.406   5.973  0.3637  0.4583 -0.1906
 3929TIP3   OH233277   5.022   5.623   0.019 -0.1449 -0.5003  0.8428
 3929TIP3    H133278   5.007   5.715  -0.002  0.8900 -0.2379  1.1931
 3929TIP3    H233279   4.937   5.582   0.008 -0.1374 -0.0292 -1.9345
 3930TIP3   OH233280   4.790   4.266  14.759 -0.5069  0.3297  0.0671
 3930TIP3    H133281   4.695   4.265  14.755 -0.5950  2.4503  0.2070
 3930TIP3    H233282   4.811   4.350  14.801  1.3948 -0.7661  1.4557
 3931TIP3   OH233283   2.016   6.352   1.365 -0.2882 -0.1630  0.2822
 3931TIP3    H133284   2.003   6.360   1.460  1.7943 -0.3061  0.6174
 3931TIP3    H233285   1.932   6.320   1.332 -1.0866 -0.0157  2.0578
 3932TIP3   OH233286   0.109   4.039   5.962  0.1220 -0.5559  0.1140
 3932TIP3    H133287   0.139   3.950   5.979  1.3317 -0.2069 -0.1047
 3932TIP3    H233288   0.146   4.091   6.033 -0.0778 -0.1294 -0.0894
 3933TIP3   OH233289   0.320   5.171  16.206  0.1268  0.1201  0.2999
 3933TIP3    H133290   0.401   5.155  16.157 -0.8139 -1.2003 -0.9097
 3933TIP3    H233291   0.297   5.261  16.184 -0.6395 -0.6369 -2.3853
 3934TIP3   OH233292   1.990   6.591  11.342  0.3724 -0.2123  0.3384
 3934TIP3    H133293   1.956   6.502  11.350 -1.5574  0.5344  1.0492
 3934TIP3    H233294   1.979   6.629  11.430 -0.1194  1.1437 -0.2881
 3935TIP3   OH233295   5.850   6.102   0.375 -0.2707  0.2737 -0.3073
 3935TIP3    H133296   5.912   6.062   0.315 -1.5900 -2.6160  0.1006
 3935TIP3    H233297   5.854   6.049   0.454 -2.3696  0.7119  0.1584
 3936TIP3   OH233298   6.102   5.349   2.095  0.2056 -0.4561  0.6990
 3936TIP3    H133299   6.089   5.423   2.035  2.5862  1.6413  2.5421
 3936TIP3    H233300   6.016   5.306   2.098 -0.7162  0.9193 -2.0838
 3937TIP3   OH233301   6.254   0.784  14.151 -0.0588  0.0760 -0.3654
 3937TIP3    H133302   6.337   0.747  14.183  0.5257  0.8877 -0.9214
 3937TIP3    H233303   6.276   0.873  14.125 -1.6751  1.2744  2.0428
 3938TIP3   OH233304   3.461   1.927  13.084  0.0955  0.0349  0.0591
 3938TIP3    H133305   3.476   1.912  13.177 -2.3793 -0.6346  0.4106
 3938TIP3    H233306   3.485   1.844  13.042  2.2158  0.6654 -0.1015
 3939TIP3   OH233307   2.098   0.599  16.010 -0.1279 -0.2195  0.1448
 3939TIP3    H133308   2.138   0.548  16.081 -1.3504  0.1674  1.1571
 3939TIP3    H233309   2.150   0.578  15.933  0.3252 -1.8321  0.8400
 3940TIP3   OH233310   0.463   2.366  13.254 -0.0218  0.6905  0.3286
 3940TIP3    H133311   0.547   2.404  13.280 -0.0184 -0.2140  1.7389
 3940TIP3    H233312   0.479   2.327  13.168  0.4538  2.2119 -0.3141
 3941TIP3   OH233313   2.026   0.661   2.830  0.5291 -0.1697 -0.2496
 3941TIP3    H133314   2.005   0.748   2.863 -2.4103 -0.8765 -0.0086
 3941TIP3    H233315   1.961   0.604   2.870  1.9251 -2.3811 -0.9881
 3942TIP3   OH233316   2.542   0.678   4.974  0.0027 -0.2175  0.5384
 3942TIP3    H133317   2.465   0.641   4.932 -0.3132  1.2489 -0.2523
 3942TIP3    H233318   2.554   0.626   5.053  0.3688 -2.8099 -1.1173
 3943TIP3   OH233319   6.105   5.399   2.371  0.5537 -0.1492 -0.0006
 3943TIP3    H133320   6.134   5.387   2.281 -2.9626  2.0232 -1.6481
 3943TIP3    H233321   6.015   5.366   2.372 -0.8265  3.1397  1.5758
 3944TIP3   OH233322   6.172   3.965   0.518 -0.7049  0.3650 -0.1591
 3944TIP3    H133323   6.268   3.970   0.518 -0.7004  0.7951 -1.7935
 3944TIP3    H233324   6.144   4.047   0.559 -0.3759  0.4686 -0.1355
 3945TIP3   OH233325   0.307   1.682  16.656 -0.1538  0.3748  0.3952
 3945TIP3    H133326   0.366   1.684  16.732 -1.2799  0.4023  1.2921
 3945TIP3    H233327   0.219   1.678  16.693 -0.7017 -0.8197 -0.9287
 3946TIP3   OH233328   3.254   0.552   4.259 -0.4857  0.2718 -0.2505
 3946TIP3    H133329   3.313   0.543   4.184  0.1201  0.7448  0.1621
 3946TIP3    H233330   3.283   0.484   4.320 -0.5328  0.3440 -0.1488
 3947TIP3   OH233331   3.879   4.151  15.272 -0.1937 -0.7569  0.3834
 3947TIP3    H133332   3.961   4.134  15.318  0.1010 -1.6367 -0.4341
 3947TIP3    H233333   3.829   4.070  15.279 -0.0252 -1.0148 -1.0610
 3948TIP3   OH233334   6.665   3.631   5.062 -0.1073  0.6209  0.0918
 3948TIP3    H133335   6.625   3.545   5.074 -0.0853  0.7121  0.8527
 3948TIP3    H233336   6.612   3.672   4.993 -0.1679  0.0368 -0.2213
 3949TIP3   OH233337   1.181   0.760  16.577  0.2587  0.9458 -0.4883
 3949TIP3    H133338   1.231   0.841  16.574 -0.0844  1.1501 -0.8572
 3949TIP3    H233339   1.245   0.691  16.595  0.6790  1.1861 -1.0837
 3950TIP3   OH233340   3.603   6.080  11.012 -0.2303  0.0383 -0.7779
 3950TIP3    H133341   3.519   6.075  10.965 -1.3761 -1.4355  1.2878
 3950TIP3    H233342   3.662   6.123  10.950 -1.8982 -0.8962 -3.1804
 3951TIP3   OH233343   4.661   2.286   4.388 -0.7322 -0.7347  0.1266
 3951TIP3    H133344   4.592   2.220   4.383 -1.6546  0.2605 -0.7495
 3951TIP3    H233345   4.703   2.283   4.302  0.2705 -1.2502  0.6136
 3952TIP3   OH233346   2.999   0.446  12.388 -0.0287  0.4020  0.1330
 3952TIP3    H133347   3.063   0.447  12.458  2.4683  2.2203 -1.9820
 3952TIP3    H233348   2.966   0.536  12.384  0.3036  0.4866 -1.3246
 3953TIP3   OH233349   3.040   3.104   2.376 -0.5120  0.5146 -0.0446
 3953TIP3    H133350   2.964   3.060   2.415  0.7908 -2.3385 -0.4621
 3953TIP3    H233351   3.097   3.123   2.450  0.5620 -2.0311 -0.1328
 3954TIP3   OH233352   5.121   4.415  13.050  0.4770  0.2981  0.1548
 3954TIP3    H133353   5.120   4.497  13.100 -1.1528  0.5585 -0.2236
 3954TIP3    H233354   5.068   4.355  13.103  2.0390 -0.6944  0.6649
 3955TIP3   OH233355   1.774   3.902  12.582 -0.2670 -0.1631  0.1428
 3955TIP3    H133356   1.736   3.919  12.495  0.9219  0.6890 -0.2289
 3955TIP3    H233357   1.708   3.936  12.643 -0.4017  0.7231 -0.4730
 3956TIP3   OH233358   1.350   0.638   6.062 -0.9766 -0.2341  0.1125
 3956TIP3    H133359   1.437   0.625   6.025  0.3595 -1.1389  3.3420
 3956TIP3    H233360   1.299   0.563   6.032 -1.5259  1.3994 -3.6807
 3957TIP3   OH233361   4.515   6.508   0.472 -0.3562  0.0864  0.2905
 3957TIP3    H133362   4.472   6.548   0.547 -0.1931 -0.4673  0.6830
 3957TIP3    H233363   4.561   6.580   0.429 -0.3939  0.3929  0.7590
 3958TIP3   OH233364   4.261   4.514   4.464  0.4591 -0.0850 -0.0984
 3958TIP3    H133365   4.207   4.534   4.540 -0.4946  4.3452 -1.6345
 3958TIP3    H233366   4.202   4.470   4.403 -0.0158  0.2514  0.1160
 3959TIP3   OH233367   3.323   0.587   5.151  0.0640  0.0336  0.9321
 3959TIP3    H133368   3.281   0.664   5.190 -0.1493  0.1565  0.4696
 3959TIP3    H233369   3.255   0.520   5.151  0.1653 -0.0692  1.0814
 3960TIP3   OH233370   1.015   2.629  11.366 -0.2730  0.1494  0.3414
 3960TIP3    H133371   1.100   2.648  11.405 -0.8359  0.0729  1.6740
 3960TIP3    H233372   0.998   2.537  11.390 -0.4629 -0.0211 -0.4282
 3961TIP3   OH233373   2.514   3.468  17.000 -0.3426 -0.1022 -0.0441
 3961TIP3    H133374   2.432   3.503  17.033  0.4263  2.1221 -0.3096
 3961TIP3    H233375   2.502   3.465  16.905 -1.1284 -2.6638  0.0672
 3962TIP3   OH233376   3.483   1.846   2.723  0.4601 -0.1651 -0.4843
 3962TIP3    H133377   3.561   1.816   2.770  0.2827  0.0617 -0.0412
 3962TIP3    H233378   3.504   1.936   2.698 -0.0918  0.2978  0.6363
 3963TIP3   OH233379   2.027   6.756  16.348  0.0279  0.2189  0.4676
 3963TIP3    H133380   2.010   6.718  16.434  0.1172 -2.8882 -0.7659
 3963TIP3    H233381   2.011   6.684  16.287  4.1216  1.0017 -1.8416
 3964TIP3   OH233382   2.440   4.341  12.842 -0.0019  0.2104 -0.6401
 3964TIP3    H133383   2.375   4.385  12.897  0.9846  0.5035  0.3242
 3964TIP3    H233384   2.401   4.256  12.822  0.5910 -0.9699  2.6055
 3965TIP3   OH233385   2.908   4.126   2.643 -0.0893 -0.1739  0.3457
 3965TIP3    H133386   2.885   4.163   2.558  0.6380  0.5309  0.4474
 3965TIP3    H233387   2.932   4.035   2.623 -1.1386 -0.3880 -0.0115
 3966TIP3   OH233388   2.212   0.919   2.967  0.5454  0.5652  0.3880
 3966TIP3    H133389   2.284   0.964   2.923  0.4636  0.4694  0.1481
 3966TIP3    H233390   2.248   0.891   3.051  0.4248  1.5847  0.7975
 3967TIP3   OH233391   6.288   2.620  14.450  0.2084 -0.9540  0.3261
 3967TIP3    H133392   6.298   2.599  14.357 -0.1040 -1.9729  0.5041
 3967TIP3    H233393   6.250   2.708  14.451 -0.1195 -1.0735 -0.5199
 3968TIP3   OH233394   4.639   6.506  16.975 -0.2054 -0.3466 -0.5611
 3968TIP3    H133395   4.599   6.500  16.889 -2.1863  0.2461  0.2653
 3968TIP3    H233396   4.594   6.579  17.018  0.1502 -1.1389  1.2627
 3969TIP3   OH233397   0.886   5.981  15.725 -0.1541  0.2469  0.1399
 3969TIP3    H133398   0.820   5.940  15.670 -0.3400 -0.3408  0.7868
 3969TIP3    H233399   0.959   5.920  15.725 -0.9269 -0.7745  2.1572
 3970TIP3   OH233400   0.568   2.146  14.988 -0.4540  0.2324  0.3892
 3970TIP3    H133401   0.497   2.173  14.930  0.6327 -1.9018 -2.1619
 3970TIP3    H233402   0.594   2.226  15.034 -3.5986  1.3209  0.5126
 3971TIP3   OH233403   6.249   6.583  17.173  0.0883 -0.0536 -0.2302
 3971TIP3    H133404   6.169   6.631  17.152  0.4153  0.9462  0.6943
 3971TIP3    H233405   6.287   6.560  17.088 -1.6323 -1.3538 -0.6834
 3972TIP3   OH233406   5.275   4.715   7.002 -0.2040  0.1821 -0.4072
 3972TIP3    H133407   5.269   4.625   7.032  2.0874 -0.0767 -0.5432
 3972TIP3    H233408   5.324   4.710   6.919 -0.0467  1.5255 -0.4293
 3973TIP3   OH233409   4.039   0.090   2.892 -0.1820  0.0718 -0.2538
 3973TIP3    H133410   4.067   0.109   2.981 -1.0670  2.0688 -0.3541
 3973TIP3    H233411   4.105   0.132   2.836  1.1913 -2.3775 -0.6502
 3974TIP3   OH233412   0.624   3.635  12.094 -0.2021 -0.1148  0.2418
 3974TIP3    H133413   0.606   3.546  12.063  1.2473  0.1731 -1.6183
 3974TIP3    H233414   0.537   3.672  12.110 -0.9868 -1.0230 -1.5417
 3975TIP3   OH233415   4.892   0.869  11.367  0.1962 -0.5848  0.4183
 3975TIP3    H133416   4.923   0.933  11.431 -2.9362  0.1516  1.3630
 3975TIP3    H233417   4.872   0.921  11.289 -0.5011 -0.6905  0.5196
 3976TIP3   OH233418   6.694   1.031   0.592  0.0684  0.4302 -0.3414
 3976TIP3    H133419   6.717   0.949   0.636 -2.2597 -0.2427 -0.2742
 3976TIP3    H233420   6.601   1.043   0.611 -0.5500  1.1936 -3.3287
 3977TIP3   OH233421   1.310   4.314  10.803 -0.4747 -0.1205 -0.1864
 3977TIP3    H133422   1.370   4.341  10.734 -0.2810 -1.2443 -0.4784
 3977TIP3    H233423   1.352   4.343  10.884  1.8359 -3.0186 -0.1362
 3978TIP3   OH233424   2.213   3.884  16.744  0.3615 -0.7960  0.6978
 3978TIP3    H133425   2.226   3.979  16.742  0.9109 -0.8612  0.8903
 3978TIP3    H233426   2.149   3.867  16.675 -1.4037 -0.0398  2.0996
 3979TIP3   OH233427   5.224   4.056   3.090 -0.8102 -0.1339  0.2386
 3979TIP3    H133428   5.198   3.974   3.049 -1.7734  1.1936 -1.9430
 3979TIP3    H233429   5.142   4.098   3.115 -0.2948 -0.2799  2.4116
 3980TIP3   OH233430   0.164   0.373   0.431 -0.1951 -0.0334  0.0522
 3980TIP3    H133431   0.202   0.423   0.359 -0.6562  0.1089 -0.1000
 3980TIP3    H233432   0.113   0.304   0.388  1.0459 -1.1256  0.2600
 3981TIP3   OH233433   1.215   6.163  17.289  0.0777  0.6387  0.2046
 3981TIP3    H133434   1.255   6.101  17.349  1.3774  1.5957  0.3858
 3981TIP3    H233435   1.286   6.225  17.268 -0.4701  0.6545 -1.8765
 3982TIP3   OH233436   1.134   0.851  15.501  0.0523 -0.4817 -0.4763
 3982TIP3    H133437   1.076   0.776  15.503 -0.2420 -0.2830 -1.1894
 3982TIP3    H233438   1.177   0.851  15.586 -3.0403  0.9991  1.2462
 3983TIP3   OH233439   6.568   2.369  12.554 -0.2137  0.0738 -0.5863
 3983TIP3    H133440   6.559   2.445  12.497  0.9507  0.7048  0.0499
 3983TIP3    H233441   6.650   2.382  12.601 -0.7557 -0.8048  0.6894
 3984TIP3   OH233442   1.511   0.331   1.695 -0.0735 -0.2426 -0.1434
 3984TIP3    H133443   1.574   0.380   1.643 -0.6620  0.0580 -0.5859
 3984TIP3    H233444   1.440   0.393   1.712 -0.9305 -0.9884 -0.8889
 3985TIP3   OH233445   1.567   1.742  15.753  0.2636 -0.0182 -0.6521
 3985TIP3    H133446   1.471   1.738  15.753  0.2765 -1.7217  0.8649
 3985TIP3    H233447   1.594   1.671  15.695  0.5767 -0.7741  0.3866
 3986TIP3   OH233448   6.483   1.031  15.600  0.0349  0.4387  0.4702
 3986TIP3    H133449   6.540   1.105  15.582  0.0501  0.5152  0.8153
 3986TIP3    H233450   6.419   1.032  15.529  0.9201 -0.1170 -0.3574
 3987TIP3   OH233451   2.815   6.754   6.338 -0.5453 -0.2036 -0.1874
 3987TIP3    H133452   2.908   6.743   6.318 -0.6259  2.0721 -2.3403
 3987TIP3    H233453   2.813   6.811   6.415 -0.2504 -2.3174  1.4936
 3988TIP3   OH233454   0.143   4.639   1.560  0.3113 -0.3901  0.7797
 3988TIP3    H133455   0.061   4.604   1.526  1.1586 -2.7167  0.9141
 3988TIP3    H233456   0.153   4.599   1.646  1.6191 -0.2114  0.7325
 3989TIP3   OH233457   6.191   1.388   2.345 -0.2818 -0.1043 -0.4265
 3989TIP3    H133458   6.143   1.379   2.427 -0.9009 -2.8545 -0.9744
 3989TIP3    H233459   6.280   1.413   2.371 -0.7208  0.0410  0.9916
 3990TIP3   OH233460   6.218   3.991   2.085  0.0596 -0.1871 -0.2351
 3990TIP3    H133461   6.123   3.991   2.101  0.0120  0.1836 -0.5036
 3990TIP3    H233462   6.227   3.959   1.996  0.0932  1.0247 -0.6879
 3991TIP3   OH233463   5.446   2.732   3.114  0.2141 -0.1955 -0.2454
 3991TIP3    H133464   5.356   2.759   3.099  0.7586  1.3125 -1.1349
 3991TIP3    H233465   5.453   2.647   3.071 -0.7226 -0.2063 -0.3990
 3992TIP3   OH233466   5.130   6.210   4.569 -0.3296 -0.1410 -0.7334
 3992TIP3    H133467   5.167   6.245   4.650  2.8636  0.6596 -2.3777
 3992TIP3    H233468   5.085   6.284   4.529 -0.9335 -0.2469 -0.2766
 3993TIP3   OH233469   2.162   0.589  12.328 -0.1305  0.0312 -0.7704
 3993TIP3    H133470   2.122   0.545  12.403  2.7507 -0.3181  0.6994
 3993TIP3    H233471   2.163   0.682  12.352  1.1326 -0.1236 -0.1488
 3994TIP3   OH233472   0.532   6.045   3.857 -0.0508  0.2819  0.0166
 3994TIP3    H133473   0.562   6.134   3.838 -0.3162 -0.0219 -2.0555
 3994TIP3    H233474   0.531   6.040   3.953 -1.7979  3.1008  0.2728
 3995TIP3   OH233475   2.970   6.628  17.016 -0.0754  0.1945  0.5034
 3995TIP3    H133476   2.989   6.535  17.030 -0.8952 -0.5094 -2.3234
 3995TIP3    H233477   3.015   6.673  17.087  1.4209 -2.2604  1.2377
 3996TIP3   OH233478   6.113   6.204  10.861  0.5900  0.7221 -0.3006
 3996TIP3    H133479   6.165   6.160  10.928  1.3270  0.6169 -0.9273
 3996TIP3    H233480   6.149   6.173  10.778 -0.9015  0.1550 -0.7655
 3997TIP3   OH233481   4.815   3.577   2.923  0.0308  0.1262  0.3890
 3997TIP3    H133482   4.798   3.569   3.017 -1.4855  0.3253  0.1566
 3997TIP3    H233483   4.888   3.518   2.907 -0.9161 -1.3900  1.3848
 3998TIP3   OH233484   0.271   1.854   4.478  0.4696  0.2996  0.2453
 3998TIP3    H133485   0.265   1.943   4.513 -0.1409  0.6674 -0.7179
 3998TIP3    H233486   0.183   1.837   4.442  0.8958 -0.2491 -0.5761
 3999TIP3   OH233487   5.628   2.859   0.147  0.7480 -0.3465  0.2901
 3999TIP3    H133488   5.555   2.914   0.120  2.7832  1.7818 -1.3051
 3999TIP3    H233489   5.652   2.893   0.233 -1.5694 -2.7488  2.0687
 4000TIP3   OH233490   2.057   6.801   0.268  0.3989 -0.1594 -0.3995
 4000TIP3    H133491   2.110   6.738   0.220  1.4776 -0.8472  1.5779
 4000TIP3    H233492   1.976   6.754   0.288 -0.1219  0.1856 -1.6321
 4001TIP3   OH233493   4.105   4.104   3.269  0.5386 -0.2481 -0.0418
 4001TIP3    H133494   4.033   4.158   3.235  0.1763  0.3777  1.6168
 4001TIP3    H233495   4.061   4.036   3.320  1.0955 -0.4044  0.2372
 4002TIP3   OH233496   5.118   4.854  15.292 -0.1324  0.4659  0.1046
 4002TIP3    H133497   5.036   4.831  15.249 -1.0751  0.4294  1.8526
 4002TIP3    H233498   5.095   4.866  15.384  1.3521  2.9077  0.2369
 4003TIP3   OH233499   1.185   6.551   5.288  0.8519  0.4885  0.0058
 4003TIP3    H133500   1.182   6.561   5.193  0.7341  1.4963  0.1056
 4003TIP3    H233501   1.269   6.589   5.313  0.6848  0.6379  0.3464
 4004TIP3   OH233502   6.668   6.410  15.091  0.4757 -0.3284  0.2583
 4004TIP3    H133503   6.573   6.413  15.102  0.6112  1.6159  1.2975
 4004TIP3    H233504   6.699   6.355  15.162  0.2688  0.8479  1.2854
 4005TIP3   OH233505   3.935   5.596   4.158  0.0735  0.5531 -0.1914
 4005TIP3    H133506   3.929   5.628   4.068  1.6547 -0.0722 -0.5457
 4005TIP3    H233507   3.974   5.509   4.150 -2.9704 -1.0515  0.8540
 4006TIP3   OH233508   1.424   4.547  16.227  0.1493 -0.1887  0.0376
 4006TIP3    H133509   1.426   4.467  16.279 -0.6686 -0.7568 -0.7702
 4006TIP3    H233510   1.506   4.591  16.247  1.8703 -2.4775 -1.4450
 4007TIP3   OH233511   5.632   2.694  16.617 -0.2575 -0.2324  0.3707
 4007TIP3    H133512   5.664   2.670  16.530 -1.4547 -0.4013 -0.0363
 4007TIP3    H233513   5.576   2.621  16.643  0.9360 -0.7040  1.7744
 4008TIP3   OH233514   3.454   1.505  13.974  0.0353  0.5184 -0.2724
 4008TIP3    H133515   3.550   1.509  13.980 -0.0027  0.0552  1.1661
 4008TIP3    H233516   3.424   1.556  14.049 -0.7842 -0.9841  0.4714
 4009TIP3   OH233517   3.499   0.483   4.707 -0.0673  0.5843  0.1443
 4009TIP3    H133518   3.441   0.533   4.764 -0.8556  0.0372 -0.1671
 4009TIP3    H233519   3.583   0.484   4.752 -0.2804  1.4990  0.5358
 4010TIP3   OH233520   5.374   6.120   4.639  0.6073  0.0868 -0.0086
 4010TIP3    H133521   5.307   6.141   4.573  0.9547 -0.4250 -0.5363
 4010TIP3    H233522   5.335   6.146   4.722  0.2704  1.0187 -0.4462
 4011TIP3   OH233523   1.154   5.052   4.971  0.2900 -0.0327  0.1790
 4011TIP3    H133524   1.171   5.078   5.061 -1.0277 -0.4680  0.5797
 4011TIP3    H233525   1.140   5.135   4.924 -1.1439  0.1361  0.8517
 4012TIP3   OH233526   0.097   2.714  11.208 -0.1653 -0.0408  0.4311
 4012TIP3    H133527   0.044   2.788  11.238 -0.2795 -0.0999  0.3784
 4012TIP3    H233528   0.175   2.753  11.170 -0.7245  0.1092 -0.5872
 4013TIP3   OH233529   6.428   3.478  13.814 -0.8565  0.6833 -0.3669
 4013TIP3    H133530   6.430   3.549  13.879  0.5754  1.1664 -0.9000
 4013TIP3    H233531   6.385   3.517  13.738 -1.5218  0.4698 -0.1020
 4014TIP3   OH233532   0.573   5.791  14.353 -0.3270  0.2347  0.2815
 4014TIP3    H133533   0.615   5.754  14.275  0.5176 -1.6970  1.5772
 4014TIP3    H233534   0.522   5.865  14.320  0.8245  0.1186 -1.9461
 4015TIP3   OH233535   6.519   4.386  13.857 -0.0742  0.2324  0.1104
 4015TIP3    H133536   6.559   4.377  13.943 -1.1310 -1.4024  0.4659
 4015TIP3    H233537   6.455   4.456  13.867  0.3816  0.6095  0.4150
 4016TIP3   OH233538   4.656   1.837   1.029 -0.5899 -1.4618  0.3144
 4016TIP3    H133539   4.710   1.760   1.045  1.1090 -0.2836  0.5443
 4016TIP3    H233540   4.601   1.845   1.107  0.2305 -1.6611  0.9273
 4017TIP3   OH233541   5.832   2.310  11.968 -0.2709  0.0988  0.0091
 4017TIP3    H133542   5.885   2.354  11.902  0.4810 -0.7647  0.0221
 4017TIP3    H233543   5.763   2.266  11.918  0.5881 -0.9727 -0.2781
 4018TIP3   OH233544   6.761   3.650  14.291  0.2204  0.2266 -0.2484
 4018TIP3    H133545   6.851   3.678  14.273 -0.0230  0.3206 -1.4208
 4018TIP3    H233546   6.742   3.685  14.377  1.8638 -1.1865  0.7577
 4019TIP3   OH233547   6.599   4.429  12.982 -0.3196 -0.6479  0.2345
 4019TIP3    H133548   6.570   4.498  13.041 -0.1947 -0.3213 -0.0824
 4019TIP3    H233549   6.522   4.409  12.928  0.4324  1.3754 -1.7343
 4020TIP3   OH233550   3.631   4.783   3.102 -0.1490 -0.0003  0.1009
 4020TIP3    H133551   3.726   4.788   3.103 -0.1031 -0.7208  0.5066
 4020TIP3    H233552   3.610   4.722   3.173 -0.8696 -0.3996 -0.4363
 4021TIP3   OH233553   6.209   6.367   3.049  0.0454  0.3769 -0.1184
 4021TIP3    H133554   6.191   6.276   3.072 -0.3021  0.4863  0.0322
 4021TIP3    H233555   6.287   6.362   2.993  1.6509  0.2002  1.9930
 4022TIP3   OH233556   0.236   0.378   5.671 -0.4753  0.5242  0.1491
 4022TIP3    H133557   0.320   0.332   5.673 -0.2364  0.9279 -0.2723
 4022TIP3    H233558   0.214   0.392   5.763  0.4432  1.3405  0.2717
 4023TIP3   OH233559   5.553   1.495   3.781 -0.2612 -0.0969 -0.4531
 4023TIP3    H133560   5.476   1.486   3.725 -0.5340  1.6162 -0.4099
 4023TIP3    H233561   5.618   1.437   3.743 -1.5763 -1.6233 -0.4604
 4024TIP3   OH233562   1.787   5.364   1.765  0.2534 -0.2287 -0.1088
 4024TIP3    H133563   1.793   5.294   1.830 -0.2483 -0.8520 -0.7149
 4024TIP3    H233564   1.735   5.432   1.807 -0.1395 -0.6643  0.1205
 4025TIP3   OH233565   4.494   6.395  13.421  0.3054 -0.1594 -0.1384
 4025TIP3    H133566   4.429   6.453  13.380 -1.8072 -1.0936  1.6627
 4025TIP3    H233567   4.446   6.314  13.438  2.4504 -1.5198 -0.1835
 4026TIP3   OH233568   4.371   5.889   0.375 -0.0180 -0.1903 -0.3882
 4026TIP3    H133569   4.322   5.930   0.304 -0.0513 -0.8298 -0.7361
 4026TIP3    H233570   4.406   5.809   0.338 -0.6196 -0.8924  0.4944
 4027TIP3   OH233571   6.118   4.734   1.358  0.4490 -0.5951 -0.2367
 4027TIP3    H133572   6.186   4.755   1.422 -1.4231 -0.4827  1.8421
 4027TIP3    H233573   6.166   4.700   1.282  2.8486  0.4563  0.7130
 4028TIP3   OH233574   4.550   2.978   6.271  0.2018  0.1542 -0.3109
 4028TIP3    H133575   4.577   2.908   6.211  1.3772  1.3816 -1.2691
 4028TIP3    H233576   4.498   3.037   6.217 -1.1691 -0.1627  0.6019
 4029TIP3   OH233577   0.083   0.344   1.519 -0.6637 -0.2480 -0.2996
 4029TIP3    H133578   0.033   0.266   1.541  0.0174 -0.5921  0.0498
 4029TIP3    H233579   0.167   0.333   1.563 -0.2343  0.2769 -0.9510
 4030TIP3   OH233580   4.787   0.305  14.656 -0.2446 -0.1428 -0.2271
 4030TIP3    H133581   4.834   0.376  14.612  0.3300 -0.6264 -0.4073
 4030TIP3    H233582   4.845   0.229  14.647 -0.2055 -0.3061  1.1770
 4031TIP3   OH233583   6.184   5.056  12.314 -0.1381 -0.2828 -0.2492
 4031TIP3    H133584   6.230   4.983  12.273 -0.1087 -0.5870  0.3105
 4031TIP3    H233585   6.209   5.051  12.407 -0.0113  0.5304 -0.2318
 4032TIP3   OH233586   3.688   4.003  10.465  0.0421 -0.2409 -0.0710
 4032TIP3    H133587   3.782   3.983  10.462 -0.3176 -2.4177  1.4173
 4032TIP3    H233588   3.677   4.050  10.548  0.0058  1.5635 -1.0288
 4033TIP3   OH233589   1.244   2.362  10.793 -0.4579  0.1668 -0.4776
 4033TIP3    H133590   1.164   2.311  10.801 -1.1527  1.3239  0.1687
 4033TIP3    H233591   1.215   2.451  10.773  0.6060  0.7791  0.5171
 4034TIP3   OH233592   2.611   5.061   3.617  0.2276 -0.5220  0.1225
 4034TIP3    H133593   2.558   5.000   3.566  1.7299 -1.6366 -0.2052
 4034TIP3    H233594   2.555   5.137   3.630 -0.7586 -0.8416 -1.8629
 4035TIP3   OH233595   2.431   5.829  15.623  0.0527  0.1012 -0.7447
 4035TIP3    H133596   2.505   5.837  15.563  0.7187 -0.3311 -0.0015
 4035TIP3    H233597   2.414   5.919  15.651  2.0042 -0.0135  1.0548
 4036TIP3   OH233598   6.077   0.705  11.140 -0.2442 -0.6718  0.4318
 4036TIP3    H133599   6.143   0.746  11.196  0.9331 -1.8932  0.0141
 4036TIP3    H233600   6.072   0.762  11.063 -0.0610 -0.2967  0.6950
 4037TIP3   OH233601   6.318   6.656   1.066 -0.2855  0.1396 -0.2488
 4037TIP3    H133602   6.309   6.593   1.137  0.2797  1.1772  0.7788
 4037TIP3    H233603   6.320   6.603   0.987 -1.6115 -1.0050  0.4393
 4038TIP3   OH233604   6.100   1.301   5.143  0.1976 -0.3753 -0.4494
 4038TIP3    H133605   6.132   1.349   5.068  0.8383  0.2503  0.2074
 4038TIP3    H233606   6.006   1.318   5.144  0.3464  0.5126 -0.4851
 4039TIP3   OH233607   4.457   1.671  12.017 -0.8530 -0.1973 -0.6662
 4039TIP3    H133608   4.407   1.667  11.935 -1.6686 -0.5819 -0.1590
 4039TIP3    H233609   4.427   1.595  12.067 -0.5416  0.1693  0.0885
 4040TIP3   OH233610   4.875   1.009   5.346 -0.2723 -0.3154  0.5402
 4040TIP3    H133611   4.830   1.002   5.261  0.7818  0.5262 -0.1108
 4040TIP3    H233612   4.954   1.059   5.327  0.5931 -1.1515  1.7974
 4041TIP3   OH233613   1.052   5.820   6.218  0.3737  0.0621  0.7431
 4041TIP3    H133614   1.070   5.890   6.156 -1.9673 -1.2322 -1.5832
 4041TIP3    H233615   1.116   5.752   6.197 -0.1012 -0.1768  0.0353
 4042TIP3   OH233616   3.363   3.378  15.537  0.0080 -0.0175 -0.4413
 4042TIP3    H133617   3.315   3.455  15.507 -0.3169 -0.8453 -2.1841
 4042TIP3    H233618   3.313   3.347  15.612  0.1155  1.4142  0.2542
 4043TIP3   OH233619   5.297   2.162   2.135 -0.0132 -0.0782 -0.2488
 4043TIP3    H133620   5.258   2.142   2.050  1.9355 -1.0505 -0.9764
 4043TIP3    H233621   5.349   2.085   2.156 -0.9227 -0.1117  2.1587
 4044TIP3   OH233622   2.757   6.665  13.584  0.2319  0.4431 -0.9437
 4044TIP3    H133623   2.745   6.606  13.658 -0.5727  1.8056  0.0516
 4044TIP3    H233624   2.845   6.644  13.551  0.1178 -1.0318 -0.4098
 4045TIP3   OH233625   4.992   6.296   0.351  0.1790 -0.6166  0.6346
 4045TIP3    H133626   5.065   6.250   0.308 -0.4851 -0.8180 -0.3025
 4045TIP3    H233627   4.914   6.262   0.307 -0.4143  0.3609  0.9191
 4046TIP3   OH233628   5.548   6.682  13.136  0.2674 -0.0667 -0.3110
 4046TIP3    H133629   5.487   6.722  13.197  0.2323  0.5893 -0.7617
 4046TIP3    H233630   5.632   6.724  13.154  0.6495 -1.0985  0.4335
 4047TIP3   OH233631   3.205   4.185   5.168 -0.4120 -0.0232 -0.1727
 4047TIP3    H133632   3.243   4.104   5.204  0.0571 -0.9309 -2.5378
 4047TIP3    H233633   3.117   4.190   5.206  0.1615 -0.7266  1.3021
 4048TIP3   OH233634   3.764   3.427  13.383 -0.8576 -0.3177  0.0416
 4048TIP3    H133635   3.685   3.477  13.405 -1.1969 -1.1010  0.6480
 4048TIP3    H233636   3.821   3.491  13.341  0.3283  1.6959  4.1726
 4049TIP3   OH233637   1.152   5.749  11.264  0.1081  0.4462  0.1673
 4049TIP3    H133638   1.231   5.695  11.264  0.1498  0.4684 -1.0748
 4049TIP3    H233639   1.134   5.765  11.171 -2.0212 -0.5000  0.3558
 4050TIP3   OH233640   2.361   0.337   1.895 -0.0197 -0.2305  0.1243
 4050TIP3    H133641   2.318   0.418   1.868  0.1044  0.3644  1.6506
 4050TIP3    H233642   2.356   0.337   1.990 -0.6629 -2.3677  0.1526
 4051TIP3   OH233643   2.452   4.217  13.972 -0.2150  0.6275  0.2367
 4051TIP3    H133644   2.482   4.210  14.063 -1.4290 -1.1980  0.5524
 4051TIP3    H233645   2.530   4.199  13.920  0.5234  1.8213  0.8853
 4052TIP3   OH233646   0.870   0.197  16.899 -0.1365 -0.6987 -0.0372
 4052TIP3    H133647   0.811   0.190  16.824  2.3863 -2.1223 -2.0709
 4052TIP3    H233648   0.920   0.277  16.882  0.2108 -0.8430  0.3069
 4053TIP3   OH233649   5.295   1.625  11.821 -0.1604 -0.2866 -0.5710
 4053TIP3    H133650   5.248   1.541  11.816  0.0113 -0.3732 -0.7418
 4053TIP3    H233651   5.253   1.671  11.894  0.4808 -0.9812  0.2631
 4054TIP3   OH233652   6.290   2.486  11.745 -0.6037 -0.0514  0.1783
 4054TIP3    H133653   6.366   2.516  11.696 -0.3191 -1.0944 -0.0513
 4054TIP3    H233654   6.283   2.546  11.819 -0.5107  1.0097 -0.6481
 4055TIP3   OH233655   0.660   3.721   1.884  0.4329 -0.0438  0.4714
 4055TIP3    H133656   0.579   3.682   1.852 -0.6094  2.1580  0.2949
 4055TIP3    H233657   0.729   3.678   1.834 -0.8777  0.5408 -1.9622
 4056TIP3   OH233658   4.589   4.399   1.118 -0.2710  0.3095  0.4511
 4056TIP3    H133659   4.638   4.476   1.090  1.2033 -1.0614 -0.9795
 4056TIP3    H233660   4.535   4.376   1.043 -1.2329  0.3400  1.1218
 4057TIP3   OH233661   1.559   1.222  16.500  0.5955 -0.3033  0.0445
 4057TIP3    H133662   1.466   1.240  16.488  0.5393 -1.5424 -1.7622
 4057TIP3    H233663   1.603   1.303  16.471  0.1062  0.3587  1.0936
 4058TIP3   OH233664   1.846   4.927   5.785 -0.7951  0.2872  0.0793
 4058TIP3    H133665   1.851   4.868   5.709  1.5348 -0.6714  0.8699
 4058TIP3    H233666   1.924   4.906   5.836 -2.0281  1.2635  2.5107
 4059TIP3   OH233667   2.849   2.762  11.407 -0.1330 -0.5754  0.5676
 4059TIP3    H133668   2.940   2.773  11.381 -0.2373  0.5156  0.5992
 4059TIP3    H233669   2.805   2.842  11.377 -1.3784 -1.6538 -0.6439
 4060TIP3   OH233670   4.865   1.907  17.261 -0.1183 -0.3927  0.8181
 4060TIP3    H133671   4.861   1.994  17.301  1.5260  1.4430 -2.5438
 4060TIP3    H233672   4.774   1.889  17.234 -0.1374  1.5008 -0.5866
 4061TIP3   OH233673   5.375   5.953  12.364  0.1217 -0.1670  0.4537
 4061TIP3    H133674   5.440   5.883  12.358  1.1748  0.6100  2.0408
 4061TIP3    H233675   5.316   5.925  12.433 -0.3593 -0.1759  0.0454
 4062TIP3   OH233676   2.498   0.987   1.713 -0.2005  0.5425 -0.7182
 4062TIP3    H133677   2.518   1.037   1.792  0.9756 -2.6562  1.1943
 4062TIP3    H233678   2.570   1.008   1.653  0.7740  0.4445  0.3864
 4063TIP3   OH233679   6.534   4.425   2.190 -0.2290 -0.0553  0.3547
 4063TIP3    H133680   6.529   4.406   2.096 -0.2400 -0.0112  0.3466
 4063TIP3    H233681   6.627   4.439   2.206 -0.2342 -0.0054  0.3396
 4064TIP3   OH233682   1.513   4.704   5.843 -0.0478  0.1863 -0.1031
 4064TIP3    H133683   1.577   4.660   5.898  0.1994 -0.4710 -0.8976
 4064TIP3    H233684   1.520   4.797   5.868  0.6134  0.0087  0.4046
 4065TIP3   OH233685   2.907   3.893   3.134 -0.0585 -0.0716 -0.3733
 4065TIP3    H133686   2.817   3.907   3.105 -1.6097 -2.1057  2.9049
 4065TIP3    H233687   2.940   3.823   3.078 -0.4644  0.6455 -1.5579
 4066TIP3   OH233688   5.857   3.718  12.729  0.5674  0.1260  0.0597
 4066TIP3    H133689   5.899   3.750  12.809 -1.8475 -1.8940  2.2717
 4066TIP3    H233690   5.778   3.771  12.721  1.1862  0.8757 -1.5486
 4067TIP3   OH233691   3.224   2.641   1.465  0.4318 -0.4281  0.7045
 4067TIP3    H133692   3.315   2.613   1.449  0.5016 -0.5074  1.2281
 4067TIP3    H233693   3.180   2.562   1.496  1.1068  0.3845  4.1580
 4068TIP3   OH233694   0.471   3.824   4.141 -0.1440 -0.3528 -0.6723
 4068TIP3    H133695   0.540   3.760   4.157  0.6959  0.9372  1.2497
 4068TIP3    H233696   0.395   3.772   4.117  1.0172 -1.9296 -1.1102
 4069TIP3   OH233697   1.586   2.480  15.285 -0.1346 -0.6728 -0.4347
 4069TIP3    H133698   1.566   2.435  15.203  1.1508 -0.5046 -0.8558
 4069TIP3    H233699   1.537   2.562  15.280  3.2259  1.4343 -3.0978
 4070TIP3   OH233700   5.123   5.435  11.420  0.0793 -0.1878 -0.3711
 4070TIP3    H133701   5.074   5.517  11.408 -1.1904 -1.0919 -1.6930
 4070TIP3    H233702   5.096   5.380  11.347  2.0492 -1.2713 -0.3657
 4071TIP3   OH233703   4.002   5.373  16.941  0.6478 -0.4580  0.5526
 4071TIP3    H133704   3.990   5.466  16.959  0.4649 -0.3232 -0.2352
 4071TIP3    H233705   4.076   5.370  16.879 -1.5877 -0.5287 -2.2983
 4072TIP3   OH233706   3.151   3.529   0.937 -0.3105 -0.7625  0.0517
 4072TIP3    H133707   3.111   3.552   0.853 -0.5225 -1.9690 -0.1837
 4072TIP3    H233708   3.088   3.470   0.978  0.0378 -0.6010  0.8341
 4073TIP3   OH233709   5.706   0.035  11.561 -0.2955 -0.4394  0.1120
 4073TIP3    H133710   5.738   0.019  11.472  0.8095 -0.3568  0.4732
 4073TIP3    H233711   5.723  -0.047  11.608  0.9120  0.1398  0.7259
 4074TIP3   OH233712   5.870   3.402   5.024 -0.1892  0.2234  0.2729
 4074TIP3    H133713   5.806   3.433   4.959  1.4693  0.5089 -1.2935
 4074TIP3    H233714   5.906   3.322   4.986  0.7047  0.3164  0.8959
 4075TIP3   OH233715   1.938   0.727  14.053 -0.5947 -0.8543  0.0127
 4075TIP3    H133716   1.965   0.719  13.962  0.5539 -1.4606  0.3829
 4075TIP3    H233717   1.858   0.675  14.059  0.0118 -1.8547 -0.3832
 4076TIP3   OH233718   3.925   1.577  13.714  0.3892  0.0914  0.0275
 4076TIP3    H133719   3.988   1.575  13.786  1.5762 -0.2334 -0.9968
 4076TIP3    H233720   3.847   1.617  13.753  0.6461 -0.9701  1.7559
 4077TIP3   OH233721   0.076   3.865   3.853 -0.9108 -0.2013 -0.0715
 4077TIP3    H133722   0.028   3.787   3.825 -0.8665 -0.9338  1.7516
 4077TIP3    H233723   0.010   3.918   3.897 -1.2576  1.5100 -2.4473
 4078TIP3   OH233724   0.446   3.254  17.239 -0.2965 -0.2004 -0.4672
 4078TIP3    H133725   0.459   3.289  17.327  1.3116  1.9029 -1.4548
 4078TIP3    H233726   0.360   3.287  17.213  0.5593  1.9484 -0.8067
 4079TIP3   OH233727   3.980   4.221  10.462  0.1924  0.1370  0.0305
 4079TIP3    H133728   3.892   4.259  10.463 -0.1184 -0.5700  0.0312
 4079TIP3    H233729   3.979   4.156  10.532  0.7610  0.2170  0.1184
 4080TIP3   OH233730   5.385   2.701   2.484  0.1691  0.2486  0.2105
 4080TIP3    H133731   5.402   2.649   2.562 -3.3975 -2.2985 -0.4483
 4080TIP3    H233732   5.429   2.654   2.413 -3.2782 -2.4200 -0.4306
 4081TIP3   OH233733   3.571   3.835  10.282 -0.2869  0.4009  0.1098
 4081TIP3    H133734   3.613   3.896  10.342 -0.1565  1.8750 -1.4106
 4081TIP3    H233735   3.496   3.883  10.248 -0.4454 -0.4611 -0.7894
 4082TIP3   OH233736   5.367   2.056  13.095  0.1644 -0.0027 -0.1321
 4082TIP3    H133737   5.379   2.074  13.002 -0.4758 -0.0763 -0.2328
 4082TIP3    H233738   5.434   2.108  13.139  0.9914 -0.5886 -0.6836
 4083TIP3   OH233739   0.426   3.110  15.581 -0.4056  0.4514 -0.0428
 4083TIP3    H133740   0.363   3.177  15.609 -0.7213  0.0323  0.2678
 4083TIP3    H233741   0.381   3.027  15.597  0.6120  0.1080  1.1197
 4084TIP3   OH233742   2.786   0.076   1.859 -0.5184  0.2707 -0.0425
 4084TIP3    H133743   2.825   0.020   1.792  1.6055  0.6024  0.8220
 4084TIP3    H233744   2.756   0.153   1.811  1.1562  0.5962 -0.6306
 4085TIP3   OH233745   2.721   3.437  12.378  0.5743  0.4215 -0.5217
 4085TIP3    H133746   2.759   3.406  12.296  1.8515 -1.2648  0.6423
 4085TIP3    H233747   2.733   3.532  12.375 -0.3708  0.5166 -2.7166
 4086TIP3   OH233748   2.176   6.590   1.946 -0.5817  0.1038  0.4841
 4086TIP3    H133749   2.248   6.532   1.920  0.7082  0.8319  2.2279
 4086TIP3    H233750   2.215   6.677   1.945 -1.5589  0.5518  1.1045
 4087TIP3   OH233751   3.484   0.904   5.423 -0.1299 -0.2042  0.0865
 4087TIP3    H133752   3.539   0.839   5.379  0.2681  0.4132 -0.3403
 4087TIP3    H233753   3.529   0.988   5.408  0.8781 -0.1160  2.9262
 4088TIP3   OH233754   2.977   2.443   2.780 -0.2975  0.4147  0.5671
 4088TIP3    H133755   3.018   2.367   2.822  0.5097  0.7477  0.3953
 4088TIP3    H233756   2.948   2.410   2.694 -1.4357 -0.1160  1.1261
 4089TIP3   OH233757   3.478   4.891   0.889  0.1814  0.0085 -0.0453
 4089TIP3    H133758   3.495   4.968   0.943  1.5102 -0.0676 -0.3239
 4089TIP3    H233759   3.385   4.873   0.902  0.5390 -0.3102  2.6532
 4090TIP3   OH233760   3.971   3.847  17.204 -0.3355 -0.1973 -0.4210
 4090TIP3    H133761   3.895   3.821  17.257 -1.5136 -0.0941 -1.9554
 4090TIP3    H233762   3.954   3.938  17.181 -0.9123 -0.7639 -2.5458
 4091TIP3   OH233763   4.721   6.110   2.073  0.6876 -0.4576  0.2885
 4091TIP3    H133764   4.724   6.154   2.158  0.1229 -0.9148  0.5548
 4091TIP3    H233765   4.806   6.127   2.034  0.9661 -0.2682  0.9603
 4092TIP3   OH233766   3.871   4.487   1.463  0.1774  0.1709 -0.0012
 4092TIP3    H133767   3.932   4.536   1.408  0.8260 -1.2482 -0.6149
 4092TIP3    H233768   3.818   4.437   1.400 -0.4913  0.1149  0.5956
 4093TIP3   OH233769   2.446   3.928  15.561 -0.0804  0.0602  0.4810
 4093TIP3    H133770   2.461   3.937  15.467  0.0220 -0.7930  0.4044
 4093TIP3    H233771   2.355   3.899  15.568  0.7152 -2.7909  0.4235
 4094TIP3   OH233772   4.461   5.914  17.067  0.7022 -0.3589 -0.3164
 4094TIP3    H133773   4.484   5.964  17.146 -1.6734  0.4169 -0.0362
 4094TIP3    H233774   4.366   5.922  17.060  0.4109 -3.4033 -1.2975
 4095TIP3   OH233775   3.712   3.704   3.539 -0.0475 -0.0629  0.0703
 4095TIP3    H133776   3.754   3.780   3.499  2.5900 -0.4851  1.7711
 4095TIP3    H233777   3.749   3.629   3.494 -1.1724 -0.4225 -0.2910
 4096TIP3   OH233778   5.012   1.200  15.888 -0.3066  0.0816  0.1155
 4096TIP3    H133779   5.012   1.130  15.953  1.0705  0.6004  0.7196
 4096TIP3    H233780   4.974   1.160  15.810 -2.3277 -0.4441  1.3166
 4097TIP3   OH233781   5.202   3.880  12.637  0.2216 -0.0224  0.0444
 4097TIP3    H133782   5.269   3.942  12.667  1.0818 -0.4003 -1.0645
 4097TIP3    H233783   5.212   3.804  12.694  0.0396  0.3248  0.5476
 4098TIP3   OH233784   0.378   4.635   3.018  0.5733 -0.3868 -0.3787
 4098TIP3    H133785   0.416   4.563   2.968 -1.1455 -2.1505  0.7247
 4098TIP3    H233786   0.416   4.627   3.105  1.3314  0.8579 -0.5751
 4099TIP3   OH233787   2.256   5.729   4.517  0.3364  0.0986  0.0182
 4099TIP3    H133788   2.198   5.680   4.575  1.4135 -1.5729 -0.2690
 4099TIP3    H233789   2.198   5.762   4.448 -0.6654  0.6275  1.0760
 4100TIP3   OH233790   3.305   2.487  15.153 -0.5197 -0.5399  0.5049
 4100TIP3    H133791   3.354   2.438  15.220 -1.2746 -2.7876 -0.4925
 4100TIP3    H233792   3.373   2.535  15.105  0.2624 -0.5929  1.5139
 4101TIP3   OH233793   3.083   2.266   2.965 -0.2296 -0.1676 -0.4237
 4101TIP3    H133794   3.162   2.279   3.017 -0.1920 -1.4672 -0.1179
 4101TIP3    H233795   3.028   2.209   3.020 -1.4648  0.8620 -0.5410
 4102TIP3   OH233796   6.646   1.824   0.241  0.0167  0.4770 -0.3165
 4102TIP3    H133797   6.606   1.820   0.154 -0.4561  0.3394 -0.0965
 4102TIP3    H233798   6.574   1.849   0.299  0.5356  1.5201 -0.0957
 4103TIP3   OH233799   3.250   4.462   0.377  0.0122  0.4529 -0.1119
 4103TIP3    H133800   3.252   4.392   0.312  1.1258  0.6332 -0.2818
 4103TIP3    H233801   3.227   4.418   0.459 -3.4559  0.4939 -0.8991
 4104TIP3   OH233802   5.617   3.349   5.984 -0.0206  0.1885  1.0587
 4104TIP3    H133803   5.543   3.373   6.039  0.0141  0.8289  0.8324
 4104TIP3    H233804   5.597   3.260   5.954  0.1262 -0.3069  2.3616
 4105TIP3   OH233805   3.807   3.988   5.024  0.7957  0.2903  0.4149
 4105TIP3    H133806   3.762   4.068   4.996  1.5924  1.0179  1.1702
 4105TIP3    H233807   3.886   4.019   5.068  2.3316 -0.9761 -1.3393
 4106TIP3   OH233808   0.292   4.396  14.818  0.2353 -0.0129  0.5009
 4106TIP3    H133809   0.293   4.455  14.893 -0.6771 -0.5715  0.9795
 4106TIP3    H233810   0.375   4.348  14.824 -0.6234 -1.3991  2.2931
 4107TIP3   OH233811   3.712   6.809  11.172 -0.2380  0.0408  0.1470
 4107TIP3    H133812   3.768   6.886  11.189 -0.7878  0.7755 -1.2130
 4107TIP3    H233813   3.773   6.742  11.142  0.0387  0.5463 -0.4440
 4108TIP3   OH233814   5.108   3.210  13.390 -0.3596 -0.3192 -0.6236
 4108TIP3    H133815   5.134   3.289  13.344 -0.9957 -0.0472 -0.5256
 4108TIP3    H233816   5.156   3.140  13.346  2.8595  0.4143  1.3697
 4109TIP3   OH233817   4.679   2.479  16.964  0.0274  0.3813 -0.5513
 4109TIP3    H133818   4.755   2.534  16.984  0.2401 -0.1302  0.0808
 4109TIP3    H233819   4.635   2.525  16.893  0.9900  0.6387 -1.0073
 4110TIP3   OH233820   3.627   6.408   4.944  0.1125  0.7560  0.2313
 4110TIP3    H133821   3.541   6.367   4.947  0.5550 -0.1794  0.6241
 4110TIP3    H233822   3.652   6.404   4.852  0.3222 -0.2700  0.3138
 4111TIP3   OH233823   4.513   2.599  16.759 -0.7143 -1.2229 -0.8753
 4111TIP3    H133824   4.475   2.686  16.772  0.6134 -0.2313 -2.8620
 4111TIP3    H233825   4.440   2.544  16.732 -1.8325 -1.1435  1.7614
 4112TIP3   OH233826   1.497   4.282  11.923  0.2573  0.4514  0.1142
 4112TIP3    H133827   1.427   4.321  11.975 -0.3106  0.0497 -0.3206
 4112TIP3    H233828   1.493   4.329  11.839  0.8821  0.8070  0.2828
 4113TIP3   OH233829   5.671   6.423   2.641 -0.1144 -0.2641  0.5324
 4113TIP3    H133830   5.671   6.336   2.681  1.8397 -0.4798  0.1693
 4113TIP3    H233831   5.672   6.405   2.547  0.4684  0.1266  0.4558
 4114TIP3   OH233832   0.120   4.459  14.123  0.0449  0.3856  0.6640
 4114TIP3    H133833   0.177   4.456  14.200 -0.7726  0.4353  1.2832
 4114TIP3    H233834   0.180   4.474  14.050  0.6218  3.0351  1.5653
 4115TIP3   OH233835   5.203   3.308  16.353  0.3873  0.1439 -0.3598
 4115TIP3    H133836   5.190   3.248  16.279  1.8266  1.2419 -1.5628
 4115TIP3    H233837   5.164   3.390  16.325 -1.2831 -0.0686  1.1549
 4116TIP3   OH233838   4.816   0.358   4.005 -0.1644  0.2070  0.1147
 4116TIP3    H133839   4.800   0.373   4.098 -1.1507  0.6356 -0.1130
 4116TIP3    H233840   4.768   0.278   3.985  1.1487 -0.6500  0.2526
 4117TIP3   OH233841   4.600   0.744  12.200 -0.2788  0.0177  0.1247
 4117TIP3    H133842   4.560   0.773  12.282  1.3383  0.6009  0.7495
 4117TIP3    H233843   4.624   0.653  12.215  0.6373  0.3263  0.5556
 4118TIP3   OH233844   3.796   3.563  16.679  0.0857 -0.3534  0.0947
 4118TIP3    H133845   3.755   3.632  16.628 -0.9221 -0.3032  0.9351
 4118TIP3    H233846   3.884   3.556  16.644  0.6491  2.2339  0.7922
 4119TIP3   OH233847   5.936   5.023   0.200 -0.3105 -0.1865  0.2378
 4119TIP3    H133848   6.010   4.998   0.145  0.7755  0.4814  1.3339
 4119TIP3    H233849   5.869   5.054   0.139  1.4819  2.1484 -0.6837
 4120TIP3   OH233850   6.709   5.520   5.034 -0.2695  0.3975  0.6210
 4120TIP3    H133851   6.697   5.613   5.012  0.0306  0.5427  1.0507
 4120TIP3    H233852   6.738   5.480   4.952  1.7464  1.1004  0.9203
 4121TIP3   OH233853   6.528   1.127   4.463  0.0754  1.0901 -0.5377
 4121TIP3    H133854   6.620   1.120   4.488  0.3401  0.9023 -1.5075
 4121TIP3    H233855   6.482   1.148   4.544  0.5426 -1.9363  0.6107
 4122TIP3   OH233856   0.421   0.403  11.440  0.0676  0.7307  0.1368
 4122TIP3    H133857   0.448   0.384  11.350  0.8930 -1.1892  0.7225
 4122TIP3    H233858   0.326   0.394  11.439  0.0116  1.3408 -0.6679
 4123TIP3   OH233859   2.926   5.357   2.094 -0.6347  0.3799  0.1778
 4123TIP3    H133860   2.979   5.279   2.077 -1.3648  0.2835 -1.9846
 4123TIP3    H233861   2.859   5.327   2.156 -0.6418 -0.6016 -0.2832
 4124TIP3   OH233862   1.007   5.204   5.220 -0.3802  0.0069 -0.3969
 4124TIP3    H133863   1.087   5.199   5.273  0.4657  0.0352 -1.6358
 4124TIP3    H233864   0.937   5.221   5.284  0.7710  1.3282  0.5616
 4125TIP3   OH233865   0.512   5.567  10.627 -0.2751 -0.1283  0.5081
 4125TIP3    H133866   0.422   5.599  10.623 -0.9207 -1.8906 -1.7662
 4125TIP3    H233867   0.504   5.473  10.642  1.2181 -0.2475  0.7789
 4126TIP3   OH233868   6.290   5.283  10.534  0.0422 -0.0525 -0.2305
 4126TIP3    H133869   6.270   5.196  10.568 -0.8205  0.6213  1.0487
 4126TIP3    H233870   6.209   5.313  10.493  0.5973 -0.1890 -1.5069
 4127TIP3   OH233871   5.515   1.045  16.287 -0.6074 -0.0055  0.0964
 4127TIP3    H133872   5.516   0.949  16.282  0.2112 -0.3711  3.8274
 4127TIP3    H233873   5.426   1.067  16.312 -0.2489 -0.0963  1.5682
 4128TIP3   OH233874   0.655   2.997   4.271 -0.0853  0.0115  0.1575
 4128TIP3    H133875   0.729   2.997   4.210  0.8926 -2.8235  1.1777
 4128TIP3    H233876   0.660   2.912   4.314 -3.9479 -0.2766  0.3484
 4129TIP3   OH233877   3.073   0.922  11.691  0.2093 -0.0723 -0.1010
 4129TIP3    H133878   3.122   0.947  11.612  1.0606  0.5501  0.6035
 4129TIP3    H233879   3.087   0.994  11.752 -0.3350 -0.6003  0.6706
 4130TIP3   OH233880   5.882   0.024   2.491  0.4395 -0.0382  0.0050
 4130TIP3    H133881   5.854   0.113   2.471  2.7829  1.1806  1.6320
 4130TIP3    H233882   5.899   0.024   2.586  5.8628 -0.3332 -0.6101
 4131TIP3   OH233883   4.046   1.764   6.089  0.8093 -0.0922 -0.7117
 4131TIP3    H133884   3.959   1.802   6.077  1.3595  2.3210  1.7652
 4131TIP3    H233885   4.035   1.701   6.161  1.1552  0.7014  0.0640
 4132TIP3   OH233886   2.859   3.325   3.894 -0.2446  0.0071 -0.5510
 4132TIP3    H133887   2.890   3.309   3.983  0.2412  1.4473 -0.4330
 4132TIP3    H233888   2.849   3.238   3.856  0.5477 -0.6020  0.5712
 4133TIP3   OH233889   5.756   1.444  14.490  0.5805  0.3324  0.2324
 4133TIP3    H133890   5.848   1.464  14.509  0.8073 -1.5900  1.4869
 4133TIP3    H233891   5.757   1.411  14.400  1.1952  0.0197  0.3462
 4134TIP3   OH233892   0.467   2.906   4.075  0.1274 -0.3294  0.7082
 4134TIP3    H133893   0.395   2.872   4.128  0.3714  1.3132  2.1612
 4134TIP3    H233894   0.530   2.939   4.138  0.5617  1.4608 -0.5858
 4135TIP3   OH233895   2.701   3.016  11.743  0.1795  0.3089 -0.2328
 4135TIP3    H133896   2.720   3.077  11.814  1.4374 -0.2347 -0.0685
 4135TIP3    H233897   2.610   2.988  11.757  0.3172  0.4499  0.9771
 4136TIP3   OH233898   2.604   4.908  12.618 -0.0638  0.4612  0.1153
 4136TIP3    H133899   2.525   4.962  12.611 -0.6027 -0.4375 -1.1373
 4136TIP3    H233900   2.676   4.972  12.622 -0.7318  1.2864 -0.6008
 4137TIP3   OH233901   0.128   5.851   1.756 -0.5591  0.3357  0.5785
 4137TIP3    H133902   0.097   5.942   1.751  0.5546  0.6674 -1.2553
 4137TIP3    H233903   0.182   5.849   1.835  0.3155  1.6126  0.0573
 4138TIP3   OH233904   2.567   1.057   5.228 -0.4833  0.7039  0.7795
 4138TIP3    H133905   2.494   1.111   5.259  0.3555  1.7748  0.9533
 4138TIP3    H233906   2.613   1.033   5.308 -0.5792  0.1172  0.6601
 4139TIP3   OH233907   2.385   4.660   5.973 -0.4341 -0.1706 -0.0790
 4139TIP3    H133908   2.351   4.697   5.892  0.3838  0.1754 -0.2755
 4139TIP3    H233909   2.343   4.710   6.043  1.5205  2.0208 -0.3393
 4140TIP3   OH233910   5.608   3.443   4.354 -0.3170 -0.1413  0.1598
 4140TIP3    H133911   5.644   3.524   4.319  0.0546 -0.5873 -0.5394
 4140TIP3    H233912   5.600   3.386   4.277 -0.0476 -0.9522  0.7158
 4141TIP3   OH233913   6.548   0.386   3.819 -0.7275 -0.6874 -0.1958
 4141TIP3    H133914   6.625   0.356   3.868 -0.2127  0.2687 -0.4091
 4141TIP3    H233915   6.578   0.396   3.729 -0.3635  2.2057  0.1692
 4142TIP3   OH233916   5.284   4.527  12.600  0.3326  0.4505  0.0068
 4142TIP3    H133917   5.257   4.583  12.527  0.8216 -0.0815 -0.6013
 4142TIP3    H233918   5.201   4.498  12.639  0.0342  0.0826 -0.8664
 4143TIP3   OH233919   3.182   2.508  12.254  0.1099 -0.0146  0.1709
 4143TIP3    H133920   3.092   2.513  12.285 -0.7960  1.1650 -2.3557
 4143TIP3    H233921   3.216   2.597  12.263  0.9201 -0.3629  0.7380
 4144TIP3   OH233922   5.674   2.771  15.678 -0.0786 -1.3184  0.7020
 4144TIP3    H133923   5.683   2.859  15.715 -0.1197 -0.0992 -1.9609
 4144TIP3    H233924   5.584   2.768  15.644  0.2586 -1.9886 -0.1711
 4145TIP3   OH233925   2.180   2.321  11.559  0.1702  0.2855  0.4183
 4145TIP3    H133926   2.156   2.413  11.557 -0.7263  0.0518  0.0294
 4145TIP3    H233927   2.252   2.313  11.496  0.1812  0.6931  0.3785
 4146TIP3   OH233928   4.321   5.813  11.422 -0.1470  0.2664  0.0174
 4146TIP3    H133929   4.311   5.798  11.328 -1.5971 -1.5251  0.4026
 4146TIP3    H233930   4.264   5.748  11.463  0.4482  1.0066  2.1510
 4147TIP3   OH233931   1.383   1.908  14.411  0.6930 -0.3146  0.0570
 4147TIP3    H133932   1.360   1.840  14.474  2.8935 -1.2349 -0.0824
 4147TIP3    H233933   1.417   1.980  14.465  0.6276 -0.2717  0.0417
 4148TIP3   OH233934   3.919   6.495  11.259  0.1779  0.0793 -0.1476
 4148TIP3    H133935   3.941   6.402  11.256  0.7669  0.2370 -1.8016
 4148TIP3    H233936   3.852   6.506  11.191  0.0160  0.8510  0.1195
 4149TIP3   OH233937   1.259   2.616  14.781 -0.0663  0.4875 -0.5508
 4149TIP3    H133938   1.203   2.672  14.834  0.8492 -0.4849  1.5540
 4149TIP3    H233939   1.204   2.543  14.756  0.2219 -0.5035  1.5748
 4150TIP3   OH233940   3.481   0.577   3.326  0.1030 -0.1573  0.0529
 4150TIP3    H133941   3.515   0.615   3.245 -0.3570  1.1990  0.4734
 4150TIP3    H233942   3.502   0.642   3.394  1.5292 -1.7842  1.2540
 4151TIP3   OH233943   2.814   3.591   4.960  1.0417  0.0362  0.1114
 4151TIP3    H133944   2.765   3.513   4.933  2.4449 -0.8108 -0.0775
 4151TIP3    H233945   2.754   3.664   4.942 -0.0271 -0.9264 -0.3871
 4152TIP3   OH233946   2.189   3.828  13.420 -0.0880 -0.6620 -0.0826
 4152TIP3    H133947   2.226   3.740  13.410  0.8413 -0.2872 -0.0493
 4152TIP3    H233948   2.235   3.881  13.355 -0.9495 -0.2880 -0.3939
 4153TIP3   OH233949   4.023   2.778   3.511  0.0237 -0.1553  0.1898
 4153TIP3    H133950   4.075   2.829   3.574  0.5007  0.6959 -0.8573
 4153TIP3    H233951   4.087   2.743   3.449 -0.6188  1.0146 -1.1886
 4154TIP3   OH233952   2.541   5.208  12.979 -0.2611 -0.2345  0.0638
 4154TIP3    H133953   2.524   5.302  12.992 -0.4917 -0.3818  0.9271
 4154TIP3    H233954   2.596   5.204  12.902  1.0059  0.7392  0.8762
 4155TIP3   OH233955   5.126   5.679   5.339  0.4659  0.3162  0.1370
 4155TIP3    H133956   5.061   5.720   5.396 -0.0470  1.0013 -0.9161
 4155TIP3    H233957   5.095   5.589   5.328  0.2433  0.3524  0.4486
 4156TIP3   OH233958   0.067   4.065   1.138 -0.3586 -0.5637 -0.2952
 4156TIP3    H133959   0.122   4.142   1.120 -0.4826  0.0618  1.7051
 4156TIP3    H233960  -0.019   4.089   1.104 -1.1169  1.4148  2.6546
 4157TIP3   OH233961   1.301   5.164   0.585 -0.4241  0.0934 -0.0649
 4157TIP3    H133962   1.390   5.199   0.582 -0.2299 -0.3725 -2.8150
 4157TIP3    H233963   1.313   5.069   0.596 -0.6215  0.1133  0.3312
 4158TIP3   OH233964   5.155   5.444  11.088 -0.5130  0.5676 -0.3906
 4158TIP3    H133965   5.195   5.513  11.034 -0.6409  0.4325 -0.6590
 4158TIP3    H233966   5.222   5.423  11.154 -0.4462  0.8973 -0.3516
 4159TIP3   OH233967   6.731   1.516   2.624 -0.3048 -0.0673  0.0133
 4159TIP3    H133968   6.791   1.470   2.683 -1.3343 -1.1516  0.2578
 4159TIP3    H233969   6.753   1.483   2.537  0.6092  0.8573 -0.1232
 4160TIP3   OH233970   5.382   5.203  14.893  0.2410  0.5675  0.7347
 4160TIP3    H133971   5.327   5.159  14.829  1.0264  0.1722  0.3171
 4160TIP3    H233972   5.464   5.220  14.847 -0.1833  2.9310  0.7109
 4161TIP3   OH233973   2.648   4.091   1.483  0.3728  0.1940  0.0411
 4161TIP3    H133974   2.739   4.111   1.462  0.4753  1.4531  1.5196
 4161TIP3    H233975   2.599   4.168   1.455 -0.0839 -0.0052  0.2730
 4162TIP3   OH233976   5.428   5.446   2.524  0.5371  0.1380 -0.7700
 4162TIP3    H133977   5.471   5.434   2.609 -0.4194  1.9052 -0.0015
 4162TIP3    H233978   5.440   5.538   2.503 -1.9323  0.4414 -1.0480
 4163TIP3   OH233979   6.638   3.891  13.274 -0.1387 -0.0643 -0.0995
 4163TIP3    H133980   6.655   3.855  13.361  3.1625  1.3841 -0.0230
 4163TIP3    H233981   6.611   3.982  13.291 -2.1315 -0.5229 -0.5505
 4164TIP3   OH233982   0.493   5.135  11.356 -0.0502 -0.0728  0.5761
 4164TIP3    H133983   0.575   5.135  11.307  0.6677 -0.9078  1.7181
 4164TIP3    H233984   0.464   5.226  11.353  0.0057 -0.0797 -1.2774
 4165TIP3   OH233985   4.181   5.053  13.346 -0.4396  0.9539 -0.0727
 4165TIP3    H133986   4.196   4.970  13.302 -1.0521  0.9686 -0.3142
 4165TIP3    H233987   4.267   5.077  13.383 -0.6014 -0.6002  1.4219
 4166TIP3   OH233988   5.114   3.821   2.936 -0.0241  0.4319 -0.3210
 4166TIP3    H133989   5.187   3.774   2.895  0.1121  1.9204 -1.9040
 4166TIP3    H233990   5.064   3.857   2.862 -2.4500 -0.5958  0.6968
 4167TIP3   OH233991   4.090   1.839  17.076  0.3643 -0.8194 -0.4041
 4167TIP3    H133992   4.056   1.839  17.166 -0.1078 -1.7765 -0.5716
 4167TIP3    H233993   4.084   1.748  17.048 -1.5017 -0.2309 -2.1494
 4168TIP3   OH233994   1.300   5.485   3.818 -0.3237 -0.3811  0.2858
 4168TIP3    H133995   1.247   5.431   3.758 -1.3696  0.6785  0.2075
 4168TIP3    H233996   1.235   5.533   3.870  0.5792 -0.3774  1.4327
 4169TIP3   OH233997   4.818   3.688   5.768 -0.2174  0.1969 -0.5181
 4169TIP3    H133998   4.865   3.722   5.692 -2.0700  0.9940 -1.3752
 4169TIP3    H233999   4.765   3.761   5.798 -0.6703 -0.5634  0.6106
 4170TIP3   OH234000   5.614   4.074   4.220  0.4497  0.0921 -0.0787
 4170TIP3    H134001   5.519   4.085   4.230  0.5129  0.2427  0.4020
 4170TIP3    H234002   5.624   4.005   4.155  0.0178  2.2209 -2.5843
 4171TIP3   OH234003   3.760   5.740  13.538  0.0763  0.2296 -0.1447
 4171TIP3    H134004   3.784   5.817  13.589  0.1435  0.3102 -0.2958
 4171TIP3    H234005   3.816   5.745  13.460  0.7743 -0.4838  0.2986
 4172TIP3   OH234006   4.629   5.945   4.401 -0.1395  0.2780  0.2466
 4172TIP3    H134007   4.656   5.993   4.323 -0.6095  0.1857  0.0218
 4172TIP3    H234008   4.670   5.991   4.473 -0.3285  0.8339  0.0078
 4173TIP3   OH234009   5.711   6.394   3.162  0.1494  0.2620 -0.0980
 4173TIP3    H134010   5.735   6.424   3.074  1.0182  0.4422  0.1871
 4173TIP3    H234011   5.636   6.336   3.148  0.6515 -0.1872 -1.0176
 4174TIP3   OH234012   5.343   2.699  16.196  0.4850 -0.0821 -0.0682
 4174TIP3    H134013   5.437   2.697  16.178  0.3047 -2.2480 -0.9819
 4174TIP3    H234014   5.303   2.644  16.129 -1.3970  0.3045  0.6438
 4175TIP3   OH234015   1.832   3.789   3.695  0.1025  0.0355 -0.2285
 4175TIP3    H134016   1.781   3.759   3.619 -0.0905 -2.0848  0.6668
 4175TIP3    H234017   1.923   3.775   3.670 -0.0041 -2.7380  0.6366
 4176TIP3   OH234018   5.159   5.720  16.957  0.1837  0.0102 -0.1270
 4176TIP3    H134019   5.130   5.654  17.020  1.2664  0.1983  0.5838
 4176TIP3    H234020   5.082   5.734  16.900  0.0326 -2.1142 -0.5328
 4177TIP3   OH234021   5.551   6.370   6.236 -0.1786  0.0219 -0.2024
 4177TIP3    H134022   5.497   6.434   6.284 -1.1099 -0.7909 -0.1229
 4177TIP3    H234023   5.494   6.293   6.228  1.5307 -1.4602  1.2700
 4178TIP3   OH234024   2.958   4.172   4.761 -0.1059 -0.3233 -0.1868
 4178TIP3    H134025   2.958   4.092   4.709  1.3776 -0.5290  0.0871
 4178TIP3    H234026   3.042   4.171   4.807 -0.8462  0.4618  1.2678
 4179TIP3   OH234027   4.819   4.091   2.752  0.2923  0.5429  0.4901
 4179TIP3    H134028   4.886   4.078   2.686  0.5988 -0.0190  0.8992
 4179TIP3    H234029   4.758   4.017   2.739 -0.8575  1.6346 -0.5849
 4180TIP3   OH234030   2.843   0.544  16.752 -0.3025 -0.3539  0.0585
 4180TIP3    H134031   2.822   0.556  16.845 -0.8293 -1.3808  0.0790
 4180TIP3    H234032   2.802   0.461  16.728 -1.3603  0.5510 -1.4552
 4181TIP3   OH234033   6.322   3.575  14.414  0.0044  0.4309  0.3973
 4181TIP3    H134034   6.408   3.539  14.393  1.1813  3.5602 -0.7506
 4181TIP3    H234035   6.260   3.509  14.383  1.9639 -1.0212 -0.6251
 4182TIP3   OH234036   5.166   4.105   1.407  0.4581  0.5930 -0.8134
 4182TIP3    H134037   5.077   4.078   1.431  0.8168  1.0055  1.1838
 4182TIP3    H234038   5.214   4.023   1.396  0.4858  0.3510  0.8903
 4183TIP3   OH234039   2.083   0.890   5.600 -0.1392 -0.7642 -0.2880
 4183TIP3    H134040   2.106   0.924   5.686  1.2686 -0.5642 -0.7203
 4183TIP3    H234041   2.106   0.797   5.603  0.3589 -0.6547 -0.5929
 4184TIP3   OH234042   0.707   6.440   0.554 -0.7951  0.7695  0.5640
 4184TIP3    H134043   0.710   6.531   0.584  1.2824  0.7398  0.5698
 4184TIP3    H234044   0.698   6.388   0.634  1.7540  0.8397  0.9841
 4185TIP3   OH234045   0.651   4.590   1.934  0.4191  0.4903  0.8327
 4185TIP3    H134046   0.558   4.612   1.946  0.1483 -0.1227 -0.0959
 4185TIP3    H234047   0.673   4.626   1.848  0.8143 -0.1137  0.6781
 4186TIP3   OH234048   1.331   3.621  14.513 -0.3756 -0.2009 -0.0909
 4186TIP3    H134049   1.296   3.549  14.565  2.0568 -0.2682  1.6243
 4186TIP3    H234050   1.421   3.595  14.493  0.5368  2.2754  0.4572
 4187TIP3   OH234051   0.463   0.575   6.076  0.2619 -0.0569  0.1702
 4187TIP3    H134052   0.549   0.567   6.034  0.1284 -0.1262 -0.0951
 4187TIP3    H234053   0.479   0.624   6.156  0.4825  0.2981 -0.0863
 4188TIP3   OH234054   5.618   2.394   5.392 -0.1947  0.0501 -0.3692
 4188TIP3    H134055   5.617   2.328   5.462 -0.7599  2.1166  1.6689
 4188TIP3    H234056   5.696   2.373   5.341  1.0427 -0.7055  1.7200
 4189TIP3   OH234057   0.926   2.235  11.025  0.0148  0.6776  0.2780
 4189TIP3    H134058   0.984   2.206  10.955 -0.1306 -0.7400  0.7093
 4189TIP3    H234059   0.972   2.309  11.065 -0.4795  2.3549 -2.0660
 4190TIP3   OH234060   0.856   1.924   4.622  0.2006 -0.5698  0.2013
 4190TIP3    H134061   0.892   1.943   4.536 -1.7890  2.1621 -0.1596
 4190TIP3    H234062   0.779   1.870   4.605  0.2671 -0.7082  0.3344
 4191TIP3   OH234063   6.667   2.006  11.658  0.1524 -0.0008  0.0710
 4191TIP3    H134064   6.736   1.997  11.593 -1.7169 -1.5493 -1.8099
 4191TIP3    H234065   6.694   1.948  11.729  1.3233  0.3201 -0.0777
 4192TIP3   OH234066   6.547   5.749  15.817  0.4209  0.5287  0.6691
 4192TIP3    H134067   6.531   5.842  15.801 -0.9055  0.3639  0.9221
 4192TIP3    H234068   6.638   5.735  15.789  0.2090  1.6004 -0.6611
 4193TIP3   OH234069   2.924   0.720  16.546  0.6894 -0.1054 -0.5830
 4193TIP3    H134070   2.878   0.659  16.604  0.9113  0.1078 -0.1780
 4193TIP3    H234071   3.010   0.733  16.587  0.4824  0.8337 -0.4163
 4194TIP3   OH234072   0.144   5.693  15.880  0.5338 -0.4421  0.0375
 4194TIP3    H134073   0.230   5.654  15.865  1.2800  0.6353  1.3125
 4194TIP3    H234074   0.159   5.787  15.872  0.0297 -0.0757  2.6004
 4195TIP3   OH234075   6.731   6.052   2.078 -1.0347  0.2863  0.6947
 4195TIP3    H134076   6.733   6.015   1.989  3.7366 -0.3657  0.8428
 4195TIP3    H234077   6.686   5.985   2.130 -1.0324 -0.8430 -0.6902
 4196TIP3   OH234078   6.731   1.966  12.738 -0.3004  0.5507 -0.3099
 4196TIP3    H134079   6.666   2.026  12.775 -1.7906 -0.1445 -1.6504
 4196TIP3    H234080   6.789   2.022  12.686 -1.0453  0.9853 -0.6972
 4197TIP3   OH234081   2.187   1.457  16.905 -0.2369  0.1666  0.2612
 4197TIP3    H134082   2.210   1.546  16.876  1.8059 -0.2321  0.5515
 4197TIP3    H234083   2.190   1.405  16.826 -0.3197  0.1438  0.2737
 4198TIP3   OH234084   5.942   0.696  17.112 -0.2767  0.0646  0.4364
 4198TIP3    H134085   5.952   0.605  17.082  0.5076  0.4423 -0.5003
 4198TIP3    H234086   5.887   0.738  17.045  1.4968  0.9163 -0.5639
 4199TIP3   OH234087   1.488   5.590  15.388  0.1013 -0.4071 -0.2393
 4199TIP3    H134088   1.562   5.625  15.436 -1.2021 -0.1451  1.7148
 4199TIP3    H234089   1.492   5.496  15.402 -0.1552 -0.3516  0.2301
 4200TIP3   OH234090   3.271   6.189   1.313 -0.1766  0.2134 -0.3433
 4200TIP3    H134091   3.265   6.167   1.220 -1.5905 -0.8878 -0.0245
 4200TIP3    H234092   3.295   6.107   1.356 -0.4215  0.4999  0.3621
 4201TIP3   OH234093   6.423   4.937  10.775  0.7950 -0.4413 -0.1897
 4201TIP3    H134094   6.390   4.873  10.839  0.3010 -0.6508 -0.6483
 4201TIP3    H234095   6.350   4.997  10.762  1.8505  1.4268  1.7089
 4202TIP3   OH234096   6.192   0.514  15.424 -0.0602  0.2553 -0.3792
 4202TIP3    H134097   6.208   0.457  15.500  1.1305  1.1300  0.0526
 4202TIP3    H234098   6.130   0.579  15.456  1.8886  1.7831  0.4917
 4203TIP3   OH234099   6.639   5.063   4.107  0.7821 -0.0294 -0.5422
 4203TIP3    H134100   6.591   5.081   4.026  1.0045  0.7096 -0.5237
 4203TIP3    H234101   6.578   5.013   4.161  0.7068 -0.7070 -1.2449
 4204TIP3   OH234102   6.479   3.268  12.614 -0.3631  0.4303  0.0480
 4204TIP3    H134103   6.401   3.315  12.642  0.1397  1.6939 -0.5707
 4204TIP3    H234104   6.504   3.310  12.532 -0.7108 -1.9128 -1.3412
 4205TIP3   OH234105   1.336   4.130  12.111  0.4678  0.3640 -0.8172
 4205TIP3    H134106   1.302   4.085  12.034 -0.5630  1.5642 -1.1002
 4205TIP3    H234107   1.329   4.223  12.089  1.2477  0.6981  0.2794
 4206TIP3   OH234108   1.053   1.838  13.652 -0.1369  0.0090  0.0942
 4206TIP3    H134109   0.997   1.851  13.575 -1.8296 -1.9679  0.8735
 4206TIP3    H234110   1.092   1.751  13.639  0.2598  0.0288  1.0363
 4207TIP3   OH234111   2.958   1.988  13.735  0.4189 -0.1672  0.2229
 4207TIP3    H134112   2.942   2.058  13.799  2.2796  0.2167  0.3034
 4207TIP3    H234113   2.931   2.026  13.652  0.8028  0.4216  0.3633
 4208TIP3   OH234114   2.941   5.616  11.616  0.1971 -0.0375 -0.1587
 4208TIP3    H134115   2.881   5.641  11.546  1.1424 -0.9810 -1.3404
 4208TIP3    H234116   3.010   5.683  11.613 -1.5569  2.0892  2.3491
 4209TIP3   OH234117   5.711   3.116   5.397  0.1759 -0.1065 -0.2089
 4209TIP3    H134118   5.723   3.061   5.474 -2.1524  0.1924  0.4469
 4209TIP3    H234119   5.787   3.173   5.395  0.2978 -0.1552  1.8535
 4210TIP3   OH234120   5.938   4.912   1.659  0.5530 -0.2414 -0.1667
 4210TIP3    H134121   5.991   4.974   1.709  0.0183  0.3160 -0.2921
 4210TIP3    H234122   5.896   4.857   1.726  0.0189  0.3560 -0.0072
 4211TIP3   OH234123   5.387   2.099   4.120  0.8536 -0.0040  0.0673
 4211TIP3    H134124   5.404   2.066   4.209  1.2163  0.8446  0.3309
 4211TIP3    H234125   5.411   2.027   4.062  1.4485 -0.2689  0.6305
 4212TIP3   OH234126   2.904   0.569   1.453  0.8530  0.4620 -0.5157
 4212TIP3    H134127   2.838   0.538   1.391  2.1949  0.0494 -1.7857
 4212TIP3    H234128   2.873   0.654   1.482 -1.0102 -0.3844  0.1199
 4213TIP3   OH234129   1.048   4.234   2.837 -0.2811 -0.3287 -0.3662
 4213TIP3    H134130   0.965   4.229   2.884 -0.8493  1.0726 -1.1582
 4213TIP3    H234131   1.056   4.326   2.813  1.1254 -0.5944 -0.9904
 4214TIP3   OH234132   2.765   6.113   1.444  0.1818  0.3065 -0.0605
 4214TIP3    H134133   2.856   6.121   1.473  0.6359 -0.1263 -1.3046
 4214TIP3    H234134   2.763   6.155   1.358 -0.4185 -1.0225 -0.7316
 4215TIP3   OH234135   1.215   3.655   2.942  0.4006 -0.2003 -0.4273
 4215TIP3    H134136   1.134   3.609   2.920  0.2891 -0.2809  0.1470
 4215TIP3    H234137   1.214   3.662   3.037 -0.5220  2.6968 -0.5530
 4216TIP3   OH234138   1.774   3.037   1.990 -0.0217 -0.3637 -0.2011
 4216TIP3    H134139   1.868   3.021   1.984  0.0424 -0.7831  1.5401
 4216TIP3    H234140   1.767   3.132   2.002  0.3077 -0.5258  1.4573
 4217TIP3   OH234141   1.845   0.169   4.190 -0.2947  0.0968  0.5174
 4217TIP3    H134142   1.853   0.194   4.098 -1.9946  1.1619  0.6186
 4217TIP3    H234143   1.933   0.181   4.226  0.1988  0.4833 -0.7674
 4218TIP3   OH234144   4.689   4.176  15.616  0.2631 -0.4614  0.4330
 4218TIP3    H134145   4.695   4.161  15.522  0.1940  0.8037  0.2004
 4218TIP3    H234146   4.684   4.271  15.624  0.9956 -0.5131  1.7554
 4219TIP3   OH234147   4.467   3.285  15.892  0.1989  0.4225  0.3814
 4219TIP3    H134148   4.518   3.348  15.942 -0.0404  0.6643  0.3264
 4219TIP3    H234149   4.460   3.324  15.805  1.5966 -0.5300 -0.1984
 4220TIP3   OH234150   3.617   6.182  12.432 -0.1304 -0.7834 -0.4158
 4220TIP3    H134151   3.524   6.190  12.413 -0.7696 -2.6330  1.5452
 4220TIP3    H234152   3.627   6.218  12.520  1.2239  0.2433 -0.9460
 4221TIP3   OH234153   6.162   4.093   5.567  0.3279  0.6925 -0.6099
 4221TIP3    H134154   6.193   4.137   5.646  0.0805  1.6755 -1.0424
 4221TIP3    H234155   6.189   4.150   5.495  1.7943 -0.8838 -1.3726
 4222TIP3   OH234156   2.237   3.393  17.288  0.9596 -0.0934 -0.5929
 4222TIP3    H134157   2.291   3.472  17.285  2.1472 -0.8400  0.1310
 4222TIP3    H234158   2.251   3.351  17.204  0.4109  0.3997 -0.9364
 4223TIP3   OH234159   1.406   2.617  12.459  0.1399  0.0652 -0.2977
 4223TIP3    H134160   1.380   2.695  12.507  1.4040 -0.6414  1.6702
 4223TIP3    H234161   1.332   2.557  12.469  0.0304  0.2507  0.0359
 4224TIP3   OH234162   3.314   2.434   0.695  0.3232  0.4980 -0.5385
 4224TIP3    H134163   3.245   2.462   0.754  2.9272  1.3873  2.3612
 4224TIP3    H234164   3.340   2.514   0.650  0.5967  0.5357 -0.3175
 4225TIP3   OH234165   6.662   3.224   4.797 -0.3676  0.3679  0.0505
 4225TIP3    H134166   6.576   3.244   4.836 -0.0772 -0.5098  1.1895
 4225TIP3    H234167   6.720   3.211   4.872  0.6350  0.3600 -0.7081
 4226TIP3   OH234168   4.748   6.047   1.763  0.4760  0.3262 -0.1193
 4226TIP3    H134169   4.785   5.971   1.718  1.0629  1.9503 -2.6097
 4226TIP3    H234170   4.823   6.102   1.785 -0.0779  1.7173 -1.4661
 4227TIP3   OH234171   1.463   5.310   3.967 -0.3852 -0.1947 -0.2618
 4227TIP3    H134172   1.421   5.366   3.902 -2.3975 -2.1875 -0.8171
 4227TIP3    H234173   1.443   5.352   4.051 -1.2431  0.3232 -0.7082
 4228TIP3   OH234174   6.081   4.117   4.093 -0.5096  0.3782  0.0307
 4228TIP3    H134175   6.035   4.061   4.030 -1.1299  0.6477  0.2405
 4228TIP3    H234176   6.101   4.059   4.167 -0.3629  0.2232 -0.1272
 4229TIP3   OH234177   2.739   0.288  16.715  0.3563  0.3513 -0.2051
 4229TIP3    H134178   2.677   0.232  16.668  1.5248 -1.1060 -0.0889
 4229TIP3    H234179   2.759   0.240  16.796 -0.3209  2.0232  1.0200
 4230TIP3   OH234180   2.101   6.564  15.575  0.0149  0.1655 -0.1055
 4230TIP3    H134181   2.009   6.584  15.592 -0.2270 -0.3046 -0.8279
 4230TIP3    H234182   2.139   6.553  15.662 -0.0237  2.7671  0.3329
 4231TIP3   OH234183   5.457   3.147  13.180  0.4188  0.1036  0.0935
 4231TIP3    H134184   5.499   3.230  13.160  0.1913  0.3395  0.5923
 4231TIP3    H234185   5.490   3.087  13.114  1.7085  0.2356  0.5971
 4232TIP3   OH234186   6.665   2.332  14.237  0.2935 -0.2798 -0.3110
 4232TIP3    H134187   6.640   2.412  14.283 -0.0568 -0.4627 -0.1772
 4232TIP3    H234188   6.647   2.261  14.299  1.5331 -0.3948 -0.0608
 4233TIP3   OH234189   6.324   1.234   5.652 -0.1958 -0.3509 -0.1085
 4233TIP3    H134190   6.414   1.215   5.624 -0.5268  1.0616 -2.4160
 4233TIP3    H234191   6.271   1.218   5.574 -1.6257  1.1897  0.4919
 4234TIP3   OH234192   1.174   6.160   4.472 -0.1233 -0.4826  0.5463
 4234TIP3    H134193   1.174   6.100   4.547 -2.2079  1.7631  2.5356
 4234TIP3    H234194   1.098   6.133   4.420 -2.9827  1.9868  3.0538
 4235TIP3   OH234195   5.441   0.087   2.079 -0.3196 -0.3695  0.1839
 4235TIP3    H134196   5.396   0.111   1.998  2.8936  4.3773 -0.5587
 4235TIP3    H234197   5.520   0.042   2.050  0.6096  0.9277  0.6067
 4236TIP3   OH234198   5.435   1.327  11.444 -0.5686  0.7560 -0.2414
 4236TIP3    H134199   5.387   1.310  11.363 -1.1399  0.5395  0.1395
 4236TIP3    H234200   5.383   1.286  11.512 -0.3298  1.3298  0.2977
 4237TIP3   OH234201   0.975   3.709  13.803 -0.3693 -0.4112  0.0146
 4237TIP3    H134202   0.976   3.701  13.898  0.0774 -1.2364 -0.0528
 4237TIP3    H234203   1.010   3.797  13.786 -1.3445  0.1235  0.6305
 4238TIP3   OH234204   6.174   6.716   0.779  0.2271  0.1329 -0.3133
 4238TIP3    H134205   6.204   6.627   0.757  0.4937  0.0013  0.5465
 4238TIP3    H234206   6.161   6.758   0.694  0.7057 -0.5293 -0.7313
 4239TIP3   OH234207   2.898   4.466   4.579  0.2555  0.4346  0.4427
 4239TIP3    H134208   2.885   4.384   4.625  0.6288  0.2513  0.2245
 4239TIP3    H234209   2.840   4.461   4.503 -1.0322  1.1110  1.3489
 4240TIP3   OH234210   4.226   3.097   4.721  0.1007 -0.6081  0.2817
 4240TIP3    H134211   4.200   3.182   4.685  1.2615  0.4467  1.7588
 4240TIP3    H234212   4.314   3.082   4.685  0.1776 -0.8407  0.5617
 4241TIP3   OH234213   3.869   5.783   5.154  0.0375  0.4560  0.1186
 4241TIP3    H134214   3.932   5.808   5.086  1.4446  2.1997  1.9431
 4241TIP3    H234215   3.919   5.789   5.236 -1.7047 -1.1197  1.3813
 4242TIP3   OH234216   1.827   1.705  16.474  0.2393 -0.2145  0.1053
 4242TIP3    H134217   1.888   1.729  16.543 -0.9874  1.3084  0.7175
 4242TIP3    H234218   1.789   1.789  16.446  0.1731 -0.8626 -1.9300
 4243TIP3   OH234219   2.998   5.665  12.731  0.1621 -0.7303 -0.0960
 4243TIP3    H134220   3.079   5.700  12.768  0.6511 -1.8297 -0.0855
 4243TIP3    H234221   3.027   5.596  12.671 -0.7304 -0.5757 -0.7253
 4244TIP3   OH234222   1.344   3.210   5.900 -0.1102 -0.3688  0.1333
 4244TIP3    H134223   1.306   3.196   5.987  0.2796  2.0109  0.7657
 4244TIP3    H234224   1.297   3.148   5.844 -0.6554 -1.6938  1.9357
 4245TIP3   OH234225   1.951   3.781   3.337  0.3520 -0.1187  0.3237
 4245TIP3    H134226   1.887   3.845   3.307 -0.4293 -0.9799  0.1058
 4245TIP3    H234227   2.034   3.829   3.338  0.1442  0.3939 -1.6806
 4246TIP3   OH234228   5.664   2.059  11.371 -0.0099  0.0489 -0.5986
 4246TIP3    H134229   5.613   2.004  11.313 -0.2532 -0.0347 -0.3104
 4246TIP3    H234230   5.701   1.999  11.435  0.4792  0.1051 -0.8250
 4247TIP3   OH234231   3.016   2.367  13.513  0.5277  0.8708 -0.5177
 4247TIP3    H134232   2.966   2.420  13.452  2.0290 -0.0887 -2.7176
 4247TIP3    H234233   3.100   2.353  13.470  1.0347 -1.3531  0.9835
 4248TIP3   OH234234   2.799   2.380  15.228  0.8089  0.2221  0.3617
 4248TIP3    H134235   2.815   2.340  15.313  0.4185  0.3927  0.5181
 4248TIP3    H234236   2.878   2.360  15.177  0.7247 -0.5215  0.5171
 4249TIP3   OH234237   5.643   3.757   2.654  0.2358  0.1130  0.1157
 4249TIP3    H134238   5.701   3.741   2.728 -0.2834  1.8466  0.9658
 4249TIP3    H234239   5.598   3.839   2.677 -1.6060 -0.5071 -1.0876
 4250TIP3   OH234240   1.513   6.093  12.095  0.4081 -0.0763  0.0535
 4250TIP3    H134241   1.572   6.116  12.167 -1.0084  0.2523  1.1548
 4250TIP3    H234242   1.559   6.025  12.047  2.0819  0.8086  0.3255
 4251TIP3   OH234243   1.161   3.308  12.858 -0.0123 -0.4219 -0.0362
 4251TIP3    H134244   1.219   3.383  12.849  0.1995 -0.4551  1.0223
 4251TIP3    H234245   1.175   3.276  12.947  1.0143 -2.6275 -0.8983
 4252TIP3   OH234246   4.355   0.916  15.512  0.5379  0.3424  0.5066
 4252TIP3    H134247   4.261   0.906  15.528  0.2983 -0.6967 -1.2634
 4252TIP3    H234248   4.364   1.004  15.476 -0.3477 -0.7239 -2.6399
 4253TIP3   OH234249   5.015   3.060   2.741  0.1736 -0.8871  0.3300
 4253TIP3    H134250   5.033   2.993   2.674 -1.0464 -0.6464 -0.2616
 4253TIP3    H234251   4.942   3.110   2.705  1.2866  1.0146  0.5966
 4254TIP3   OH234252   0.900   3.968   5.123 -0.3330  0.3956  0.7697
 4254TIP3    H134253   0.950   3.943   5.045 -1.3314 -2.7224  0.9952
 4254TIP3    H234254   0.952   3.937   5.196 -2.5778 -3.4524  1.0012
 4255TIP3   OH234255   4.217   4.778   2.466  0.1135  0.1230  0.1896
 4255TIP3    H134256   4.288   4.796   2.527  1.5080  0.1442 -1.3643
 4255TIP3    H234257   4.207   4.860   2.416  0.4820 -0.5537 -1.0302
 4256TIP3   OH234258   2.547   4.301  13.269  0.6080  0.5832 -0.3538
 4256TIP3    H134259   2.595   4.284  13.188  0.4692 -0.1240 -0.2898
 4256TIP3    H234260   2.528   4.395  13.266 -0.9454  0.2795 -2.0028
 4257TIP3   OH234261   2.776   1.839   2.427  0.8033 -0.1899 -0.1439
 4257TIP3    H134262   2.816   1.919   2.392  1.6506 -0.1198  0.9292
 4257TIP3    H234263   2.799   1.771   2.363 -1.7613  0.7375 -2.2339
 4258TIP3   OH234264   3.783   3.199   6.285  0.0665  0.0415 -1.0335
 4258TIP3    H134265   3.736   3.279   6.264 -0.7434  0.0365  0.6308
 4258TIP3    H234266   3.838   3.222   6.359 -1.2673 -1.2786  0.4268
 4259TIP3   OH234267   4.487   6.333   1.448 -0.2011  0.0632 -0.2213
 4259TIP3    H134268   4.516   6.245   1.475 -0.2133 -0.0689 -0.6363
 4259TIP3    H234269   4.504   6.336   1.354  2.2280  1.4238  0.1789
 4260TIP3   OH234270   4.441   1.114   5.506 -0.0073 -0.1894  0.3673
 4260TIP3    H134271   4.524   1.160   5.505  0.2708 -0.6854  0.1290
 4260TIP3    H234272   4.384   1.167   5.562 -0.1140  1.1343 -0.9705
 4261TIP3   OH234273   0.035   2.970   2.230  0.1433  0.3807 -0.6194
 4261TIP3    H134274  -0.043   3.023   2.212  0.8465  1.3615 -0.8503
 4261TIP3    H234275   0.072   2.953   2.143  0.7049  0.7233 -0.4477
 4262TIP3   OH234276   1.135   0.562  13.179  0.2395 -0.3055 -0.4244
 4262TIP3    H134277   1.069   0.613  13.226  1.7336  0.8549  0.5035
 4262TIP3    H234278   1.101   0.555  13.090 -0.6952  1.0641 -0.2079
 4263TIP3   OH234279   1.897   2.745  16.102  0.9637 -0.2835  0.2479
 4263TIP3    H134280   1.973   2.688  16.087 -0.0901 -2.4033  2.2940
 4263TIP3    H234281   1.935   2.831  16.120  2.7292 -0.7167 -1.1730
 4264TIP3   OH234282   4.195   6.456   1.343 -0.2567 -0.1718 -0.0924
 4264TIP3    H134283   4.220   6.399   1.416  0.0705  0.7299  0.5344
 4264TIP3    H234284   4.276   6.465   1.292 -0.1116  0.2870  0.2100
 4265TIP3   OH234285   6.285   2.025  10.959 -0.2117  0.0351  0.1883
 4265TIP3    H134286   6.351   2.087  10.929 -0.6253  1.1511  1.4966
 4265TIP3    H234287   6.295   2.024  11.054 -1.9605  0.0886  0.3960
 4266TIP3   OH234288   2.696   3.208   2.257 -0.0985  0.3527 -0.1916
 4266TIP3    H134289   2.719   3.291   2.300 -0.6377  0.6470 -0.4517
 4266TIP3    H234290   2.689   3.231   2.164 -0.1116 -0.0177 -0.2814
 4267TIP3   OH234291   4.704   6.062   5.898  0.3560  0.2000  0.1875
 4267TIP3    H134292   4.742   6.150   5.899  0.9850 -0.0601 -0.6833
 4267TIP3    H234293   4.610   6.077   5.906  0.4476  0.9567 -0.1078
 4268TIP3   OH234294   5.582   5.271   4.566  0.2831  0.1516  0.2919
 4268TIP3    H134295   5.625   5.271   4.651 -0.6173  0.4140  0.7609
 4268TIP3    H234296   5.639   5.323   4.509  1.1656 -0.4835  0.5829
 4269TIP3   OH234297   6.107   2.848  17.151  0.4778 -0.2431  0.3247
 4269TIP3    H134298   6.050   2.884  17.083 -2.5509 -1.9375  1.7491
 4269TIP3    H234299   6.077   2.758  17.162  1.9001 -0.4975  2.8045
 4270TIP3   OH234300   2.145   2.351   1.966  0.2408  0.1494 -0.0617
 4270TIP3    H134301   2.142   2.279   2.029  0.6948 -0.8343 -1.1423
 4270TIP3    H234302   2.076   2.331   1.903  0.7934  0.3063 -0.7306
 4271TIP3   OH234303   0.630   2.341  16.845  0.2262 -0.1960 -0.3722
 4271TIP3    H134304   0.603   2.429  16.870 -1.1183 -0.6349 -0.1928
 4271TIP3    H234305   0.722   2.335  16.873  0.9608  1.7774 -2.1146
 4272TIP3   OH234306   2.295   1.582  16.234 -0.4786 -0.4499  0.3470
 4272TIP3    H134307   2.215   1.630  16.217 -0.4064  0.1567  1.5850
 4272TIP3    H234308   2.284   1.499  16.188 -1.1826  0.1996 -0.6933
 4273TIP3   OH234309   5.454   6.163  15.249  0.3960 -0.3116 -0.6178
 4273TIP3    H134310   5.510   6.174  15.326 -0.7378  1.6545 -0.0163
 4273TIP3    H234311   5.515   6.170  15.175  1.1026  0.9531  0.0401
 4274TIP3   OH234312   5.035   6.719  14.774 -0.0502 -0.2478 -0.1996
 4274TIP3    H134313   5.081   6.723  14.858 -0.8058  1.0708  0.1908
 4274TIP3    H234314   5.032   6.626  14.752 -2.2032 -0.9710  2.5767
 4275TIP3   OH234315   2.490   0.917  12.689  0.3554 -0.0500  0.4801
 4275TIP3    H134316   2.528   1.004  12.701 -1.5956  1.0266 -0.7086
 4275TIP3    H234317   2.446   0.898  12.772  0.0039  0.5220  0.4291
 4276TIP3   OH234318   0.719   6.300   1.718  0.3534 -0.1209  0.1800
 4276TIP3    H134319   0.803   6.292   1.763  0.3628 -1.1248  0.0003
 4276TIP3    H234320   0.719   6.390   1.685  0.2550  0.7334  2.3341
 4277TIP3   OH234321   1.387   0.116   0.999  0.8817 -0.0470  0.0216
 4277TIP3    H134322   1.400   0.182   1.067  0.6059  0.4170 -0.3708
 4277TIP3    H234323   1.357   0.039   1.046  0.5602  0.3140  0.4133
 4278TIP3   OH234324   0.859   0.493  14.147 -0.5727 -0.1223 -0.3348
 4278TIP3    H134325   0.929   0.557  14.163 -0.1415 -0.8904  1.0076
 4278TIP3    H234326   0.906   0.411  14.128 -1.1026 -0.5532  0.1824
 4279TIP3   OH234327   5.314   0.588  10.863  0.7461 -0.0035  0.1181
 4279TIP3    H134328   5.232   0.605  10.817  1.4064  0.1638 -1.0610
 4279TIP3    H234329   5.357   0.520  10.809  0.3422 -1.8575  2.0081
 4280TIP3   OH234330   6.700   4.329  12.270 -0.4191  0.2974 -0.5096
 4280TIP3    H134331   6.739   4.415  12.257 -1.1717  0.6388 -0.5213
 4280TIP3    H234332   6.688   4.323  12.365  0.3715 -0.1318 -0.4226
 4281TIP3   OH234333   4.589   3.819   2.044 -0.6875 -0.6732  0.5738
 4281TIP3    H134334   4.600   3.909   2.076 -0.9017 -1.1263  1.9674
 4281TIP3    H234335   4.657   3.769   2.087 -1.3384 -1.4132  0.7641
 4282TIP3   OH234336   5.452   6.614   2.224  0.1237  0.2784  0.2114
 4282TIP3    H134337   5.450   6.559   2.145  0.4365  1.9639 -1.0300
 4282TIP3    H234338   5.360   6.620   2.251 -0.3452  1.5580 -1.4616
 4283TIP3   OH234339   0.531   2.568  16.218 -0.4669  0.7882  0.2147
 4283TIP3    H134340   0.572   2.640  16.267 -1.2281  0.2444  1.7070
 4283TIP3    H234341   0.494   2.511  16.286  0.8850 -1.5038 -0.8558
 4284TIP3   OH234342   3.047   2.690  13.468  0.4492  0.0310 -0.6367
 4284TIP3    H134343   2.993   2.646  13.534 -2.4201  0.9474 -2.1997
 4284TIP3    H234344   3.121   2.724  13.518  0.1642 -2.1180  1.4933
 4285TIP3   OH234345   1.768   0.773  15.431  0.2718 -0.6016  0.3455
 4285TIP3    H134346   1.814   0.811  15.506  2.0021  1.2724 -1.5054
 4285TIP3    H234347   1.836   0.727  15.382 -0.9357 -2.2968  0.1874
 4286TIP3   OH234348   6.159   1.444  14.238  0.1353 -0.3205  0.0623
 4286TIP3    H134349   6.251   1.420  14.250 -0.0863 -2.5121 -1.9095
 4286TIP3    H234350   6.162   1.519  14.179  0.6552 -0.6729 -0.3722
 4287TIP3   OH234351   4.583   5.995   4.116 -0.1473  0.3860 -0.0924
 4287TIP3    H134352   4.507   6.042   4.152 -0.7010 -0.9086  0.5143
 4287TIP3    H234353   4.545   5.919   4.072  0.8112 -0.5005  0.5638
 4288TIP3   OH234354   6.328   2.058  13.357  0.0688 -0.0404 -0.3142
 4288TIP3    H134355   6.247   2.040  13.309 -0.0661 -2.2078  0.6296
 4288TIP3    H234356   6.343   1.979  13.409  1.7469  1.0964  1.0256
 4289TIP3   OH234357   1.525   0.369   5.985  0.2086  0.6220 -0.0411
 4289TIP3    H134358   1.548   0.314   6.060 -1.3713 -0.6941 -0.4616
 4289TIP3    H234359   1.588   0.344   5.917  0.0417 -0.0728  0.0491
 4290TIP3   OH234360   4.793   0.560  15.371 -0.7567  0.2464  0.0561
 4290TIP3    H134361   4.725   0.622  15.345 -0.2225  1.1153  0.6695
 4290TIP3    H234362   4.813   0.583  15.462  0.5729  0.2081 -0.2109
 4291TIP3   OH234363   3.189   4.039  12.787  0.2240 -0.6050  0.5159
 4291TIP3    H134364   3.220   4.090  12.862 -2.1673  1.4983  0.2074
 4291TIP3    H234365   3.206   3.948  12.812 -1.5084 -0.1232  4.2341
 4292TIP3   OH234366   2.303   1.368  14.822  0.2467 -0.7461 -0.0163
 4292TIP3    H134367   2.275   1.383  14.731  0.6800 -0.8387 -0.1672
 4292TIP3    H234368   2.221   1.362  14.871  0.0016 -0.9891 -0.4452
 4293TIP3   OH234369   2.838   2.182   2.434  0.0324 -0.4642  0.0749
 4293TIP3    H134370   2.847   2.271   2.470 -0.1833 -0.1882 -0.5454
 4293TIP3    H234371   2.924   2.143   2.447  0.8234  0.5823 -1.6055
 4294TIP3   OH234372   0.601   5.805   5.105  0.5285 -0.5041  0.0103
 4294TIP3    H134373   0.537   5.739   5.078 -0.9076  0.2895  1.3079
 4294TIP3    H234374   0.649   5.826   5.025 -2.9992  1.1827 -1.8879
 4295TIP3   OH234375   2.676   6.312   2.779 -0.4409  0.4670 -0.0574
 4295TIP3    H134376   2.726   6.346   2.704 -0.3434 -2.2458 -1.3288
 4295TIP3    H234377   2.593   6.284   2.741  0.0680 -2.0692  0.5490
 4296TIP3   OH234378   4.257   0.371  16.186 -0.5268  0.3613  0.1769
 4296TIP3    H134379   4.257   0.323  16.104 -0.4239  0.6348  0.0188
 4296TIP3    H234380   4.196   0.443  16.172  1.3821  1.9168 -0.5431
 4297TIP3   OH234381   2.963   1.017   0.127  0.5403  0.4837  0.4607
 4297TIP3    H134382   2.910   1.028   0.048  1.8546  0.1061 -0.5006
 4297TIP3    H234383   3.035   1.079   0.116  1.0581  0.0028  1.0821
 4298TIP3   OH234384   6.213   3.622  14.653  0.2063 -0.1611  0.2635
 4298TIP3    H134385   6.225   3.599  14.561 -0.0600 -1.1342  0.4568
 4298TIP3    H234386   6.298   3.659  14.680 -0.1834  1.6161 -0.7562
 4299TIP3   OH234387   4.298   5.453  10.587  0.4103  0.5593 -0.1750
 4299TIP3    H134388   4.334   5.524  10.640  0.5590  1.4867 -1.4484
 4299TIP3    H234389   4.373   5.421  10.536  0.2950 -0.3673  0.2107
 4300TIP3   OH234390   2.243   5.464   3.149 -0.0237 -0.0926  0.3482
 4300TIP3    H134391   2.234   5.559   3.146  1.5852  0.0853 -1.3369
 4300TIP3    H234392   2.302   5.448   3.222 -0.4281  0.1739  0.7418
 4301TIP3   OH234393   1.944   0.022  12.439 -0.7476 -0.3453  0.3239
 4301TIP3    H134394   1.975  -0.067  12.451  0.6121  0.0341 -0.1736
 4301TIP3    H234395   1.935   0.057  12.528 -2.4950 -1.3259  0.5856
 4302TIP3   OH234396   4.490   5.439   2.024 -0.3652 -0.4651 -0.1071
 4302TIP3    H134397   4.534   5.374   1.970  0.5807  1.7526 -2.1746
 4302TIP3    H234398   4.400   5.406   2.033  0.1123 -2.0903 -0.9396
 4303TIP3   OH234399   5.006   2.530  11.034 -0.1663  0.2706 -0.5432
 4303TIP3    H134400   4.993   2.608  10.981 -1.5647  0.5941  0.2350
 4303TIP3    H234401   5.093   2.542  11.073  0.0666  0.9259 -1.2392
 4304TIP3   OH234402   5.700   5.666  15.441 -0.2669  0.3771  0.0337
 4304TIP3    H134403   5.681   5.741  15.497 -0.8725 -0.2415  0.6682
 4304TIP3    H234404   5.631   5.603  15.460 -0.2434 -0.0166 -1.1071
 4305TIP3   OH234405   2.972   3.747  16.216  0.4058  0.6594 -0.0520
 4305TIP3    H134406   2.909   3.813  16.187  1.0862  0.7132 -1.4953
 4305TIP3    H234407   3.022   3.726  16.138  0.6097 -1.1367  0.5202
 4306TIP3   OH234408   3.529   2.350  16.339 -0.0504 -0.0791 -0.4716
 4306TIP3    H134409   3.448   2.358  16.287 -0.6634  0.7885  0.5774
 4306TIP3    H234410   3.507   2.287  16.408 -1.1341  2.7884  2.0436
 4307TIP3   OH234411   3.527   2.922  12.146  0.5006  0.5550 -0.2416
 4307TIP3    H134412   3.488   3.008  12.131  1.8746  0.7201 -3.8568
 4307TIP3    H234413   3.621   2.940  12.152  0.9824 -0.6824 -2.6485
 4308TIP3   OH234414   6.760   1.146  15.026  0.0560  0.2404  0.2774
 4308TIP3    H134415   6.668   1.145  15.053  0.2035 -1.8623  0.8498
 4308TIP3    H234416   6.797   1.067  15.065  2.0205  0.8307 -0.3021
 4309TIP3   OH234417   1.454   4.427  11.410 -0.3134  0.0420 -0.6859
 4309TIP3    H134418   1.522   4.396  11.350 -1.0749  0.3887 -1.7750
 4309TIP3    H234419   1.393   4.353  11.417  1.4256 -1.2462  2.3578
 4310TIP3   OH234420   0.428   0.635  11.058 -0.2290  0.1007 -0.5329
 4310TIP3    H134421   0.514   0.648  11.018 -0.4819  0.2065 -1.0634
 4310TIP3    H234422   0.439   0.559  11.115  1.3039  2.4974  2.6654
 4311TIP3   OH234423   6.338   4.852   2.252 -0.2279  0.3263 -0.1577
 4311TIP3    H134424   6.431   4.864   2.233 -0.6836  0.8700 -2.3253
 4311TIP3    H234425   6.327   4.757   2.260  0.8315  0.3357  2.2957
 4312TIP3   OH234426   0.499   1.142   4.478  0.7552  0.2265  0.0418
 4312TIP3    H134427   0.542   1.067   4.519  0.3477 -0.0299  0.0087
 4312TIP3    H234428   0.524   1.136   4.386  3.4553  2.0264  0.5409
 4313TIP3   OH234429   4.399   1.081  16.623 -0.3925  0.2727 -0.0719
 4313TIP3    H134430   4.451   1.063  16.701 -1.6284 -0.0525  0.6891
 4313TIP3    H234431   4.465   1.090  16.553  0.6581 -0.7353  0.7367
 4314TIP3   OH234432   1.218   0.808  13.568  0.0800 -0.0581 -0.4795
 4314TIP3    H134433   1.219   0.737  13.633 -2.1353  0.3369  0.0744
 4314TIP3    H234434   1.174   0.881  13.613 -0.9178  0.4472 -2.1931
 4315TIP3   OH234435   2.563   0.348   1.024  0.2814 -0.0672 -0.1019
 4315TIP3    H134436   2.534   0.324   0.937 -1.7732  0.7579  0.2923
 4315TIP3    H234437   2.633   0.411   1.010 -1.9078  2.3062 -1.2954
 4316TIP3   OH234438   5.714   1.354  17.290  0.1105 -0.0476 -0.1463
 4316TIP3    H134439   5.675   1.293  17.228  1.5161 -1.2339  0.0802
 4316TIP3    H234440   5.676   1.439  17.268 -1.0182 -0.8059 -1.2264
 4317TIP3   OH234441   1.096   5.322   4.186 -0.4217  0.0033  0.1124
 4317TIP3    H134442   1.086   5.380   4.110 -0.9003 -1.0164 -0.6295
 4317TIP3    H234443   1.050   5.242   4.161 -2.6257  0.4357  2.3731
 4318TIP3   OH234444   3.175   0.267   0.735 -0.1341  0.1878 -0.2465
 4318TIP3    H134445   3.198   0.266   0.828 -1.3885  0.4458  0.0821
 4318TIP3    H234446   3.231   0.335   0.697  1.1126 -0.6062  0.1021
 4319TIP3   OH234447   5.871   0.149  15.295 -0.5374  0.2371  0.3186
 4319TIP3    H134448   5.906   0.229  15.256 -1.1435 -0.0355 -0.8556
 4319TIP3    H234449   5.833   0.177  15.378  0.6492  0.8775  0.6626
 4320TIP3   OH234450   0.781   0.551   2.320  0.1241  0.1573  0.0745
 4320TIP3    H134451   0.848   0.608   2.281  0.7689 -0.6607 -0.0401
 4320TIP3    H234452   0.814   0.533   2.408 -0.8785  1.2558  0.7021
 4321TIP3   OH234453   5.516   5.026  11.549  0.0234 -0.1073  0.0973
 4321TIP3    H134454   5.567   5.092  11.596 -0.1230  0.7047 -0.8326
 4321TIP3    H234455   5.452   4.994  11.613 -0.7876  1.6341  0.2148
 4322TIP3   OH234456   3.360   2.969   0.524 -0.0264 -0.1815 -0.5404
 4322TIP3    H134457   3.432   3.027   0.549  0.6314 -0.6878 -1.2259
 4322TIP3    H234458   3.372   2.955   0.430 -1.3146  0.1253 -0.7713
 4323TIP3   OH234459   5.237   4.039  14.008 -0.0410  0.2659  0.6335
 4323TIP3    H134460   5.188   3.958  14.019  0.7600 -0.0220  2.4448
 4323TIP3    H234461   5.206   4.095  14.079 -0.5071  1.5427 -0.5329
 4324TIP3   OH234462   3.081   1.138  15.711 -0.1562  0.2610  0.5137
 4324TIP3    H134463   3.144   1.209  15.723 -1.6326  1.7749 -0.1836
 4324TIP3    H234464   3.086   1.116  15.618 -1.1130  0.8941  0.2947
 4325TIP3   OH234465   2.464   0.348   0.368  0.3475 -0.3935 -0.0969
 4325TIP3    H134466   2.449   0.357   0.273  2.3814  2.0952 -0.2956
 4325TIP3    H234467   2.424   0.427   0.405 -0.4331 -1.3556  1.1522
 4326TIP3   OH234468   1.683   0.804   0.767 -0.2717  0.5515  0.5818
 4326TIP3    H134469   1.697   0.752   0.846 -3.0396  0.2250  0.9549
 4326TIP3    H234470   1.770   0.834   0.742  0.8066 -0.2019  3.1496
 4327TIP3   OH234471   4.929   0.890  13.101  0.2265 -0.7344  0.2961
 4327TIP3    H134472   4.959   0.882  13.192  0.9617  0.0247  0.1322
 4327TIP3    H234473   4.968   0.972  13.071  0.4032 -1.2388 -0.8694
 4328TIP3   OH234474   1.866   3.655   0.452 -0.0838  0.2990  0.1530
 4328TIP3    H134475   1.846   3.646   0.546  1.4376  1.1936  0.5991
 4328TIP3    H234476   1.914   3.576   0.430  0.5603  0.6113  0.4235
 4329TIP3   OH234477   3.377   1.887   5.662 -0.2789  0.2617  0.2489
 4329TIP3    H134478   3.298   1.937   5.642 -1.1212 -1.2602 -0.4230
 4329TIP3    H234479   3.349   1.824   5.729  0.5240  0.0661  0.4152
 4330TIP3   OH234480   5.106   2.064  12.678 -0.2154  0.0032  0.2594
 4330TIP3    H134481   5.094   2.119  12.600 -0.0561 -0.5583 -0.1648
 4330TIP3    H234482   5.017   2.042  12.706 -0.3174  1.2834  1.0236
 4331TIP3   OH234483   3.098   3.504  17.005  0.1518 -0.3519 -0.0254
 4331TIP3    H134484   3.153   3.505  16.926 -0.1326 -0.0191 -0.2228
 4331TIP3    H234485   3.107   3.593  17.040 -0.8112 -0.0870 -0.4405
 4332TIP3   OH234486   6.453   1.978  17.060 -0.1331 -0.2723  0.1847
 4332TIP3    H134487   6.403   2.019  16.989  2.1575  0.4857 -1.0997
 4332TIP3    H234488   6.462   1.887  17.033 -1.3609 -0.6028  0.7929
 4333TIP3   OH234489   5.450   4.182  17.305 -0.6204 -0.0995  0.2701
 4333TIP3    H134490   5.450   4.097  17.259 -0.7590  0.2691 -0.4221
 4333TIP3    H234491   5.483   4.161  17.392 -3.8249 -1.4788  1.2917
 4334TIP3   OH234492   1.239   6.205  16.334  0.1669  0.0993 -0.5150
 4334TIP3    H134493   1.288   6.272  16.286 -0.4092 -0.3848 -1.8168
 4334TIP3    H234494   1.157   6.197  16.287  0.1797 -1.4497 -0.3115
 4335TIP3   OH234495   4.820   0.208   1.185  0.1634  0.2954  0.0427
 4335TIP3    H134496   4.731   0.187   1.155 -0.2406  1.6311  0.2638
 4335TIP3    H234497   4.812   0.292   1.230  1.6238  0.6791 -0.3498
 4336TIP3   OH234498   2.013   3.644  13.192 -0.6142 -0.3584  0.8784
 4336TIP3    H134499   2.048   3.676  13.109 -2.8148 -1.2245 -0.4544
 4336TIP3    H234500   2.074   3.576  13.219  1.1235  1.1459  0.9585
 4337TIP3   OH234501   5.399   1.400  14.270 -0.5824  0.3402 -0.0705
 4337TIP3    H134502   5.398   1.383  14.176 -0.0099  0.0582 -0.0331
 4337TIP3    H234503   5.438   1.487  14.279 -1.1881  0.6214 -0.1230
 4338TIP3   OH234504   6.735   5.977   1.147  0.2027  0.2811 -0.6762
 4338TIP3    H134505   6.674   6.039   1.186  0.5381  1.9607 -2.6699
 4338TIP3    H234506   6.680   5.919   1.095  0.1695  1.2096 -1.7154
 4339TIP3   OH234507   3.077   6.183   5.784  0.5815 -0.4995  0.3128
 4339TIP3    H134508   3.106   6.226   5.704  1.0633  0.0645  0.7791
 4339TIP3    H234509   3.055   6.255   5.843 -1.1826 -0.8971  0.2121
 4340TIP3   OH234510   6.396   5.426  11.370  0.5715 -0.5427 -0.5526
 4340TIP3    H134511   6.410   5.370  11.294  2.1349 -1.4078  0.3146
 4340TIP3    H234512   6.484   5.456  11.395  0.5643 -2.6232  2.5699
 4341TIP3   OH234513   3.865   0.145   0.618  0.8022 -0.6153  0.2858
 4341TIP3    H134514   3.805   0.074   0.642  0.3880  0.0614  1.3524
 4341TIP3    H234515   3.905   0.171   0.701  2.4708 -0.9457 -0.3846
 4342TIP3   OH234516   5.999   1.651  15.127 -0.1975  0.7185  0.5274
 4342TIP3    H134517   5.914   1.685  15.156 -0.4177 -0.7465  1.6648
 4342TIP3    H234518   5.977   1.581  15.065  0.0593 -1.2274  2.5283
 4343TIP3   OH234519   5.678   0.154  12.663  0.1710  0.3774 -0.6856
 4343TIP3    H134520   5.617   0.094  12.705 -0.6961  0.7755 -1.3563
 4343TIP3    H234521   5.629   0.192  12.591  1.0126  1.1843 -0.8527
 4344TIP3   OH234522   5.862   5.217  14.662  0.3449 -0.4316 -0.1073
 4344TIP3    H134523   5.848   5.123  14.676  1.4165 -0.5326  0.4388
 4344TIP3    H234524   5.881   5.251  14.750  1.8641 -0.0699 -0.5427
 4345TIP3   OH234525   1.620   4.605  12.556  0.0782  0.2113  0.2822
 4345TIP3    H134526   1.576   4.532  12.600 -0.6033 -0.1868 -1.0154
 4345TIP3    H234527   1.596   4.596  12.464  1.2612  1.1744 -0.1502
 4346TIP3   OH234528   2.711   2.061  16.305  0.3123  0.2853 -0.3100
 4346TIP3    H134529   2.723   1.976  16.262 -0.4315 -0.4311  0.8325
 4346TIP3    H234530   2.800   2.089  16.328  0.7839  0.9388 -2.6789
 4347TIP3   OH234531   3.262   1.324   2.523  0.3588  0.0707 -0.6147
 4347TIP3    H134532   3.285   1.358   2.609  0.5886  0.5026 -0.8443
 4347TIP3    H234533   3.339   1.340   2.469  0.0966  0.0979 -0.9847
 4348TIP3   OH234534   3.460   1.826  14.663  0.4519  0.4148 -0.0673
 4348TIP3    H134535   3.401   1.808  14.590 -0.0148  1.0267  0.1568
 4348TIP3    H234536   3.539   1.776  14.643  0.0225 -0.0660 -0.5854
 4349TIP3   OH234537   2.662   0.969   4.262  0.1809 -0.1415  0.6775
 4349TIP3    H134538   2.695   0.931   4.343  0.2561  1.3808  1.4090
 4349TIP3    H234539   2.689   1.061   4.266 -2.8912  0.8742  0.6801
 4350TIP3   OH234540   2.803   5.662  16.406  0.1151 -0.3183 -0.3423
 4350TIP3    H134541   2.811   5.603  16.331 -0.4819 -2.8049  1.3836
 4350TIP3    H234542   2.833   5.609  16.480 -2.4096  0.7993  1.6367
 4351TIP3   OH234543   1.163   0.249  17.223 -0.3285  0.4623  0.0687
 4351TIP3    H134544   1.132   0.297  17.146  0.4224 -0.4996 -0.8518
 4351TIP3    H234545   1.253   0.279  17.235  0.2369 -0.8804 -0.6776
 4352TIP3   OH234546   3.242   0.504  12.096 -0.0287 -0.0846  0.0834
 4352TIP3    H134547   3.251   0.439  12.165 -1.2335 -0.6721 -0.2867
 4352TIP3    H234548   3.324   0.553  12.098  0.8013 -1.4510  0.5223
 4353TIP3   OH234549   3.763   0.193   4.952  0.1711  0.0920  1.1039
 4353TIP3    H134550   3.701   0.236   5.010 -0.9472  0.9692 -0.6559
 4353TIP3    H234551   3.732   0.103   4.946 -0.0456  0.1469  1.3960
 4354TIP3   OH234552   6.529   1.937   2.164 -0.1094  0.0745  0.1488
 4354TIP3    H134553   6.615   1.979   2.159 -0.0100 -0.2167 -0.8111
 4354TIP3    H234554   6.468   2.002   2.129 -0.2899  0.2764  0.8167
 4355TIP3   OH234555   5.969   0.233  13.258  0.0824 -0.0677 -0.1788
 4355TIP3    H134556   5.932   0.175  13.192  0.4289  0.9445 -1.3003
 4355TIP3    H234557   5.919   0.214  13.337 -1.8862  0.2342 -1.2719
 4356TIP3   OH234558   0.201   2.145  12.865  0.2426 -0.1296 -0.3553
 4356TIP3    H134559   0.165   2.161  12.777  0.3047  1.1432 -0.1667
 4356TIP3    H234560   0.125   2.148  12.923  0.5417  2.3771  0.0203
 4357TIP3   OH234561   0.342   6.081  12.572 -0.0097 -0.0098  0.3588
 4357TIP3    H134562   0.311   6.006  12.521  0.4046 -0.7114  1.1170
 4357TIP3    H234563   0.347   6.049  12.662  0.6495  0.7833  0.6197
 4358TIP3   OH234564   3.525   4.386   5.662 -0.5680 -0.2410 -0.4821
 4358TIP3    H134565   3.560   4.342   5.739  0.3497  1.8743  0.4036
 4358TIP3    H234566   3.601   4.429   5.622 -1.3900  0.5368 -1.2657
 4359TIP3   OH234567   6.627   0.074  10.779  0.0276 -0.5865  0.1181
 4359TIP3    H134568   6.669   0.088  10.695  0.0952  0.2702  0.2879
 4359TIP3    H234569   6.568   0.149  10.789 -0.2350 -0.8612  0.6756
 4360TIP3   OH234570   6.715   0.855   2.451  0.6184 -0.1837 -0.0256
 4360TIP3    H134571   6.796   0.906   2.455 -0.2554  1.2407  1.2826
 4360TIP3    H234572   6.646   0.922   2.447 -0.5031 -1.3428 -0.5757
 4361TIP3   OH234573   5.330   2.353   3.721 -0.1348 -0.4634 -0.6255
 4361TIP3    H134574   5.386   2.275   3.723  0.3835 -0.0895  0.1229
 4361TIP3    H234575   5.288   2.354   3.807  1.2112  1.0302  0.0495
 4362TIP3   OH234576   3.877   3.090   1.132  0.6670 -0.5411 -0.6511
 4362TIP3    H134577   3.820   3.083   1.209 -1.3430  0.2013 -1.9943
 4362TIP3    H234578   3.873   3.004   1.091  3.3740 -1.6271  1.0248
 4363TIP3   OH234579   0.664   1.543   6.140  0.1020  0.0218  0.2238
 4363TIP3    H134580   0.712   1.626   6.138  0.6042 -0.2662 -0.7027
 4363TIP3    H234581   0.723   1.482   6.184 -0.7213  0.3957  1.9176
 4364TIP3   OH234582   1.956   0.451   3.403  0.3594  0.3459  0.2088
 4364TIP3    H134583   1.864   0.444   3.380  0.5426  0.4302 -0.5508
 4364TIP3    H234584   1.980   0.541   3.381  0.8373  0.0778 -0.3782
 4365TIP3   OH234585   1.336   3.834  15.311 -0.4303 -0.0619  0.4659
 4365TIP3    H134586   1.321   3.928  15.320 -1.0303 -0.3312  2.8835
 4365TIP3    H234587   1.431   3.824  15.316 -0.2900  0.4625 -0.7846
 4366TIP3   OH234588   2.561   3.027  11.089  0.1018  0.5247  0.1471
 4366TIP3    H134589   2.545   2.953  11.030 -2.8926  0.4497  0.9051
 4366TIP3    H234590   2.540   3.104  11.036 -0.9974  0.5559  0.6211
 4367TIP3   OH234591   0.568   1.525   1.536 -0.1148  0.1098 -0.4037
 4367TIP3    H134592   0.475   1.543   1.533  0.1979  2.1603  0.7066
 4367TIP3    H234593   0.594   1.540   1.627  1.0460 -2.0257 -0.2985
 4368TIP3   OH234594   1.956   5.603  11.745  0.5102  0.6750  0.1056
 4368TIP3    H134595   1.913   5.639  11.668 -0.1488 -0.6330 -0.1766
 4368TIP3    H234596   1.885   5.581  11.804  0.9440  0.6306  0.6234
 4369TIP3   OH234597   1.519   1.819  17.028 -0.3164 -0.6591 -0.4478
 4369TIP3    H134598   1.554   1.856  16.947 -1.3126 -0.4574 -0.8014
 4369TIP3    H234599   1.494   1.895  17.080  0.0916 -0.7945 -0.0472
 4370TIP3   OH234600   1.165   1.755  14.229  0.5043  0.0432  0.3730
 4370TIP3    H134601   1.204   1.791  14.150 -1.6143  0.8973 -0.3394
 4370TIP3    H234602   1.232   1.767  14.296  1.8143  0.5711 -0.9792
 4371TIP3   OH234603   3.571   4.184  16.685  0.2813 -0.1406 -0.3995
 4371TIP3    H134604   3.538   4.256  16.738  1.5257  0.1406  0.0434
 4371TIP3    H234605   3.494   4.130  16.666 -0.3097  0.0665  1.2056
 4372TIP3   OH234606   3.052   3.232  13.007 -0.0304 -0.2877 -0.2152
 4372TIP3    H134607   3.115   3.278  12.951 -0.6832 -0.4419 -1.0870
 4372TIP3    H234608   3.106   3.194  13.076  0.7902 -0.0654 -0.7159
 4373TIP3   OH234609   1.515   0.025  16.937  0.1821 -0.0740 -0.4997
 4373TIP3    H134610   1.427  -0.013  16.934  0.5317 -0.9875  0.2801
 4373TIP3    H234611   1.542   0.031  16.846 -0.3179 -0.6944 -0.6980
 4374TIP3   OH234612   2.930   3.989  13.034  0.6748 -0.1206  0.2508
 4374TIP3    H134613   3.000   4.040  12.994 -0.6780  0.2224 -1.8568
 4374TIP3    H234614   2.909   3.922  12.969  0.1004 -1.2250  1.5179
 4375TIP3   OH234615   3.558   1.559   5.827  0.4398  0.1242 -0.0452
 4375TIP3    H134616   3.551   1.611   5.907 -0.2502  0.4421 -0.3044
 4375TIP3    H234617   3.607   1.481   5.853 -0.8208 -0.3626  0.9878
 4376TIP3   OH234618   2.656   5.640   1.139 -0.0698  0.0828  0.7573
 4376TIP3    H134619   2.716   5.714   1.140 -0.8179  0.6963  1.0781
 4376TIP3    H234620   2.629   5.630   1.048  0.8230 -0.4590  0.5408
 4377TIP3   OH234621   1.019   1.556  15.890 -0.9024 -0.5803 -0.1401
 4377TIP3    H134622   1.055   1.503  15.962 -0.3102 -0.8139 -0.5946
 4377TIP3    H234623   1.017   1.645  15.924  1.6199 -0.2754 -0.5889
 4378TIP3   OH234624   3.681   2.355  12.104  0.0966  0.2013  0.3017
 4378TIP3    H134625   3.631   2.410  12.164 -0.5928  0.9279 -0.8840
 4378TIP3    H234626   3.614   2.312  12.050  0.6585 -1.2420  0.7155
 4379TIP3   OH234627   0.417   2.213   0.030  0.7467 -0.2334  0.1936
 4379TIP3    H134628   0.450   2.146   0.091  3.7152 -0.0603 -1.0749
 4379TIP3    H234629   0.490   2.231  -0.028 -1.3062  1.1322 -2.1689
 4380TIP3   OH234630   5.493   2.798   5.371 -0.3817  0.0900  0.0921
 4380TIP3    H134631   5.567   2.808   5.312  1.2527  1.3627  2.2210
 4380TIP3    H234632   5.417   2.791   5.313  1.1528  0.8301 -2.1362
 4381TIP3   OH234633   1.032   3.354   4.768 -0.1664  0.0982 -0.0498
 4381TIP3    H134634   0.959   3.402   4.729 -1.3688 -1.0311  0.7192
 4381TIP3    H234635   1.016   3.359   4.863  0.4948 -0.5792  0.1088
 4382TIP3   OH234636   6.220   5.898  16.623  0.1043  0.2273  0.3989
 4382TIP3    H134637   6.132   5.908  16.659  0.9106 -0.7709  2.8945
 4382TIP3    H234638   6.275   5.951  16.680  1.2461  0.0822 -0.5410
 4383TIP3   OH234639   5.468   5.971  11.998 -0.6699  0.6072 -0.2455
 4383TIP3    H134640   5.549   5.919  11.996 -1.4820 -0.8065  1.3851
 4383TIP3    H234641   5.403   5.915  11.956 -1.2982  0.7632  0.5027
 4384TIP3   OH234642   4.664   0.956  13.828  0.4112  0.5065 -0.4336
 4384TIP3    H134643   4.610   1.010  13.886 -0.0234  0.1448 -0.4984
 4384TIP3    H234644   4.615   0.874  13.819  1.5801 -0.3229  0.5221
 4385TIP3   OH234645   1.511   2.586  11.666  0.3675  0.2467  0.4863
 4385TIP3    H134646   1.505   2.626  11.753  1.8368  1.2694  0.1413
 4385TIP3    H234647   1.509   2.660  11.606 -1.2598 -0.4845 -0.4307
 4386TIP3   OH234648   5.553   4.050  12.540  0.0340 -0.2057  0.6971
 4386TIP3    H134649   5.532   4.142  12.524  0.6629 -0.4446 -1.7611
 4386TIP3    H234650   5.480   4.001  12.501 -0.0699 -0.7891  1.5883
 4387TIP3   OH234651   6.474   3.848   1.363 -0.0785  0.1493  0.4726
 4387TIP3    H134652   6.383   3.863   1.389  0.4684  1.0322  2.0307
 4387TIP3    H234653   6.489   3.755   1.378 -1.2088 -0.4266 -1.5576
 4388TIP3   OH234654   6.119   4.395   3.172 -0.0844  0.3577  0.2228
 4388TIP3    H134655   6.171   4.417   3.250  1.3888  0.2778 -0.7077
 4388TIP3    H234656   6.111   4.300   3.175  0.8769  0.2479 -0.2542
 4389TIP3   OH234657   5.910   2.914   4.548 -0.4079 -0.8977 -0.2232
 4389TIP3    H134658   5.846   2.900   4.618 -1.6268 -0.5084 -1.2292
 4389TIP3    H234659   5.926   2.827   4.512 -0.3010 -1.0082  0.0875
 4390TIP3   OH234660   4.519   4.133   0.628 -0.0186  0.1468  0.2350
 4390TIP3    H134661   4.508   4.039   0.618  4.7018 -0.6961  0.6119
 4390TIP3    H234662   4.509   4.150   0.722  1.5757 -0.5270  0.5567
 4391TIP3   OH234663   4.162   5.446  12.018 -0.2766  0.0836 -0.1233
 4391TIP3    H134664   4.180   5.440  12.111  0.4413  0.0487 -0.2594
 4391TIP3    H234665   4.144   5.539  12.002 -0.4959  0.0725  0.0673
 4392TIP3   OH234666   2.387   2.193  16.108  0.2971  0.3185  0.0236
 4392TIP3    H134667   2.428   2.107  16.115  2.2507  1.0678 -1.3233
 4392TIP3    H234668   2.459   2.252  16.084 -1.5445  1.7574 -2.4300
 4393TIP3   OH234669   4.191   6.555   0.464  0.1811 -0.5043  0.1679
 4393TIP3    H134670   4.248   6.546   0.540  0.2304 -0.3685  0.1476
 4393TIP3    H234671   4.117   6.498   0.482 -0.0610 -0.0697  0.5605
 4394TIP3   OH234672   1.759   2.125  16.603  0.0829 -0.5607 -0.1627
 4394TIP3    H134673   1.768   2.212  16.565 -0.2449  0.0477  1.0767
 4394TIP3    H234674   1.703   2.139  16.680 -1.1532 -2.1031 -0.7291
 4395TIP3   OH234675   6.483   5.982  13.571  0.7487 -0.0741 -0.2034
 4395TIP3    H134676   6.528   5.939  13.644  0.0461 -0.1338  0.2069
 4395TIP3    H234677   6.484   5.918  13.500  2.8498  0.5661 -0.8114
 4396TIP3   OH234678   5.201   5.971  11.276 -0.5901 -0.2814 -0.7130
 4396TIP3    H134679   5.142   5.972  11.200 -0.5745  2.4606 -0.7640
 4396TIP3    H234680   5.288   5.962  11.238 -0.6043  0.7916 -1.0375
 4397TIP3   OH234681   0.747   1.240  16.386 -0.0180 -0.1219  0.0014
 4397TIP3    H134682   0.679   1.240  16.318  0.4108 -0.1610 -0.4329
 4397TIP3    H234683   0.796   1.159  16.370 -0.1782 -0.3448  0.6270
 4398TIP3   OH234684   0.406   0.103   3.308  0.4318 -0.1303 -0.1800
 4398TIP3    H134685   0.357   0.158   3.370 -0.2441 -0.6305 -0.2561
 4398TIP3    H234686   0.493   0.143   3.304  0.9983 -0.9174  2.2406
 4399TIP3   OH234687   0.054   6.505  16.293  0.6645  0.2968 -0.7911
 4399TIP3    H134688   0.053   6.423  16.243  1.0361 -0.2995  0.1547
 4399TIP3    H234689   0.057   6.574  16.226  0.0901 -0.4475 -1.5991
 4400TIP3   OH234690   2.640   1.712   5.441 -0.1937 -0.0573  0.5074
 4400TIP3    H134691   2.677   1.666   5.365  1.0733  3.1396 -1.0295
 4400TIP3    H234692   2.694   1.685   5.515  2.9153  1.5110 -0.9997
 4401TIP3   OH234693   1.091   3.306  17.263  0.1946  0.1764 -0.4061
 4401TIP3    H134694   1.116   3.325  17.172  1.9114  0.1888  0.0313
 4401TIP3    H234695   1.104   3.211  17.272 -0.1843  0.1405 -0.2248
 4402TIP3   OH234696   1.462   2.835  11.534 -0.3582  0.1510  0.4104
 4402TIP3    H134697   1.474   2.863  11.443 -0.2116  1.1052  0.7220
 4402TIP3    H234698   1.458   2.916  11.584 -1.1575 -0.3429  1.1756
 4403TIP3   OH234699   0.572   5.299   0.344 -0.0521  0.9194  0.0478
 4403TIP3    H134700   0.619   5.292   0.427  0.7968  1.7850 -0.3380
 4403TIP3    H234701   0.528   5.215   0.334  0.6404  0.4388  0.8977
 4404TIP3   OH234702   2.786   6.061   0.287  0.0140  0.0641 -0.0426
 4404TIP3    H134703   2.836   5.998   0.338 -0.2836  1.3008  1.9043
 4404TIP3    H234704   2.723   6.098   0.349  0.7005  2.8239 -0.8359
 4405TIP3   OH234705   2.967   4.291  15.916  0.3181  0.1743 -0.5571
 4405TIP3    H134706   2.889   4.325  15.873 -0.1304 -0.4712 -0.2673
 4405TIP3    H234707   3.040   4.326  15.865 -0.1931 -0.1814 -1.5418
 4406TIP3   OH234708   5.351   0.456  11.384  0.1679  0.1942  0.3599
 4406TIP3    H134709   5.363   0.535  11.438  0.2287  0.5609 -0.1853
 4406TIP3    H234710   5.414   0.393  11.419 -1.2071 -0.3218  2.0948
 4407TIP3   OH234711   6.314   3.942   2.586 -0.5007 -0.5032  0.1242
 4407TIP3    H134712   6.292   3.977   2.673 -0.2958  1.5051 -0.5896
 4407TIP3    H234713   6.327   3.849   2.601  0.8016 -0.0208  2.5133
 4408TIP3   OH234714   6.046   6.040   5.185  0.2068  0.1704 -0.4377
 4408TIP3    H134715   6.066   5.995   5.267 -1.1701 -0.4644 -0.4191
 4408TIP3    H234716   5.982   5.984   5.142 -1.4434  1.9930 -0.5069
 4409TIP3   OH234717   2.979   1.184   4.796  0.4749  0.3263  0.1437
 4409TIP3    H134718   2.988   1.110   4.736  0.8521  0.8030 -0.4035
 4409TIP3    H234719   3.063   1.230   4.791  1.1360 -0.5308  2.3014
 4410TIP3   OH234720   6.108   0.486   3.359 -0.1048 -0.1195  0.1099
 4410TIP3    H134721   6.099   0.392   3.372 -0.1724 -0.2084 -0.5274
 4410TIP3    H234722   6.117   0.522   3.447 -0.6213 -0.6670  0.3984
 4411TIP3   OH234723   0.410   3.401   1.190 -0.3777  0.3577 -0.0983
 4411TIP3    H134724   0.436   3.346   1.116 -2.7823  0.3840 -1.0486
 4411TIP3    H234725   0.435   3.490   1.163  0.0952  0.1962 -0.2086
 4412TIP3   OH234726   2.141   4.302   1.120 -0.0261  0.4923 -0.0052
 4412TIP3    H134727   2.149   4.256   1.204 -1.8343  1.8204  0.9545
 4412TIP3    H234728   2.187   4.385   1.133  1.0220  0.0718 -0.8777
 4413TIP3   OH234729   5.289   4.161   3.891  0.0595  0.2525 -0.0226
 4413TIP3    H134730   5.196   4.145   3.910 -0.3762  1.8510 -0.5769
 4413TIP3    H234731   5.288   4.233   3.828  1.6688 -0.3431 -0.7833
 4414TIP3   OH234732   4.511   5.962  15.448 -0.6339 -0.0100  0.4739
 4414TIP3    H134733   4.469   6.031  15.499  0.3728  1.0046 -0.0182
 4414TIP3    H234734   4.476   5.972  15.360  0.9524  1.1916 -0.0698
 4415TIP3   OH234735   1.059   3.525   6.001 -0.6183 -0.1764 -0.8258
 4415TIP3    H134736   1.012   3.451   5.963 -0.0382 -1.5129  0.9139
 4415TIP3    H234737   1.144   3.526   5.956 -0.6890 -0.4669 -0.9645
 4416TIP3   OH234738   0.078   4.479  13.450  0.0031  0.1307 -0.5242
 4416TIP3    H134739   0.040   4.557  13.410  0.6065 -0.1609 -1.7270
 4416TIP3    H234740   0.171   4.482  13.426  0.5186  0.1962  1.3149
 4417TIP3   OH234741   6.817   3.763   0.580 -0.0437 -0.1683 -0.3667
 4417TIP3    H134742   6.845   3.759   0.488 -1.5157  0.7021 -0.8903
 4417TIP3    H234743   6.721   3.767   0.575 -0.2156 -1.3741  1.2648
 4418TIP3   OH234744   2.530   6.186  11.590 -0.4286 -0.0654 -0.6551
 4418TIP3    H134745   2.493   6.268  11.558 -0.9888 -0.7761 -1.8760
 4418TIP3    H234746   2.625   6.200  11.588 -0.5373  1.0892  0.6743
 4419TIP3   OH234747   0.910   6.734  15.835  0.3216 -0.1454  0.5371
 4419TIP3    H134748   0.831   6.769  15.794  2.1825  1.1463 -2.2959
 4419TIP3    H234749   0.980   6.790  15.802  2.5479 -1.7667  2.2211
 4420TIP3   OH234750   4.344   4.107   3.693  0.2602  0.0918  0.3320
 4420TIP3    H134751   4.253   4.133   3.674 -0.9618 -3.3210  0.7791
 4420TIP3    H234752   4.366   4.156   3.772 -1.1438  1.0938  0.1535
 4421TIP3   OH234753   2.797   5.166   3.836  0.7277 -0.2561 -0.5882
 4421TIP3    H134754   2.756   5.246   3.868  1.5688  0.5424 -1.4241
 4421TIP3    H234755   2.891   5.181   3.846  0.9149 -0.9943 -1.0855
 4422TIP3   OH234756   2.977   6.030  11.830  0.1782 -0.1305  0.4197
 4422TIP3    H134757   2.893   5.984  11.834  0.0146  0.1942  0.8402
 4422TIP3    H234758   2.981   6.065  11.741  0.4767 -1.2631 -0.0269
 4423TIP3   OH234759   2.556   2.142   3.664  0.8236  0.2334  0.5101
 4423TIP3    H134760   2.523   2.229   3.642 -1.9099 -0.5465  1.0524
 4423TIP3    H234761   2.576   2.147   3.758 -1.7390 -0.2537  1.1816
 4424TIP3   OH234762   5.305   6.046   5.298  0.0462 -0.0447 -0.8518
 4424TIP3    H134763   5.401   6.040   5.304  0.0365 -1.4728 -1.6844
 4424TIP3    H234764   5.274   6.006   5.379  0.1453  1.2967 -0.1292
 4425TIP3   OH234765   0.097   0.791   5.547 -0.3442 -0.2313  0.1928
 4425TIP3    H134766   0.140   0.717   5.504 -2.0183 -0.9958 -0.2386
 4425TIP3    H234767   0.064   0.845   5.476 -2.2769 -0.9928  0.4484
 4426TIP3   OH234768   1.302   3.011   2.927 -0.3882  0.2839 -0.5876
 4426TIP3    H134769   1.252   2.986   2.850 -1.3083  0.0099  0.0797
 4426TIP3    H234770   1.249   3.079   2.969 -0.8339 -0.8687  0.7832
 4427TIP3   OH234771   5.760   4.099  15.351 -0.7182 -0.3770 -0.1235
 4427TIP3    H134772   5.692   4.165  15.340  0.8771  0.9865 -3.2718
 4427TIP3    H234773   5.823   4.118  15.281  2.5034 -2.0354  2.0703
 4428TIP3   OH234774   1.395   1.344  17.159  0.0385 -0.8517  0.5257
 4428TIP3    H134775   1.338   1.312  17.229 -1.0819 -0.8531 -0.3588
 4428TIP3    H234776   1.468   1.283  17.158 -0.2459 -1.2216  1.2725
 4429TIP3   OH234777   6.684   3.191  13.287  0.6483 -0.1428  0.5687
 4429TIP3    H134778   6.619   3.190  13.217  1.2788  2.1153 -0.1192
 4429TIP3    H234779   6.706   3.098  13.300 -1.5656 -0.8425 -0.2025
 4430TIP3   OH234780   5.005   6.106   1.949 -0.5294  0.2939 -0.4294
 4430TIP3    H134781   5.054   6.075   2.025 -0.1093  1.2184 -0.3007
 4430TIP3    H234782   5.072   6.125   1.884 -0.8593 -0.1405 -0.8969
 4431TIP3   OH234783   6.377   4.579  16.427 -0.0229  0.1126 -0.0823
 4431TIP3    H134784   6.291   4.535  16.426  1.0519 -2.1444  0.3323
 4431TIP3    H234785   6.379   4.625  16.511 -0.1372 -1.3767  0.7681
 4432TIP3   OH234786   5.603   2.141  16.094 -0.4880 -0.5334  0.8742
 4432TIP3    H134787   5.525   2.163  16.043  0.0821 -0.2926  0.1019
 4432TIP3    H234788   5.605   2.208  16.163 -0.3264  0.1621  0.2089
 4433TIP3   OH234789   3.950   1.245   0.827  0.0308  0.3610  0.2218
 4433TIP3    H134790   4.034   1.201   0.817 -2.0751 -4.1250 -0.3104
 4433TIP3    H234791   3.951   1.315   0.761  2.1815 -1.6568 -2.0875
 4434TIP3   OH234792   5.386   4.868   0.019  0.4675  0.3240 -0.6554
 4434TIP3    H134793   5.347   4.871   0.107 -2.4108 -0.8781 -1.7841
 4434TIP3    H234794   5.396   4.960  -0.005  0.1967  0.6706  0.4710
 4435TIP3   OH234795   5.089   2.570   3.958  0.2727  0.8373  0.2822
 4435TIP3    H134796   5.018   2.508   3.941 -0.3443  2.2681 -3.4804
 4435TIP3    H234797   5.168   2.516   3.963 -0.6916 -0.5352  1.2642
 4436TIP3   OH234798   1.863   0.407   1.515  0.2714 -0.2906 -0.4270
 4436TIP3    H134799   1.895   0.413   1.425  0.3355 -2.6222 -0.6205
 4436TIP3    H234800   1.775   0.446   1.512  0.5834  0.3825 -1.2939
 4437TIP3   OH234801   5.677   5.351   6.118  0.7487  0.0621 -0.8737
 4437TIP3    H134802   5.722   5.267   6.107  1.6203  0.7300 -2.8961
 4437TIP3    H234803   5.748   5.414   6.134  0.0891  0.4282  0.8660
 4438TIP3   OH234804   6.185   0.894   5.434  0.6748  0.4171  0.3797
 4438TIP3    H134805   6.188   0.895   5.529  1.4447 -1.1102  0.4057
 4438TIP3    H234806   6.240   0.820   5.409 -1.0086 -0.4176 -1.1768
 4439TIP3   OH234807   2.438   4.825  14.281  0.5027 -0.3496 -0.3854
 4439TIP3    H134808   2.518   4.846  14.231 -0.1013 -0.6596 -1.5115
 4439TIP3    H234809   2.468   4.763  14.347  1.7834  1.8112  1.2328
 4440TIP3   OH234810   2.192   3.301  16.862  0.4943 -0.0213 -0.0570
 4440TIP3    H134811   2.200   3.278  16.955  0.1158  0.6851  0.1579
 4440TIP3    H234812   2.280   3.329  16.837  0.9637 -1.6483 -0.3223
 4441TIP3   OH234813   3.194   6.757   3.584 -0.5801 -0.3037 -0.3459
 4441TIP3    H134814   3.262   6.690   3.595  0.1793  0.3185 -1.1102
 4441TIP3    H234815   3.166   6.748   3.493  1.5855  2.2361 -1.4086
 4442TIP3   OH234816   0.431   0.762  14.405  0.3188 -0.1873 -0.0287
 4442TIP3    H134817   0.508   0.711  14.384  0.9063  1.1177 -1.1875
 4442TIP3    H234818   0.358   0.701  14.397  1.1150 -1.1501 -0.0688
 4443TIP3   OH234819   1.210   0.420  17.002  0.0460  0.6289  1.1231
 4443TIP3    H134820   1.181   0.377  16.921  3.0311  0.4777 -0.0112
 4443TIP3    H234821   1.202   0.513  16.984  1.2443  0.6125  0.3391
 4444TIP3   OH234822   2.120   4.307  14.841  0.5581  0.4570  0.3424
 4444TIP3    H134823   2.056   4.272  14.902  0.1830 -1.1302 -0.8780
 4444TIP3    H234824   2.136   4.235  14.779  1.9219  1.5294 -0.6302
 4445TIP3   OH234825   6.206   4.402  13.375 -0.0215  0.2992 -0.0328
 4445TIP3    H134826   6.133   4.418  13.434 -0.0950  0.0840 -0.0653
 4445TIP3    H234827   6.276   4.369  13.431 -0.0612  0.1822 -0.0509
 4446TIP3   OH234828   2.953   0.180   6.141  0.5342  0.5133  0.1633
 4446TIP3    H134829   3.044   0.167   6.167  0.5370  1.4016  0.6259
 4446TIP3    H234830   2.908   0.205   6.221 -0.3441 -0.9368  0.1544
 4447TIP3   OH234831   4.262   4.395  11.626  0.7443 -0.6027 -0.4458
 4447TIP3    H134832   4.259   4.418  11.719  1.0991  0.4090 -0.6648
 4447TIP3    H234833   4.326   4.324  11.621  2.4635  0.8559 -0.1731
 4448TIP3   OH234834   3.797   6.235  15.579 -0.0791  0.0536  0.5391
 4448TIP3    H134835   3.773   6.325  15.601  2.9011  0.3013  3.7189
 4448TIP3    H234836   3.889   6.241  15.552 -0.0076 -1.9575  0.1719
 4449TIP3   OH234837   4.715   2.716  12.880 -0.5256  0.3658  0.1015
 4449TIP3    H134838   4.653   2.730  12.808  0.1941  1.2564 -0.3735
 4449TIP3    H234839   4.661   2.686  12.953 -1.0626 -2.3983 -1.3036
 4450TIP3   OH234840   1.851   0.088   0.524  0.3915 -0.1518  0.7186
 4450TIP3    H134841   1.944   0.110   0.528  0.1886  1.8301 -2.0129
 4450TIP3    H234842   1.807   0.162   0.566 -0.0094 -1.1111  2.0601
 4451TIP3   OH234843   3.263   1.176  16.331  0.1201 -0.0603 -0.1041
 4451TIP3    H134844   3.262   1.145  16.240  0.9192  1.1870 -0.5560
 4451TIP3    H234845   3.217   1.108  16.380 -2.8635  0.5268 -1.8505
 4452TIP3   OH234846   2.119   2.331  17.086  0.2269 -0.1618 -0.6311
 4452TIP3    H134847   2.158   2.415  17.062 -0.0969 -0.1253 -1.0411
 4452TIP3    H234848   2.065   2.307  17.010  0.8125 -1.0484 -0.7773
 4453TIP3   OH234849   0.473   6.769   3.077 -0.4280  0.2342 -0.1794
 4453TIP3    H134850   0.445   6.815   3.156  0.2583  1.1732 -0.4708
 4453TIP3    H234851   0.411   6.696   3.069 -1.1004  0.6877  0.6817
 4454TIP3   OH234852   1.858   5.712   0.947  0.3566 -0.6675  0.1198
 4454TIP3    H134853   1.805   5.705   1.026  0.1567 -0.0865  0.0472
 4454TIP3    H234854   1.834   5.636   0.894  0.2136 -0.8528  0.4499
 4455TIP3   OH234855   4.191   0.473  13.592  0.4474 -0.3245  0.2077
 4455TIP3    H134856   4.104   0.449  13.559  0.6615  1.7847 -2.2756
 4455TIP3    H234857   4.231   0.390  13.616 -1.3934 -1.6281 -0.8863
 4456TIP3   OH234858   4.603   4.783  13.594  0.1090 -0.6851  0.1825
 4456TIP3    H134859   4.686   4.750  13.631  0.6239 -0.0680 -0.3994
 4456TIP3    H234860   4.630   4.845  13.526 -0.8381  0.3083  0.6798
 4457TIP3   OH234861   6.236   0.208  14.664  0.4516  0.5778 -0.6221
 4457TIP3    H134862   6.181   0.260  14.724  1.8618  0.6591  0.6586
 4457TIP3    H234863   6.181   0.133  14.641 -0.1026  0.4641  0.9220
 4458TIP3   OH234864   4.167   3.457  11.895 -0.1079 -0.4491  0.1402
 4458TIP3    H134865   4.180   3.479  11.988 -2.3582 -0.3593  0.4711
 4458TIP3    H234866   4.169   3.541  11.850  0.4188 -0.4419  0.1690
 4459TIP3   OH234867   2.205   6.596   5.354  0.2929  0.3124 -0.1690
 4459TIP3    H134868   2.228   6.655   5.425  0.0155  1.1492 -0.7593
 4459TIP3    H234869   2.115   6.570   5.371 -0.3070  1.7348 -1.0146
 4460TIP3   OH234870   2.592   0.595   3.511 -0.6383  0.1280 -0.1390
 4460TIP3    H134871   2.616   0.655   3.440 -0.5687  0.8610  0.4914
 4460TIP3    H234872   2.540   0.648   3.571 -2.2504 -0.9530 -0.5259
 4461TIP3   OH234873   1.525   0.533  11.716  0.4698  0.2492  0.0549
 4461TIP3    H134874   1.436   0.500  11.721 -0.2373  1.9178 -0.7967
 4461TIP3    H234875   1.543   0.540  11.622  2.3728 -2.1767  0.1177
 4462TIP3   OH234876   6.378   4.410  12.736 -0.5722 -0.3082 -0.0303
 4462TIP3    H134877   6.327   4.409  12.655 -1.2406 -0.0473  0.3806
 4462TIP3    H234878   6.407   4.501  12.744 -1.1517 -0.1532  0.4097
 4463TIP3   OH234879   3.875   0.256  16.537  0.2598  0.3863  0.0208
 4463TIP3    H134880   3.938   0.309  16.586 -0.9279  0.2644  1.7431
 4463TIP3    H234881   3.829   0.205  16.604  1.0601 -2.5522 -1.4970
 4464TIP3   OH234882   1.555   0.623  12.867  0.2610 -0.2648  0.1272
 4464TIP3    H134883   1.619   0.668  12.922  0.9230  0.6300 -1.3468
 4464TIP3    H234884   1.523   0.551  12.923  0.8696  0.6254  1.6876
 4465TIP3   OH234885   1.908   0.971   0.723 -0.0765  0.0186 -0.5281
 4465TIP3    H134886   1.933   0.982   0.631  1.0700  1.3674 -0.0752
 4465TIP3    H234887   1.990   0.953   0.768 -0.6944 -1.1431  0.1922
 4466TIP3   OH234888   4.681   0.428   4.721  0.0597 -0.6635  0.1468
 4466TIP3    H134889   4.598   0.417   4.767  0.3554  1.1441  1.2255
 4466TIP3    H234890   4.732   0.351   4.745 -0.8475 -1.1651  0.5131
 4467TIP3   OH234891   3.569   2.744  16.437 -1.0355  0.4712  0.6473
 4467TIP3    H134892   3.598   2.719  16.350 -1.6028 -1.1454  0.8810
 4467TIP3    H234893   3.650   2.747  16.489 -0.7198  1.2461  0.1180
 4468TIP3   OH234894   2.750   2.154  15.892  0.3129  0.3985 -0.0041
 4468TIP3    H134895   2.799   2.231  15.863  0.9668 -0.0795 -0.1922
 4468TIP3    H234896   2.687   2.188  15.956  0.9995  1.0043  0.3670
 4469TIP3   OH234897   0.047   2.867  17.082 -0.7704  0.5219  0.3113
 4469TIP3    H134898  -0.030   2.885  17.028 -0.7198 -1.0929 -0.3320
 4469TIP3    H234899   0.014   2.817  17.155 -0.3648 -0.0127  0.1325
 4470TIP3   OH234900   6.318   3.879  12.823  0.3412  0.2052  0.1121
 4470TIP3    H134901   6.363   3.861  12.906 -1.5017  0.5955  1.2496
 4470TIP3    H234902   6.231   3.841  12.834 -0.7736  2.3320 -0.6639
 4471TIP3   OH234903   5.540   5.855  12.931 -0.6339  0.5382 -0.2822
 4471TIP3    H134904   5.510   5.934  12.975 -2.4043  0.0592 -0.5105
 4471TIP3    H234905   5.558   5.882  12.841  0.2977  0.9737  0.0277
 4472TIP3   OH234906   0.425   3.676   0.174  0.1378  0.1624  0.0405
 4472TIP3    H134907   0.468   3.650   0.256  1.1549 -0.0148 -0.5324
 4472TIP3    H234908   0.445   3.770   0.167  1.9742 -0.2739 -1.1006
 4473TIP3   OH234909   4.362   4.666  13.494  0.3006 -0.8301 -0.3586
 4473TIP3    H134910   4.390   4.695  13.406  0.1972 -1.6758 -0.6761
 4473TIP3    H234911   4.433   4.693  13.551  0.9467 -1.3542 -0.8928
 4474TIP3   OH234912   2.726   1.154  13.787 -0.3262 -0.4831  0.0510
 4474TIP3    H134913   2.690   1.239  13.761 -0.0666 -0.3317  0.1808
 4474TIP3    H234914   2.754   1.167  13.878 -1.2449 -1.0132  0.4220
 4475TIP3   OH234915   3.439   5.811   6.270 -0.1661 -0.4152 -0.2719
 4475TIP3    H134916   3.465   5.721   6.290  0.7446  0.3700  2.4655
 4475TIP3    H234917   3.344   5.812   6.284 -0.1757 -0.9585 -0.2955
 4476TIP3   OH234918   5.068   1.018  14.165  0.0214  0.0861 -0.2613
 4476TIP3    H134919   5.031   1.104  14.183  2.0929  0.9418  0.1803
 4476TIP3    H234920   5.108   1.026  14.078  1.0755 -0.1066  0.1919
 4477TIP3   OH234921   5.880   6.109  10.985 -0.2935  0.5422 -0.3089
 4477TIP3    H134922   5.811   6.175  10.976  0.0020  0.9474  0.3175
 4477TIP3    H234923   5.949   6.139  10.926 -0.5789  0.2318 -0.8031
 4478TIP3   OH234924   5.335   4.383  12.174  0.3770  0.3980  0.5635
 4478TIP3    H134925   5.306   4.423  12.256 -2.8219 -0.2711 -0.0941
 4478TIP3    H234926   5.254   4.367  12.125  1.8661 -2.4509 -1.2426
 4479TIP3   OH234927   2.044   6.439   0.474  0.5347 -0.1368 -0.1089
 4479TIP3    H134928   1.968   6.480   0.434  0.7134 -0.2948 -0.6161
 4479TIP3    H234929   2.082   6.507   0.529  0.7973  0.3665 -0.9048
 4480TIP3   OH234930   3.979   6.710   4.974 -0.4040 -0.1066  0.1171
 4480TIP3    H134931   3.953   6.636   5.029  0.7190  0.2185  1.1154
 4480TIP3    H234932   4.003   6.779   5.036 -2.3868  1.4870 -0.7785
 4481TIP3   OH234933   6.537   2.915  15.539 -0.2394  0.4241  0.5681
 4481TIP3    H134934   6.589   2.839  15.564  1.6699  1.5890  0.3541
 4481TIP3    H234935   6.586   2.955  15.467 -1.3604  1.6809  0.4601
 4482TIP3   OH234936   4.209   3.381   4.714 -0.6797  0.2458  0.1843
 4482TIP3    H134937   4.229   3.380   4.807  0.4132  0.3601 -0.0316
 4482TIP3    H234938   4.285   3.423   4.674 -1.1569  0.2400 -0.7540
 4483TIP3   OH234939   0.130   0.562  15.490  0.1778  0.1327  0.3812
 4483TIP3    H134940   0.153   0.645  15.448 -3.6334  1.0947 -0.1973
 4483TIP3    H234941   0.112   0.503  15.417 -0.1750 -0.2177  0.7483
 4484TIP3   OH234942   1.462   1.744  13.299  0.3190  0.6424 -0.0073
 4484TIP3    H134943   1.421   1.829  13.315  0.1770  0.5998 -0.1342
 4484TIP3    H234944   1.389   1.687  13.275  0.2999  0.2718  0.9001
 4485TIP3   OH234945   6.137   2.848  14.931  0.0435 -0.6576  0.5684
 4485TIP3    H134946   6.121   2.936  14.896 -1.6341 -0.7345  1.0457
 4485TIP3    H234947   6.200   2.861  15.002 -0.5959  0.2503  0.9878
 4486TIP3   OH234948   3.459   2.984  11.734 -0.0812 -0.3041 -0.1916
 4486TIP3    H134949   3.482   2.909  11.679 -0.8906 -0.2559 -0.6087
 4486TIP3    H234950   3.490   2.960  11.821  3.7776  0.7731 -1.1085
 4487TIP3   OH234951   5.768   2.679  12.403 -0.2329 -0.2018 -0.0000
 4487TIP3    H134952   5.804   2.648  12.320  0.4499 -0.1233  0.2609
 4487TIP3    H234953   5.699   2.616  12.424 -0.1130 -0.4750 -0.4088
 4488TIP3   OH234954   0.185   2.599   5.278 -0.8337  0.4614  0.2890
 4488TIP3    H134955   0.219   2.554   5.201 -0.2714 -0.6822  1.1630
 4488TIP3    H234956   0.094   2.619   5.256 -1.1853 -1.3657 -0.0681
 4489TIP3   OH234957   4.596   0.167   3.892  0.4076  0.4280  0.4890
 4489TIP3    H134958   4.633   0.121   3.968 -1.2205 -0.3089  0.8894
 4489TIP3    H234959   4.551   0.242   3.929  1.5646  1.4022 -0.0090
 4490TIP3   OH234960   1.421   0.262   0.760 -0.0476  0.4230  0.0474
 4490TIP3    H134961   1.428   0.190   0.822  1.3145  1.7664  1.5564
 4490TIP3    H234962   1.346   0.313   0.791 -0.3944  0.2012 -0.4198
 4491TIP3   OH234963   6.787   5.483   1.454  0.0498 -0.3804 -0.6762
 4491TIP3    H134964   6.770   5.564   1.405  1.3699  1.5077  1.7370
 4491TIP3    H234965   6.707   5.467   1.503  0.7228  1.2444  1.0711
 4492TIP3   OH234966   1.774   3.158   0.874 -0.3324  0.6058 -0.6003
 4492TIP3    H134967   1.690   3.202   0.863 -0.4492  0.5040 -0.1288
 4492TIP3    H234968   1.834   3.207   0.818 -0.5251  1.1840 -0.3029
 4493TIP3   OH234969   2.231   2.167  12.581 -0.0048 -0.1378 -0.2457
 4493TIP3    H134970   2.325   2.152  12.580 -0.2119 -1.9835  1.6591
 4493TIP3    H234971   2.216   2.221  12.658 -0.2549  3.2024 -2.3922
 4494TIP3   OH234972   4.369   0.959  13.651  0.1138 -0.1562  0.3678
 4494TIP3    H134973   4.449   0.986  13.606 -1.4283  0.6229 -2.0910
 4494TIP3    H234974   4.363   0.865  13.634  0.7053 -0.3190  0.9770
 4495TIP3   OH234975   6.206   6.366  16.651 -0.3736 -0.4168 -0.2475
 4495TIP3    H134976   6.182   6.301  16.585 -0.2979  1.5356 -2.3310
 4495TIP3    H234977   6.259   6.430  16.603 -0.9730  1.5059  1.5126
 4496TIP3   OH234978   2.227   5.614  14.317 -0.6018  0.2545  0.1269
 4496TIP3    H134979   2.279   5.608  14.237  1.0476 -1.7107  1.2366
 4496TIP3    H234980   2.290   5.596  14.387 -2.4721 -0.5792  1.6762
 4497TIP3   OH234981   1.447   4.572  13.300  0.4630 -0.4914 -0.4958
 4497TIP3    H134982   1.496   4.515  13.241  1.8222 -0.7942  0.8518
 4497TIP3    H234983   1.493   4.564  13.384 -0.0990  1.5859  0.0540
 4498TIP3   OH234984   4.687   6.766   5.923  0.1055  0.0760  0.2069
 4498TIP3    H134985   4.663   6.813   6.003  0.7928 -0.3278  0.6596
 4498TIP3    H234986   4.627   6.692   5.919  0.6666 -0.4235  0.8510
 4499TIP3   OH234987   1.724   6.217   4.523 -0.1331 -0.1069  0.1785
 4499TIP3    H134988   1.794   6.282   4.514 -1.1273  1.1079  0.8767
 4499TIP3    H234989   1.656   6.247   4.463  0.8263 -2.6298 -2.3896
 4500TIP3   OH234990   5.343   1.226   4.761 -0.6327  0.2199  0.3471
 4500TIP3    H134991   5.369   1.138   4.787  3.1109  0.5423 -1.7340
 4500TIP3    H234992   5.286   1.256   4.832  1.6472 -2.1954  3.4427
 4501TIP3   OH234993   4.570   0.570  15.044 -0.5383 -0.2338  0.3624
 4501TIP3    H134994   4.658   0.593  15.075  0.0130 -2.5147  0.6818
 4501TIP3    H234995   4.586   0.503  14.977 -1.9031  1.7714 -2.1397
 4502TIP3   OH234996   0.205   1.333  14.972  0.1521 -0.3975 -0.3670
 4502TIP3    H134997   0.149   1.255  14.975 -0.7616  0.2569  2.4784
 4502TIP3    H234998   0.146   1.405  14.952 -0.1411  0.2856  2.5626
 4503TIP3   OH234999   5.408   1.251  13.572 -0.0524 -0.1998  0.4530
 4503TIP3    H135000   5.468   1.311  13.528 -0.6323 -0.0181 -0.1003
 4503TIP3    H235001   5.324   1.297  13.573 -0.0655 -0.2062  1.7439
 4504TIP3   OH235002   5.988   4.130  10.995 -0.0878  0.0003 -0.2920
 4504TIP3    H135003   6.003   4.115  10.902 -1.1482  1.7244 -0.7871
 4504TIP3    H235004   6.070   4.104  11.037  0.7416  0.0791 -1.7997
 4505TIP3   OH235005   0.909   2.692  11.643 -0.2248 -0.3030  0.1737
 4505TIP3    H135006   0.955   2.762  11.689  0.6318 -2.4381  2.8442
 4505TIP3    H235007   0.919   2.713  11.550  0.8215  2.5293  0.8302
 4506TIP3   OH235008   4.236   4.091   2.673 -0.3671 -0.8813 -0.3071
 4506TIP3    H135009   4.320   4.107   2.717 -1.1087 -0.9603  1.2193
 4506TIP3    H235010   4.172   4.086   2.745 -1.4429 -2.4315 -1.2957
 4507TIP3   OH235011   6.421   2.303  17.086  0.2886  0.3204 -0.2151
 4507TIP3    H135012   6.408   2.284  16.993  1.2155 -3.1567  0.2120
 4507TIP3    H235013   6.515   2.318  17.094  0.3024  0.0170  0.2158
 4508TIP3   OH235014   3.710   2.071  11.606 -0.5241  0.3350  0.1961
 4508TIP3    H135015   3.701   2.129  11.681  1.7411 -0.9367  1.6093
 4508TIP3    H235016   3.682   1.985  11.639 -2.5856  0.3186 -1.4448
 4509TIP3   OH235017   1.908   0.004  16.767 -0.4309  0.1528 -0.4176
 4509TIP3    H135018   1.844   0.044  16.826  0.3327  1.9414 -0.7405
 4509TIP3    H235019   1.967   0.075  16.743  3.0325 -1.8205  1.5217
 4510TIP3   OH235020   0.241   0.898   3.616  0.2031 -0.1222  0.1807
 4510TIP3    H135021   0.273   0.892   3.526  0.4057  0.7619  0.1841
 4510TIP3    H235022   0.166   0.957   3.610  0.9185  0.8837  0.7536
 4511TIP3   OH235023   4.654   1.733  12.773  0.1349 -0.3802 -0.0308
 4511TIP3    H135024   4.747   1.717  12.755  0.2177  0.7986 -0.7580
 4511TIP3    H235025   4.614   1.741  12.687 -0.1719  1.5870  0.2510
 4512TIP3   OH235026   2.682   2.346   0.471  0.2284  0.1520  0.7024
 4512TIP3    H135027   2.746   2.384   0.411 -0.9309  0.7008 -0.2456
 4512TIP3    H235028   2.608   2.407   0.469 -0.9301 -1.1962  0.5953
 4513TIP3   OH235029   4.414   2.993  13.612 -0.0178 -0.3295  0.5776
 4513TIP3    H135030   4.469   2.962  13.684  0.3651  1.0626  0.9201
 4513TIP3    H235031   4.393   3.084  13.636 -0.6776 -0.1586 -0.6035
 4514TIP3   OH235032   0.806   0.423   6.819  0.0171 -0.1517  0.3455
 4514TIP3    H135033   0.761   0.360   6.876 -1.2851 -0.0225 -0.4938
 4514TIP3    H235034   0.836   0.370   6.744  1.9360 -0.3676  1.2173
 4515TIP3   OH235035   4.734   0.855   0.703  0.3130  0.2331  0.2000
 4515TIP3    H135036   4.759   0.795   0.773 -0.5424  0.5708  0.8233
 4515TIP3    H235037   4.816   0.879   0.661  0.6450 -1.4741 -0.1646
 4516TIP3   OH235038   2.645   1.188  15.358  0.3418  0.4650 -0.0668
 4516TIP3    H135039   2.714   1.124  15.375 -0.7831 -0.9409 -0.6350
 4516TIP3    H235040   2.605   1.203  15.443  0.8661  0.7450  0.1387
 4517TIP3   OH235041   1.407   4.491   3.359  0.4415  0.2911  0.4976
 4517TIP3    H135042   1.339   4.547   3.395 -0.9329 -1.2747  0.4613
 4517TIP3    H235043   1.430   4.530   3.275 -1.1207  0.3121  0.0634
 4518TIP3   OH235044   0.282   3.227   4.158 -0.3234 -0.3823  0.5518
 4518TIP3    H135045   0.333   3.191   4.086 -1.5427  0.5368 -0.8323
 4518TIP3    H235046   0.343   3.284   4.205 -0.0791  0.8596 -1.1908
 4519TIP3   OH235047   0.704   4.194  11.030 -0.1809  0.1485 -0.2906
 4519TIP3    H135048   0.674   4.121  11.084 -0.1235  1.0206  0.9661
 4519TIP3    H235049   0.798   4.180  11.020 -0.1814  0.0205 -0.1137
 4520TIP3   OH235050   1.378   4.835  14.703  0.6726  0.6334  0.5227
 4520TIP3    H135051   1.375   4.741  14.683 -1.1308  0.6175  0.7203
 4520TIP3    H235052   1.429   4.872  14.631  1.6397 -0.5091  0.5753
 4521TIP3   OH235053   4.096   1.588  12.596 -0.8309 -0.5457  0.5359
 4521TIP3    H135054   4.041   1.667  12.603  0.7097  0.6480 -0.3783
 4521TIP3    H235055   4.134   1.579  12.683  0.4822  0.8877  0.1526
 4522TIP3   OH235056   1.452   2.155   4.659  0.3298  0.2276  0.4153
 4522TIP3    H135057   1.436   2.091   4.729  0.9372 -0.0747  0.2781
 4522TIP3    H235058   1.519   2.115   4.605 -2.0864 -0.8804 -2.0154
 4523TIP3   OH235059   3.996   1.890   0.061  0.0277 -0.3508 -0.1175
 4523TIP3    H135060   3.991   1.982   0.086  1.0104  0.2113 -1.8509
 4523TIP3    H235061   4.037   1.847   0.136 -1.1666  0.4414  1.0386
 4524TIP3   OH235062   3.016   1.465  16.353  0.5083  0.1882  0.7557
 4524TIP3    H135063   2.984   1.405  16.285 -2.2785  0.4537  1.6883
 4524TIP3    H235064   3.098   1.426  16.383  0.0002 -1.8572 -0.3177
 4525TIP3   OH235065   0.591   3.966   0.851  0.0875  0.0130 -0.1394
 4525TIP3    H135066   0.652   3.902   0.814  0.2833  0.4294 -0.5395
 4525TIP3    H235067   0.596   3.951   0.946  2.9289  1.8908  0.1113
 4526TIP3   OH235068   4.383   2.794  16.041 -0.1268 -0.3375  0.0030
 4526TIP3    H135069   4.352   2.778  16.131 -0.0572  0.3511  0.1538
 4526TIP3    H235070   4.412   2.708  16.010 -2.0963 -1.0107 -0.1112
 4527TIP3   OH235071   2.370   5.365   2.361 -0.5302  0.0996  0.7018
 4527TIP3    H135072   2.301   5.425   2.334  0.7333  1.2751 -0.0865
 4527TIP3    H235073   2.444   5.422   2.383  1.3623 -1.1161 -1.8760
 4528TIP3   OH235074   3.940   4.423   5.153 -0.4049  0.1483 -0.8821
 4528TIP3    H135075   3.969   4.395   5.066 -0.4084  2.3123 -1.6648
 4528TIP3    H235076   3.976   4.512   5.162  1.5784 -0.8310  2.3331
 4529TIP3   OH235077   3.532   4.814   0.450  0.2666  0.5437  0.3444
 4529TIP3    H135078   3.589   4.764   0.392 -0.4075 -0.0869  0.1975
 4529TIP3    H235079   3.547   4.776   0.537  1.1101  1.3373  0.5576
 4530TIP3   OH235080   5.640   0.134  16.363  0.7581  0.4113 -0.1085
 4530TIP3    H135081   5.711   0.198  16.370  0.8372  0.1562  2.7610
 4530TIP3    H235082   5.585   0.150  16.440  0.0110 -2.0240 -0.0406
 4531TIP3   OH235083   4.711   4.252  13.575 -0.1606 -0.4349  0.1884
 4531TIP3    H135084   4.657   4.326  13.601 -0.2617 -0.1022 -0.8850
 4531TIP3    H235085   4.666   4.176  13.610  0.4039  0.0385  2.0603
 4532TIP3   OH235086   4.738   6.077  12.431 -0.2220  0.2181  0.6237
 4532TIP3    H135087   4.829   6.098  12.413  0.5156 -1.5861  1.9561
 4532TIP3    H235088   4.721   6.115  12.517 -0.7764  0.6817  0.3133
 4533TIP3   OH235089   4.466   5.486   0.494  0.0850  0.3516  0.9369
 4533TIP3    H135090   4.409   5.410   0.508  1.5927 -1.0513 -0.1111
 4533TIP3    H235091   4.429   5.530   0.417 -0.2285  0.1005  0.9434
 4534TIP3   OH235092   5.544   3.461  15.405  0.7241  0.4879 -0.5534
 4534TIP3    H135093   5.456   3.491  15.382 -0.1522 -0.8752  0.8541
 4534TIP3    H235094   5.590   3.457  15.322 -0.0430  2.6499 -1.1737
 4535TIP3   OH235095   6.161   6.353  13.752  0.4604  0.1825  0.2692
 4535TIP3    H135096   6.133   6.410  13.680 -0.2375 -0.1715  0.2573
 4535TIP3    H235097   6.191   6.273  13.710  1.7299  0.6255  0.2661
 4536TIP3   OH235098   4.049   2.536   6.084 -0.0988  0.1639  0.4157
 4536TIP3    H135099   3.971   2.584   6.112 -0.4825  0.1892 -0.6728
 4536TIP3    H235100   4.021   2.486   6.008  1.4659  1.8680 -1.3899
 4537TIP3   OH235101   2.061   1.408  13.879  0.1202  0.5776 -0.0260
 4537TIP3    H135102   2.138   1.384  13.827 -1.5407 -1.6628 -1.6388
 4537TIP3    H235103   2.060   1.346  13.951 -1.2401 -0.8003 -1.1747
 4538TIP3   OH235104   3.777   3.815  16.295  0.4296 -0.9392 -0.1378
 4538TIP3    H135105   3.719   3.777  16.361  0.4802 -0.5548  0.1322
 4538TIP3    H235106   3.742   3.784  16.212 -0.7374  0.0393 -0.0369
 4539TIP3   OH235107   2.213   4.887  13.807 -0.3168  0.5921  0.7542
 4539TIP3    H135108   2.272   4.868  13.734  0.5553 -0.1856  1.6157
 4539TIP3    H235109   2.127   4.861  13.777  0.1660 -0.5236  0.2947
 4540TIP3   OH235110   3.783   6.594   1.356  0.5243  0.5359 -0.1147
 4540TIP3    H135111   3.867   6.597   1.402  0.9804  1.0815 -0.9710
 4540TIP3    H235112   3.744   6.680   1.372  0.5348  0.6061 -0.4757
 4541TIP3   OH235113   2.169   1.755  13.991 -0.2726  0.5814  0.6860
 4541TIP3    H135114   2.165   1.662  14.012  0.5006  0.2645 -0.4973
 4541TIP3    H235115   2.101   1.795  14.046 -0.6476 -0.6798  1.1624
 4542TIP3   OH235116   1.492   3.275   2.825 -0.0088  0.1218 -0.8053
 4542TIP3    H135117   1.461   3.202   2.879  0.1608  0.8324  0.2762
 4542TIP3    H235118   1.489   3.351   2.883  0.4305  0.8606 -1.7268
 4543TIP3   OH235119   3.441   5.093   1.057 -0.3282 -0.6618  0.1159
 4543TIP3    H135120   3.379   5.110   1.128  1.1584 -0.7347  1.4880
 4543TIP3    H235121   3.484   5.177   1.042  0.1269 -0.9003  0.0661
 4544TIP3   OH235122   2.583   2.450   3.879 -0.5520  0.1558 -0.5923
 4544TIP3    H135123   2.615   2.361   3.891  0.7193  0.8421  2.0487
 4544TIP3    H235124   2.516   2.461   3.946 -0.7399  1.1511 -0.9183
 4545TIP3   OH235125   6.557   2.188   2.671 -0.2602  0.4354  0.8203
 4545TIP3    H135126   6.489   2.127   2.703  0.4519 -1.1342 -0.5070
 4545TIP3    H235127   6.636   2.135   2.667  0.3937  1.4534 -0.4006
 4546TIP3   OH235128   5.181   2.929   0.167 -0.3124 -0.0878 -0.5567
 4546TIP3    H135129   5.203   2.962   0.255 -0.3994  0.1962 -0.6388
 4546TIP3    H235130   5.266   2.910   0.126 -0.2807 -0.4403 -0.3281
 4547TIP3   OH235131   2.162   4.272   4.422  0.2669 -0.4076  0.7007
 4547TIP3    H135132   2.073   4.291   4.450 -1.1527 -1.9677 -2.3090
 4547TIP3    H235133   2.196   4.356   4.392 -1.1146 -0.1771 -0.3207
 4548TIP3   OH235134   3.705   3.662  14.754  0.0423 -0.3427 -0.5012
 4548TIP3    H135135   3.647   3.730  14.719  0.8804 -0.0966 -1.4430
 4548TIP3    H235136   3.649   3.585  14.764 -0.3538 -0.2326 -1.7843
 4549TIP3   OH235137   0.704   5.401   1.256 -0.1649 -0.1691 -0.1846
 4549TIP3    H135138   0.727   5.319   1.299  0.4855  1.1549  2.2170
 4549TIP3    H235139   0.625   5.431   1.302  0.0617  0.9002 -0.4662
 4550TIP3   OH235140   2.449   5.673   5.462 -0.0366 -0.1759 -0.5243
 4550TIP3    H135141   2.502   5.624   5.525  4.3719  0.5995 -3.1621
 4550TIP3    H235142   2.415   5.606   5.402 -1.2692 -0.6089  0.6258
 4551TIP3   OH235143   0.567   0.779   1.370 -0.2511 -0.2421 -0.1316
 4551TIP3    H135144   0.626   0.842   1.411 -0.6718  0.7475 -0.9687
 4551TIP3    H235145   0.498   0.834   1.331 -1.8884 -1.3537  1.0383
 4552TIP3   OH235146   4.095   1.850   2.933  0.0025 -0.2785  0.8467
 4552TIP3    H135147   4.177   1.800   2.936 -0.0755 -0.7603 -1.9787
 4552TIP3    H235148   4.123   1.941   2.924  0.2300 -0.3766  0.5453
 4553TIP3   OH235149   1.946   5.060   4.748 -0.0682  0.0902  0.3955
 4553TIP3    H135150   2.008   5.130   4.726  0.0460 -0.7085 -2.1547
 4553TIP3    H235151   1.998   4.996   4.797  0.0825  1.2392  1.8088
 4554TIP3   OH235152   2.839   0.241  12.449  0.5988  0.4153  0.1808
 4554TIP3    H135153   2.798   0.213  12.367  1.0705  0.7347 -0.1704
 4554TIP3    H235154   2.896   0.314  12.424  2.2748 -0.7395  0.4510
 4555TIP3   OH235155   4.521   4.442   5.164  0.2188 -0.2706  0.1983
 4555TIP3    H135156   4.584   4.467   5.097 -0.4553  0.4073 -0.2036
 4555TIP3    H235157   4.555   4.478   5.245 -0.5241  1.6881 -0.2987
 4556TIP3   OH235158   6.263   4.274   1.786  0.0760  0.3661  0.6408
 4556TIP3    H135159   6.179   4.247   1.823 -0.3142 -0.1702 -0.5691
 4556TIP3    H235160   6.240   4.341   1.722  0.7381  1.3211  1.3765
 4557TIP3   OH235161   6.286   5.185   3.746 -0.2540 -0.1548 -0.5536
 4557TIP3    H135162   6.357   5.216   3.691 -0.8735 -0.7478 -1.7146
 4557TIP3    H235163   6.327   5.173   3.832  0.5815  1.3732 -0.6873
 4558TIP3   OH235164   4.884   4.527   1.121 -0.0078 -0.3592 -0.1650
 4558TIP3    H135165   4.921   4.521   1.209 -1.3451  0.1362  0.4463
 4558TIP3    H235166   4.878   4.436   1.092  2.7287 -0.4523 -0.7831
 4559TIP3   OH235167   0.769   0.770  16.779  0.2669 -0.7983 -0.0800
 4559TIP3    H135168   0.830   0.697  16.772  0.9934 -0.0887 -1.5502
 4559TIP3    H235169   0.817   0.845  16.746 -1.7293 -0.4394 -2.4582
 4560TIP3   OH235170   5.656   4.270  15.101 -0.3507 -0.0822 -0.9303
 4560TIP3    H135171   5.645   4.298  15.192 -0.0549 -2.1557 -0.2149
 4560TIP3    H235172   5.585   4.209  15.085  1.5757 -2.5258 -0.8510
 4561TIP3   OH235173   2.935   2.622  14.706 -0.2810 -0.3105 -0.4895
 4561TIP3    H135174   2.939   2.573  14.788  0.6145 -1.0971 -0.9901
 4561TIP3    H235175   2.874   2.694  14.725 -0.7368 -0.9537  0.6019
 4562TIP3   OH235176   3.565   5.359   1.299 -0.6973  0.3804 -0.0936
 4562TIP3    H135177   3.600   5.293   1.238 -1.4625  1.0535 -1.2996
 4562TIP3    H235178   3.524   5.308   1.369 -1.2313 -0.4435 -0.9837
 4563TIP3   OH235179   2.759   3.208  13.652 -0.6763  0.0686 -0.0889
 4563TIP3    H135180   2.825   3.268  13.616 -0.2989  0.5715  1.3876
 4563TIP3    H235181   2.680   3.226  13.600 -0.2597  1.0354 -0.4179
 4564TIP3   OH235182   5.228   5.208  13.794  0.6480  0.3932  0.4429
 4564TIP3    H135183   5.303   5.196  13.852  1.5523  0.9494 -0.5962
 4564TIP3    H235184   5.211   5.120  13.759  1.0787  0.3340  0.3728
 4565TIP3   OH235185   6.431   5.881   2.490 -0.5799  0.0998  0.2528
 4565TIP3    H135186   6.396   5.966   2.517  0.3915  0.0451  1.8741
 4565TIP3    H235187   6.405   5.822   2.561  0.7141 -0.4474  0.2833
 4566TIP3   OH235188   4.300   1.583   2.638 -0.1029  0.4336  0.0249
 4566TIP3    H135189   4.381   1.567   2.686 -0.6520  1.7358  1.4963
 4566TIP3    H235190   4.321   1.566   2.547  1.2070 -1.4087  0.6256
 4567TIP3   OH235191   4.634   4.673   1.099  0.6499  0.3574  0.5921
 4567TIP3    H135192   4.705   4.629   1.053  0.6434 -0.1934  1.1038
 4567TIP3    H235193   4.642   4.644   1.190 -2.3811 -2.6573  0.0912
 4568TIP3   OH235194   0.211   0.564  12.861 -0.3924 -0.1050  0.4966
 4568TIP3    H135195   0.147   0.517  12.913  1.5764 -2.5813  0.8330
 4568TIP3    H235196   0.199   0.530  12.772  1.0670 -1.3338  0.7469
 4569TIP3   OH235197   4.234   2.051   2.083  0.2481 -0.5348 -0.0362
 4569TIP3    H135198   4.142   2.055   2.108 -0.0521 -1.9181 -0.8112
 4569TIP3    H235199   4.263   2.142   2.085 -1.5969  0.1423 -1.4889
 4570TIP3   OH235200   6.003   5.613  16.821  0.4309 -0.0847  0.0965
 4570TIP3    H135201   6.006   5.644  16.730 -1.4776  0.6419  0.2338
 4570TIP3    H235202   5.942   5.673  16.864  0.4288 -1.1141  1.5926
 4571TIP3   OH235203   6.056   2.255  12.828 -0.2907 -0.4621  0.1041
 4571TIP3    H135204   6.136   2.306  12.840 -1.8264  2.1069  0.3937
 4571TIP3    H235205   6.041   2.255  12.733 -0.0747 -0.7059  0.0720
 4572TIP3   OH235206   5.775   6.278  11.265  0.1990  0.1230  0.3962
 4572TIP3    H135207   5.769   6.184  11.281 -1.1095  0.3705  1.6215
 4572TIP3    H235208   5.804   6.286  11.174  1.4655 -1.4383  0.6266
 4573TIP3   OH235209   5.139   3.143   2.376  0.4281  0.2167 -0.6158
 4573TIP3    H135210   5.135   3.166   2.468 -2.7933 -0.1440 -0.5541
 4573TIP3    H235211   5.217   3.088   2.368 -0.9694 -2.5616  2.6483
 4574TIP3   OH235212   1.244   3.008   5.739 -0.2604 -0.2232 -0.6330
 4574TIP3    H135213   1.268   2.924   5.777  0.5864 -0.8262 -2.3892
 4574TIP3    H235214   1.149   3.011   5.746 -0.4793 -2.1005 -1.9939
 4575TIP3   OH235215   1.636   3.389  12.867  0.1147 -0.2068  0.5418
 4575TIP3    H135216   1.643   3.361  12.776  0.1508  0.9037  0.1877
 4575TIP3    H235217   1.721   3.427  12.888 -0.5816  1.5943  0.2986
 4576TIP3   OH235218   1.917   0.970   0.142  0.1976  0.2982 -0.5785
 4576TIP3    H135219   1.823   0.962   0.160 -0.1612  1.7852 -1.6121
 4576TIP3    H235220   1.956   0.891   0.180 -1.6740 -1.1579 -1.5667
 4577TIP3   OH235221   2.092   5.733   1.094  0.2723 -0.3578 -0.0948
 4577TIP3    H135222   2.022   5.728   1.028 -0.5266 -1.7687  0.7977
 4577TIP3    H235223   2.126   5.822   1.087 -1.3778  0.2530 -0.8246
 4578TIP3   OH235224   5.639   2.361   4.297 -0.3507 -1.3608 -0.3123
 4578TIP3    H135225   5.659   2.289   4.356  1.0384  1.5573  3.1026
 4578TIP3    H235226   5.723   2.388   4.262 -0.8495 -1.3441 -1.5540
 4579TIP3   OH235227   5.793   4.757   3.278 -0.2516  0.0353  0.7146
 4579TIP3    H135228   5.852   4.795   3.342 -0.0751  2.2988 -0.6724
 4579TIP3    H235229   5.737   4.830   3.250 -0.3587 -0.8349 -1.6147
 4580TIP3   OH235230   5.271   2.202  11.833 -0.5160  0.2549 -0.1094
 4580TIP3    H135231   5.365   2.207  11.817 -1.0628  0.8681 -4.2646
 4580TIP3    H235232   5.241   2.293  11.829 -1.3942 -0.0109  0.2618
 4581TIP3   OH235233   0.168   1.319  14.073  0.1804  0.4723  0.2565
 4581TIP3    H135234   0.226   1.253  14.036 -0.6713  0.3388 -0.8657
 4581TIP3    H235235   0.143   1.283  14.158 -1.3984 -1.3545 -0.9099
 4582TIP3   OH235236   6.252   3.193   1.218 -0.3107 -0.2506 -0.8293
 4582TIP3    H135237   6.185   3.190   1.150  0.2209  1.5611 -1.4774
 4582TIP3    H235238   6.332   3.165   1.174 -0.0525  0.4902 -0.8378
 4583TIP3   OH235239   0.101   0.494  16.097 -0.1336  0.1871  0.1386
 4583TIP3    H135240   0.042   0.481  16.172 -1.1640  2.6021 -0.1765
 4583TIP3    H235241   0.043   0.502  16.022  0.9069 -2.7478 -1.1339
 4584TIP3   OH235242   5.566   0.113   1.032 -0.2438  0.7217 -0.0887
 4584TIP3    H135243   5.636   0.165   1.071 -1.5363  2.4464  0.0821
 4584TIP3    H235244   5.598   0.023   1.034  0.7719  1.0661  2.6206
 4585TIP3   OH235245   5.540   6.440  12.542 -0.5227  0.3018 -0.1123
 4585TIP3    H135246   5.634   6.457  12.532 -0.6448  2.0839  1.2596
 4585TIP3    H235247   5.512   6.410  12.456  1.1986  0.2510 -0.6971
 4586TIP3   OH235248   1.485   1.613  17.208 -0.7060 -0.5037 -0.1080
 4586TIP3    H135249   1.550   1.552  17.173  0.4730  0.7493 -0.1740
 4586TIP3    H235250   1.482   1.685  17.145 -1.9795 -0.4087  0.0360
 4587TIP3   OH235251   3.582   2.245   1.481  0.0499 -1.1971 -0.2244
 4587TIP3    H135252   3.617   2.160   1.455  0.3522 -1.3495  0.6641
 4587TIP3    H235253   3.603   2.253   1.574 -1.6907 -0.9947  0.1832
 4588TIP3   OH235254   1.388   1.302  15.553  0.1105  1.0767  0.4182
 4588TIP3    H135255   1.295   1.281  15.566 -0.0882  2.4112  1.4145
 4588TIP3    H235256   1.391   1.345  15.467  0.0632 -0.2281 -0.2691
 4589TIP3   OH235257   5.063   6.259   1.250 -0.3202  0.3630  0.1852
 4589TIP3    H135258   5.100   6.309   1.323  0.9643 -0.3754  0.0656
 4589TIP3    H235259   4.969   6.256   1.268 -0.1975  1.3253  1.1008
 4590TIP3   OH235260   1.047   6.383   6.913  0.1104 -0.1535  0.4571
 4590TIP3    H135261   0.999   6.464   6.928  1.6567  0.4956  2.4519
 4590TIP3    H235262   0.988   6.314   6.943 -0.9377  0.2724 -0.5726
 4591TIP3   OH235263   0.797   5.344  16.124  0.5791 -0.7051  0.5465
 4591TIP3    H135264   0.792   5.353  16.029  0.2928  0.3821  0.6517
 4591TIP3    H235265   0.809   5.251  16.139  1.3193 -0.8090 -0.5870
 4592TIP3   OH235266   2.064   0.135   2.650  0.0703  0.2756 -0.1482
 4592TIP3    H135267   2.020   0.188   2.717  2.2324  0.6203  1.1043
 4592TIP3    H235268   2.153   0.124   2.683  0.5831 -1.4939 -1.9201
 4593TIP3   OH235269   3.417   3.204  12.937  0.7932  0.3931 -0.2054
 4593TIP3    H135270   3.373   3.145  12.998 -1.4545  0.2507 -1.8255
 4593TIP3    H235271   3.488   3.153  12.900  0.9397 -0.1670  0.8190
 4594TIP3   OH235272   4.437   2.535   2.241  0.4308  1.0929  0.0848
 4594TIP3    H135273   4.518   2.586   2.249  0.7500  0.6920 -0.5268
 4594TIP3    H235274   4.405   2.526   2.331  3.5660 -2.7946  1.1121
 4595TIP3   OH235275   3.845   3.494  17.172  0.0708 -0.5624  0.9421
 4595TIP3    H135276   3.810   3.510  17.084  3.4794 -0.7324 -0.5994
 4595TIP3    H235277   3.822   3.572  17.221 -2.1027 -0.5512  0.0468
 4596TIP3   OH235278   4.377   5.510  13.344  0.0200  0.3532 -0.6973
 4596TIP3    H135279   4.428   5.431  13.329 -0.5932  0.1029 -1.5684
 4596TIP3    H235280   4.429   5.580  13.305 -0.0914  0.1646 -1.1953
 4597TIP3   OH235281   3.423   2.626  16.767 -0.1762 -0.0555 -0.2193
 4597TIP3    H135282   3.476   2.552  16.736 -1.4458 -0.5704 -1.2873
 4597TIP3    H235283   3.340   2.616  16.721 -2.7100 -1.4577  4.0676
 4598TIP3   OH235284   5.863   6.730   5.639  0.1323  0.0024 -0.2642
 4598TIP3    H135285   5.945   6.764   5.603  0.7189 -0.0272  0.9901
 4598TIP3    H235286   5.847   6.784   5.717  0.8615 -2.1995  1.5454
 4599TIP3   OH235287   0.212   3.631  13.943 -0.2933 -0.4552  0.0125
 4599TIP3    H135288   0.118   3.646  13.954 -0.0618  0.6192  0.7735
 4599TIP3    H235289   0.236   3.572  14.015 -0.0355  1.0117  1.2072
 4600TIP3   OH235290   5.046   0.867   2.212 -0.0110 -0.8465 -0.0995
 4600TIP3    H135291   4.991   0.885   2.288  1.0701 -0.2185  0.5496
 4600TIP3    H235292   4.984   0.841   2.144 -1.4126  2.1219 -0.1287
 4601TIP3   OH235293   0.415   3.661   2.903  0.1648 -0.4397  0.4948
 4601TIP3    H135294   0.494   3.614   2.875 -0.1309 -0.4394 -0.3531
 4601TIP3    H235295   0.357   3.659   2.827  0.3605  1.7750  0.2147
 4602TIP3   OH235296   3.726   3.884  15.132 -0.2608  0.5361  0.1459
 4602TIP3    H135297   3.811   3.846  15.108 -0.9487 -0.4437 -0.8159
 4602TIP3    H235298   3.723   3.967  15.085  0.8847  1.4585  1.5850
 4603TIP3   OH235299   2.149   6.219  13.813  0.0350  0.2236 -0.3158
 4603TIP3    H135300   2.109   6.270  13.742  0.3299  0.7968 -0.0751
 4603TIP3    H235301   2.187   6.284  13.871  2.0216 -0.3265 -0.9429
 4604TIP3   OH235302   4.614   0.617   1.421  0.0802 -0.0270 -0.5792
 4604TIP3    H135303   4.594   0.660   1.504  2.2795 -0.9759  0.5412
 4604TIP3    H235304   4.555   0.657   1.358  0.5374  3.0955  0.7821
 4605TIP3   OH235305   0.130   0.372   4.721 -0.6001  0.1612  0.1503
 4605TIP3    H135306   0.185   0.317   4.776  1.6849  0.8575 -1.3011
 4605TIP3    H235307   0.137   0.334   4.634 -1.0485  1.2430 -0.3809
 4606TIP3   OH235308   0.588   5.252   2.972 -0.3543  0.0254 -0.5334
 4606TIP3    H135309   0.505   5.295   2.993 -0.3083  0.1907 -0.6875
 4606TIP3    H235310   0.620   5.298   2.894  1.3819  2.0423  1.2387
 4607TIP3   OH235311   2.393   1.357   3.708  0.0981 -0.2963  0.2613
 4607TIP3    H135312   2.340   1.363   3.788  0.0022 -0.1626  0.1878
 4607TIP3    H235313   2.335   1.389   3.638  0.8658  1.6043  0.4312
 4608TIP3   OH235314   1.242   5.620   3.150 -0.3754  0.0041 -0.0127
 4608TIP3    H135315   1.297   5.549   3.183  0.6290  0.4997 -0.5879
 4608TIP3    H235316   1.231   5.678   3.226 -0.3271 -0.2264  0.1733
 4609TIP3   OH235317   1.701   5.736  15.495 -0.4158 -0.1621 -0.1701
 4609TIP3    H135318   1.727   5.787  15.419 -2.3079  3.2350  1.2332
 4609TIP3    H235319   1.783   5.710  15.536  0.6436  0.9773 -1.4907
 4610TIP3   OH235320   2.961   6.061  12.286 -0.0925  0.3589  0.2282
 4610TIP3    H135321   3.023   6.002  12.328  0.1394 -0.2247 -0.9100
 4610TIP3    H235322   3.003   6.084  12.203 -0.8570  0.9353 -0.0020
 4611TIP3   OH235323   2.157   2.676  15.960 -0.4193 -0.1149 -0.2028
 4611TIP3    H135324   2.114   2.664  15.875  0.3326 -0.4426 -0.5575
 4611TIP3    H235325   2.178   2.769  15.963 -1.6525  0.1569  0.2315
 4612TIP3   OH235326   5.346   6.245   2.175 -0.0075 -0.0812 -0.5272
 4612TIP3    H135327   5.315   6.170   2.125  1.5439  0.2016 -2.0224
 4612TIP3    H235328   5.376   6.308   2.109  0.4079  1.0983  0.7188
 4613TIP3   OH235329   2.552   4.426   0.549 -0.0832  0.1487 -0.4155
 4613TIP3    H135330   2.603   4.347   0.533  0.3875  0.4135 -0.2324
 4613TIP3    H235331   2.575   4.485   0.477  2.0953  1.3698  1.1494
 4614TIP3   OH235332   3.078   6.291   0.193 -0.1341 -0.3301 -0.3874
 4614TIP3    H135333   3.082   6.203   0.157 -0.6771  0.5359 -2.7218
 4614TIP3    H235334   3.112   6.347   0.124  0.7203  1.2820  1.2470
 4615TIP3   OH235335   3.723   1.939  12.702 -0.0897  0.2472  0.6963
 4615TIP3    H135336   3.661   1.995  12.654  2.0198  1.4161 -0.8086
 4615TIP3    H235337   3.732   1.981  12.787 -0.5366  0.6856  0.5360
 4616TIP3   OH235338   3.626   5.470  16.687 -0.0368 -0.3144 -0.0615
 4616TIP3    H135339   3.580   5.517  16.756 -1.9108 -3.5762  1.1435
 4616TIP3    H235340   3.676   5.403  16.732  1.3430 -0.4953 -1.7405
 4617TIP3   OH235341   3.057   2.508  12.546 -0.3459 -0.1331 -0.3450
 4617TIP3    H135342   3.039   2.599  12.568  0.5643  0.1287 -0.6521
 4617TIP3    H235343   3.037   2.502  12.452 -3.3391 -1.0203  0.2508
 4618TIP3   OH235344   1.142   1.058   1.670 -0.1329  0.5692 -0.2173
 4618TIP3    H135345   1.229   1.069   1.631 -0.3999  1.1831 -0.6610
 4618TIP3    H235346   1.158   1.053   1.764  0.4072  0.3729 -0.3164
 4619TIP3   OH235347   5.383   0.417   4.083  0.7464  0.6854 -0.2493
 4619TIP3    H135348   5.387   0.485   4.016 -2.6719  0.5934 -0.7234
 4619TIP3    H235349   5.370   0.336   4.034  2.0410  0.0288  0.4325
 4620TIP3   OH235350   5.263   6.495   0.609  0.0616 -0.0137  0.2779
 4620TIP3    H135351   5.207   6.555   0.561 -0.5652 -1.1922 -0.5219
 4620TIP3    H235352   5.217   6.411   0.605  0.8934 -0.5437  1.3816
 4621TIP3   OH235353   2.272   3.189  17.097 -0.2649  0.0307 -0.4905
 4621TIP3    H135354   2.346   3.145  17.055  0.1946  0.3953 -0.0733
 4621TIP3    H235355   2.217   3.118  17.130  0.4083 -0.2359  0.0755
 4622TIP3   OH235356   5.620   3.476   1.836 -0.1261  0.3236  0.4489
 4622TIP3    H135357   5.659   3.416   1.774  0.4047  0.9007  0.2118
 4622TIP3    H235358   5.694   3.518   1.879 -0.4253  2.1750 -0.7172
 4623TIP3   OH235359   6.659   5.527  14.669  0.4654  0.0720  0.2896
 4623TIP3    H135360   6.666   5.513  14.574 -0.8028  1.4507 -0.0505
 4623TIP3    H235361   6.589   5.469  14.697  1.4221 -0.9751  0.5580
 4624TIP3   OH235362   6.122   4.324  11.614  0.1364 -0.0428 -0.3233
 4624TIP3    H135363   6.179   4.326  11.691  2.9571  1.9290 -2.2311
 4624TIP3    H235364   6.047   4.377  11.638  0.4037 -0.3948  1.4151
 4625TIP3   OH235365   6.509   5.446   1.554 -0.3891 -0.0709 -0.4535
 4625TIP3    H135366   6.464   5.458   1.637 -0.9437  0.9862 -0.8829
 4625TIP3    H235367   6.476   5.363   1.519 -2.3131  0.8227 -0.9177
 4626TIP3   OH235368   0.188   1.888   4.079 -1.2702 -0.9433  0.0575
 4626TIP3    H135369   0.202   1.827   4.006  0.2323 -1.8032  1.0096
 4626TIP3    H235370   0.255   1.955   4.068 -1.3576 -0.7998  0.3874
 4627TIP3   OH235371   1.055   6.758   0.469  0.3025 -0.0225 -0.0647
 4627TIP3    H135372   0.990   6.828   0.485 -0.4099 -0.9771  1.4547
 4627TIP3    H235373   1.013   6.702   0.403 -0.9776 -1.2225  1.6661
 4628TIP3   OH235374   4.549   3.960   1.523 -0.4113  0.1874  0.1134
 4628TIP3    H135375   4.550   4.013   1.602 -0.9411  0.2381  0.0909
 4628TIP3    H235376   4.463   3.976   1.485 -1.0975 -1.6983  0.7757
 4629TIP3   OH235377   0.188   3.330  17.206  0.0945 -0.1429  0.0320
 4629TIP3    H135378   0.167   3.380  17.285  1.5484 -1.4474  1.3047
 4629TIP3    H235379   0.173   3.392  17.134 -1.6901  0.9545  1.2475
 4630TIP3   OH235380   6.607   6.439  13.116 -0.0628  0.0260  0.3539
 4630TIP3    H135381   6.558   6.509  13.073 -0.3864  0.3491  1.2354
 4630TIP3    H235382   6.672   6.485  13.169  0.1808 -0.3637  0.3962
 4631TIP3   OH235383   0.604   4.765  13.428 -1.2017 -0.3379  0.2804
 4631TIP3    H135384   0.542   4.807  13.367 -2.5241 -1.7267  0.5970
 4631TIP3    H235385   0.662   4.714  13.371  1.2734  2.7048 -0.2421
 4632TIP3   OH235386   5.570   0.556   0.566  0.3539 -0.0449 -0.0447
 4632TIP3    H135387   5.601   0.644   0.544 -1.3495  0.1099 -2.0885
 4632TIP3    H235388   5.634   0.497   0.525 -1.4436  0.2781 -3.7008
 4633TIP3   OH235389   3.335   0.163   4.641 -0.3156  0.0979 -0.2097
 4633TIP3    H135390   3.392   0.205   4.705  0.5741  2.1150 -2.2176
 4633TIP3    H235391   3.386   0.089   4.608 -0.2085 -0.0736  0.3240
 4634TIP3   OH235392   0.278   0.990   2.499  0.6727  0.1323 -0.5942
 4634TIP3    H135393   0.257   0.918   2.559  1.3333 -0.6694 -1.2830
 4634TIP3    H235394   0.263   0.953   2.412  0.4334  1.0358 -0.9488
 4635TIP3   OH235395   3.753   0.571   2.358 -0.1524  0.3548 -0.6684
 4635TIP3    H135396   3.779   0.482   2.382 -1.2709 -0.8285 -3.4749
 4635TIP3    H235397   3.672   0.560   2.309 -0.4309  2.9627 -0.9198
 4636TIP3   OH235398   4.547   2.767  16.524  0.4727  0.8099 -0.2595
 4636TIP3    H135399   4.500   2.739  16.446 -0.4475  1.0069  0.2098
 4636TIP3    H235400   4.537   2.694  16.585  0.8971  0.7992 -0.1976
 4637TIP3   OH235401   1.137   5.598  15.770  0.2708 -0.2886 -0.0071
 4637TIP3    H135402   1.114   5.544  15.845  1.9062  0.0753  0.7907
 4637TIP3    H235403   1.210   5.552  15.728  0.3646  0.2803 -0.4863
 4638TIP3   OH235404   1.630   5.560   5.487 -0.1108  0.6180  0.0012
 4638TIP3    H135405   1.658   5.642   5.527  1.5245 -0.0951  0.3993
 4638TIP3    H235406   1.708   5.528   5.442 -1.2310  0.1897 -1.7555
 4639TIP3   OH235407   5.028   1.003  11.875 -0.4585 -0.2551  0.3784
 4639TIP3    H135408   4.957   1.054  11.914 -1.8328 -2.4160  0.9470
 4639TIP3    H235409   5.079   0.972  11.950 -1.1893 -1.7573  0.3073
 4640TIP3   OH235410   2.196   4.760   1.675 -0.2645  0.5387  0.3905
 4640TIP3    H135411   2.281   4.725   1.647  0.1966 -0.0942  2.3899
 4640TIP3    H235412   2.216   4.810   1.755 -1.8968 -0.6339  1.6081
 4641TIP3   OH235413   4.415   1.317   4.014 -0.6169  0.2558 -0.5758
 4641TIP3    H135414   4.497   1.306   3.966  1.4947  0.7840  2.5806
 4641TIP3    H235415   4.382   1.228   4.025  1.7592 -0.5008  1.4500
 4642TIP3   OH235416   3.688   4.637  14.236  0.2651  0.0358  0.3345
 4642TIP3    H135417   3.613   4.588  14.200  0.5467 -0.0460 -0.1460
 4642TIP3    H235418   3.701   4.709  14.174  1.3320 -0.6287 -0.2384
 4643TIP3   OH235419   3.927   3.902   4.768  0.1897 -0.1633  0.3166
 4643TIP3    H135420   3.968   3.986   4.788 -0.8196  0.4203 -0.0165
 4643TIP3    H235421   3.864   3.888   4.839 -0.3735 -0.1335 -0.1705
 4644TIP3   OH235422   0.648   2.255  10.979  0.3655 -0.5027 -0.0083
 4644TIP3    H135423   0.622   2.232  10.890  1.6735 -0.1002 -0.5111
 4644TIP3    H235424   0.743   2.260  10.976  0.3561  4.3558  0.1858
 4645TIP3   OH235425   3.584   6.490  14.522  0.6185 -0.0341  0.2034
 4645TIP3    H135426   3.604   6.439  14.600 -0.8894  0.5672  1.0322
 4645TIP3    H235427   3.669   6.521  14.491  1.2187  0.1129  1.8943
 4646TIP3   OH235428   0.100   5.013  10.728 -1.1221 -0.0611  0.4794
 4646TIP3    H135429   0.165   4.969  10.672 -0.1308  0.9681  0.7762
 4646TIP3    H235430   0.020   4.962  10.716 -0.5688 -0.6912 -0.7968
 4647TIP3   OH235431   3.246   3.856   2.450  0.1688  0.1279 -0.1401
 4647TIP3    H135432   3.315   3.910   2.487  1.5610 -1.8099  0.2671
 4647TIP3    H235433   3.167   3.878   2.500  1.2649 -0.0649  1.7506
 4648TIP3   OH235434   1.035   0.464  14.492  0.0303 -0.4719 -0.2696
 4648TIP3    H135435   1.077   0.385  14.456 -0.8659  0.2571 -3.1791
 4648TIP3    H235436   0.947   0.434  14.517 -0.2508 -0.4680 -1.2103
 4649TIP3   OH235437   3.568   0.263  11.199 -0.3388  0.6221 -1.2046
 4649TIP3    H135438   3.656   0.242  11.170 -0.8716 -0.0522 -2.4151
 4649TIP3    H235439   3.516   0.185  11.179 -1.0800  0.7185  0.1725
 4650TIP3   OH235440   6.284   4.775  14.884  0.1903 -0.2426 -0.5706
 4650TIP3    H135441   6.239   4.812  14.961 -0.5627 -0.3110 -0.9680
 4650TIP3    H235442   6.297   4.683  14.906  1.5775  0.1120  0.1953
 4651TIP3   OH235443   3.323   3.527  11.806  0.2426 -0.2258 -0.0026
 4651TIP3    H135444   3.357   3.598  11.861 -0.5036  0.9573 -0.9922
 4651TIP3    H235445   3.386   3.521  11.734 -0.0384 -0.0958 -0.2638
 4652TIP3   OH235446   1.604   2.770  15.767  0.2637 -0.2336  0.8448
 4652TIP3    H135447   1.563   2.712  15.704 -2.0893  0.2020  1.8881
 4652TIP3    H235448   1.633   2.713  15.838 -0.0463 -0.3689  0.8606
 4653TIP3   OH235449   4.574   4.173   5.393 -0.1737 -0.0118 -0.0720
 4653TIP3    H135450   4.614   4.236   5.333  0.8379 -0.4004  0.1755
 4653TIP3    H235451   4.641   4.160   5.461  0.6247 -3.0602 -1.2790
 4654TIP3   OH235452   6.030   0.274  14.953 -0.3084 -0.4131  0.2283
 4654TIP3    H135453   6.016   0.352  15.007  0.9829 -0.5901  0.8603
 4654TIP3    H235454   6.121   0.249  14.971 -0.6242 -1.9195 -0.1569
 4655TIP3   OH235455   1.223   1.571  16.174  0.5256 -0.1927  0.5471
 4655TIP3    H135456   1.275   1.533  16.103  1.2565 -2.5368  2.2123
 4655TIP3    H235457   1.287   1.611  16.233  0.1173  0.0420  0.8417
 4656TIP3   OH235458   0.718   2.202   0.642  0.3169 -0.2406 -0.1393
 4656TIP3    H135459   0.668   2.127   0.673 -1.2079  0.1582 -1.4997
 4656TIP3    H235460   0.758   2.171   0.560  0.0671  0.2661 -0.4604
 4657TIP3   OH235461   4.508   2.624  13.038  0.0562 -0.3671  0.2760
 4657TIP3    H135462   4.452   2.694  13.072  0.4655 -0.5122  1.2713
 4657TIP3    H235463   4.502   2.554  13.103  0.5722 -0.7957 -0.1254
 4658TIP3   OH235464   2.619   1.246   0.874  0.8310 -0.9970 -0.2258
 4658TIP3    H135465   2.685   1.245   0.804  0.4737 -1.8808 -0.5691
 4658TIP3    H235466   2.541   1.209   0.833  1.0618 -3.0592  1.0547
 4659TIP3   OH235467   3.076   1.944   2.172 -0.3386 -0.4993 -0.2532
 4659TIP3    H135468   3.031   1.969   2.092  1.3060  0.0256 -1.0418
 4659TIP3    H235469   3.168   1.965   2.157  0.4393 -2.7926  0.7836
 4660TIP3   OH235470   3.424   5.578   3.330 -0.2492  0.0497 -0.7398
 4660TIP3    H135471   3.493   5.585   3.396  0.1837  0.6628 -1.2471
 4660TIP3    H235472   3.362   5.647   3.351 -0.8774 -0.6878 -0.1077
 4661TIP3   OH235473   6.359   6.438  12.536 -0.4556 -0.0208  0.4621
 4661TIP3    H135474   6.266   6.463  12.541 -0.4967  0.1499 -0.6814
 4661TIP3    H235475   6.394   6.493  12.465  0.6934  0.4184  1.3443
 4662TIP3   OH235476   1.505   3.836   3.020 -0.2308 -0.0701 -0.2621
 4662TIP3    H135477   1.441   3.839   2.949  0.2248 -0.3556 -0.6886
 4662TIP3    H235478   1.581   3.884   2.986  0.3074 -0.9277 -0.2907
 4663TIP3   OH235479   5.191   3.590  11.753  0.1968 -0.2019  0.0718
 4663TIP3    H135480   5.160   3.544  11.831  0.2189  1.9502  1.4305
 4663TIP3    H235481   5.165   3.681  11.767  3.1512  0.9046 -0.7876
 4664TIP3   OH235482   3.076   3.623  13.042 -0.6012  0.2004  0.0478
 4664TIP3    H135483   2.994   3.621  13.092 -1.3410  1.1990 -1.0639
 4664TIP3    H235484   3.113   3.536  13.054 -2.0333 -0.4193  0.2415
 4665TIP3   OH235485   0.518   4.852   3.924  0.1655  0.1166  0.1840
 4665TIP3    H135486   0.496   4.911   3.852  1.3932 -1.4124 -1.5658
 4665TIP3    H235487   0.578   4.788   3.885  1.7240 -0.2011  2.8514
 4666TIP3   OH235488   5.413   4.437  12.968  0.3930 -0.1656  0.6396
 4666TIP3    H135489   5.319   4.443  12.988 -0.0270  0.6754 -1.3513
 4666TIP3    H235490   5.452   4.400  13.047 -1.5076  0.1794  1.8000
 4667TIP3   OH235491   3.397   5.330   5.016 -1.2785  0.5643 -0.2077
 4667TIP3    H135492   3.432   5.327   5.106 -1.7236 -0.5544 -0.0622
 4667TIP3    H235493   3.475   5.325   4.960 -1.0097  1.0761  0.1071
 4668TIP3   OH235494   2.540   0.132  13.485  0.0213  0.4175  0.3491
 4668TIP3    H135495   2.574   0.078  13.414 -1.5398 -0.0842 -0.0304
 4668TIP3    H235496   2.446   0.119  13.484 -0.2130  1.7343  1.4316
 4669TIP3   OH235497   2.240   2.485   1.177  0.3604  0.1308 -0.3401
 4669TIP3    H135498   2.327   2.458   1.207 -0.0605 -1.1725 -0.2373
 4669TIP3    H235499   2.254   2.519   1.088  0.9904  0.0789 -0.2616
 4670TIP3   OH235500   2.604   6.049  16.110 -0.1744  0.6716  0.3219
 4670TIP3    H135501   2.543   6.109  16.068 -0.3732  0.8019  0.7867
 4670TIP3    H235502   2.576   6.046  16.202  0.5309  0.7460  0.5440
 4671TIP3   OH235503   2.843   3.954   6.306 -0.3948  0.0740 -0.1825
 4671TIP3    H135504   2.770   3.903   6.340 -1.5174  0.9862 -1.1552
 4671TIP3    H235505   2.892   3.893   6.251 -0.8238 -0.3752 -0.0664
 4672TIP3   OH235506   2.991   1.175   1.540 -0.3642 -0.4382 -0.0760
 4672TIP3    H135507   3.027   1.178   1.452  1.3572 -0.3435  0.5938
 4672TIP3    H235508   2.963   1.264   1.559  0.7623 -0.1085  0.0592
 4673TIP3   OH235509   4.845   4.269  11.339  0.5817 -0.0547  0.6161
 4673TIP3    H135510   4.880   4.258  11.251  1.4752 -0.4254  1.0001
 4673TIP3    H235511   4.838   4.363  11.351  1.2244  0.0214  0.4272
 4674TIP3   OH235512   1.586   3.036   2.973  0.5043 -0.2987  0.2418
 4674TIP3    H135513   1.492   3.026   2.955  0.0403  0.4960  2.0145
 4674TIP3    H235514   1.624   2.951   2.952 -0.2067 -0.0298 -2.5788
 4675TIP3   OH235515   5.889   6.186   2.489  0.3436  0.3904 -0.2546
 4675TIP3    H135516   5.864   6.094   2.501 -0.6797  0.5388 -1.0724
 4675TIP3    H235517   5.972   6.195   2.536 -0.0622 -0.6912  0.7112
 4676TIP3   OH235518   3.284   6.073   6.030 -0.1749 -0.4422  0.0317
 4676TIP3    H135519   3.274   6.134   6.103  1.3017 -0.4043  0.2470
 4676TIP3    H235520   3.208   6.016   6.035 -1.7078  1.4723 -0.2872
 4677TIP3   OH235521   2.803   4.052   4.403 -0.2110  0.1402 -0.3313
 4677TIP3    H135522   2.820   4.020   4.492  1.4718  1.6098 -0.0661
 4677TIP3    H235523   2.823   3.977   4.347 -0.4554 -0.5474  0.4836
 4678TIP3   OH235524   4.486   0.077  11.943  0.1396 -0.3069  0.8242
 4678TIP3    H135525   4.526   0.161  11.919  1.3118 -1.0932 -0.0715
 4678TIP3    H235526   4.497   0.022  11.865 -1.6368 -0.9562  0.9829
 4679TIP3   OH235527   0.746   6.089   5.551 -0.4621  0.1067  0.4226
 4679TIP3    H135528   0.799   6.034   5.610 -1.1868 -0.3836  0.6311
 4679TIP3    H235529   0.717   6.029   5.483 -2.5848 -0.1919  1.5070
 4680TIP3   OH235530   6.596   0.317   2.930  0.3343  0.1019 -0.5190
 4680TIP3    H135531   6.668   0.289   2.987  0.5643 -1.0730 -1.3367
 4680TIP3    H235532   6.571   0.403   2.962  2.1058  0.5311 -0.2151
 4681TIP3   OH235533   4.242   2.368  11.082  0.1434  0.5471 -0.5999
 4681TIP3    H135534   4.194   2.317  11.148  1.1348 -0.0646 -0.3359
 4681TIP3    H235535   4.256   2.453  11.124 -0.6660  0.7224 -0.6657
 4682TIP3   OH235536   1.755   3.526  13.263  0.5368  0.3443  0.3110
 4682TIP3    H135537   1.846   3.539  13.239  0.9130  1.6773  2.1590
 4682TIP3    H235538   1.750   3.556  13.354 -1.6326 -0.1862  0.4318
 4683TIP3   OH235539   5.851   4.170  12.422  0.1450 -0.0661 -0.0146
 4683TIP3    H135540   5.800   4.193  12.344 -2.0042  0.5119  1.4678
 4683TIP3    H235541   5.805   4.095  12.460  1.3597 -0.5593  0.5282
 4684TIP3   OH235542   0.932   0.425  15.001  0.4360 -0.3143  0.2423
 4684TIP3    H135543   1.007   0.366  14.992 -0.3603 -1.0416 -2.6946
 4684TIP3    H235544   0.860   0.368  15.029 -0.1606 -0.7193 -1.9062
 4685TIP3   OH235545   6.058   0.484   4.604 -0.1761  0.0979 -0.3459
 4685TIP3    H135546   6.028   0.572   4.625 -1.2228 -0.4219  0.4775
 4685TIP3    H235547   5.990   0.448   4.548  0.4115 -0.0858 -0.9589
 4686TIP3   OH235548   3.570   6.045  13.464 -0.1485  0.1521 -0.1265
 4686TIP3    H135549   3.557   6.139  13.466  2.4122  0.6730 -2.1548
 4686TIP3    H235550   3.525   6.012  13.542  1.4541  3.3920  2.3821
 4687TIP3   OH235551   1.554   0.237   0.112  0.6837 -0.3691 -0.1036
 4687TIP3    H135552   1.487   0.293   0.071  1.1320  0.5308  0.3654
 4687TIP3    H235553   1.504   0.165   0.151 -0.1642  0.8359  1.1451
 4688TIP3   OH235554   3.645   2.932  12.548  0.3558  0.0912 -0.7689
 4688TIP3    H135555   3.595   2.853  12.526 -0.3056  0.3728 -0.2910
 4688TIP3    H235556   3.683   2.914  12.634 -1.7661  1.1817  0.4827
 4689TIP3   OH235557   6.368   4.388  11.794 -0.4197  0.4865 -0.4164
 4689TIP3    H135558   6.433   4.458  11.790 -0.5422  0.5932 -0.5286
 4689TIP3    H235559   6.381   4.338  11.713 -0.5023  0.5306 -0.4572
 4690TIP3   OH235560   2.735   3.283  11.064 -0.2507 -0.1048  0.0306
 4690TIP3    H135561   2.714   3.321  10.979  0.7495  0.6704  0.1068
 4690TIP3    H235562   2.818   3.325  11.089 -1.4025  1.0274  2.2113
 4691TIP3   OH235563   1.862   5.406  13.373 -0.3307  0.5676  0.2643
 4691TIP3    H135564   1.907   5.487  13.400  1.2630 -0.2522  0.1344
 4691TIP3    H235565   1.913   5.373  13.299 -0.9904 -0.5384  0.2853
 4692TIP3   OH235566   0.072   1.091  13.808  0.0613 -0.2394 -0.2371
 4692TIP3    H135567   0.121   1.075  13.728  0.4352  0.5915 -0.1823
 4692TIP3    H235568   0.136   1.080  13.879 -0.3043 -1.1314 -0.0328
 4693TIP3   OH235569   0.335   6.530  15.974 -0.1571 -0.3191 -0.4856
 4693TIP3    H135570   0.391   6.455  15.955  1.1244  0.3973  0.3218
 4693TIP3    H235571   0.370   6.567  16.055 -3.0959 -1.0484  1.2747
 4694TIP3   OH235572   2.669   2.743   4.775 -0.0653 -0.0285 -0.3341
 4694TIP3    H135573   2.644   2.829   4.809 -1.2046 -0.8049  0.9073
 4694TIP3    H235574   2.586   2.696   4.765  0.5659 -1.1236 -0.5735
 4695TIP3   OH235575   5.197   3.285  14.285 -0.0614  0.4432 -0.7172
 4695TIP3    H135576   5.246   3.209  14.252  0.8624  0.0120  1.4820
 4695TIP3    H235577   5.238   3.360  14.243 -0.8874 -0.2148 -2.8128
 4696TIP3   OH235578   3.058   4.075  14.342  0.3739 -0.0115  0.4263
 4696TIP3    H135579   3.109   4.044  14.417  2.4665  0.5672 -0.6582
 4696TIP3    H235580   3.092   4.024  14.268 -1.7853 -0.7334 -0.1454
 4697TIP3   OH235581   5.848   6.489   1.406 -0.0214  0.4555 -0.0835
 4697TIP3    H135582   5.874   6.521   1.319  2.7861 -1.1227  0.0597
 4697TIP3    H235583   5.912   6.527   1.466 -0.7465 -0.0440  1.0376
 4698TIP3   OH235584   0.276   2.120  16.792 -0.5842  1.1199 -0.1897
 4698TIP3    H135585   0.361   2.112  16.749 -1.1454  1.4568 -1.4072
 4698TIP3    H235586   0.260   2.034  16.830  1.1711  1.5776  1.8065
 4699TIP3   OH235587   2.742   2.829  14.732 -0.9622 -0.4979  0.1953
 4699TIP3    H135588   2.769   2.921  14.738 -1.8779 -0.2615  0.9390
 4699TIP3    H235589   2.657   2.826  14.776 -1.0760 -1.6537 -0.0696
 4700TIP3   OH235590   4.525   2.781  14.216 -0.2297 -0.3265 -0.1347
 4700TIP3    H135591   4.497   2.787  14.125 -0.5739  0.5894  0.0120
 4700TIP3    H235592   4.502   2.692  14.243 -0.8890 -0.3369 -0.7086
 4701TIP3   OH235593   1.625   2.061  11.516  0.1623  0.1869 -0.1257
 4701TIP3    H135594   1.692   2.118  11.479 -1.8701  2.6936 -0.2743
 4701TIP3    H235595   1.608   1.996  11.448  0.6055  1.1357 -1.1755
 4702TIP3   OH235596   1.142   0.848   3.499 -0.2248 -0.4329 -0.0797
 4702TIP3    H135597   1.232   0.816   3.504 -0.2621 -0.4157  0.8901
 4702TIP3    H235598   1.097   0.805   3.572 -1.1349 -0.8332 -0.8559
 4703TIP3   OH235599   3.593   4.708  12.728 -0.0543  0.4835 -0.6393
 4703TIP3    H135600   3.541   4.723  12.808  0.5255 -0.2573 -0.1046
 4703TIP3    H235601   3.631   4.793  12.708  1.0588  0.3711  0.7984
 4704TIP3   OH235602   5.135   5.378   1.294 -0.2636 -0.5636  0.1921
 4704TIP3    H135603   5.111   5.288   1.272  1.3395 -1.0348  0.2238
 4704TIP3    H235604   5.149   5.420   1.210 -0.7957 -0.3978  0.1829
 4705TIP3   OH235605   3.482   3.370   2.480 -0.3501 -0.1649 -0.2411
 4705TIP3    H135606   3.444   3.457   2.494 -2.1490 -0.9776  0.3538
 4705TIP3    H235607   3.547   3.360   2.550  0.5241  1.0144 -0.8586
 4706TIP3   OH235608   5.821   0.666   5.160 -0.0937 -0.2167  0.3200
 4706TIP3    H135609   5.861   0.711   5.234  0.7556  0.9904 -0.8185
 4706TIP3    H235610   5.727   0.671   5.177  0.0489  0.8443  0.8813
 4707TIP3   OH235611   5.806   0.535  10.876  0.1808  0.4348  0.2169
 4707TIP3    H135612   5.767   0.513  10.791  0.3295 -1.1407  0.5288
 4707TIP3    H235613   5.846   0.621  10.863 -1.3829  1.0480 -0.7733
 4708TIP3   OH235614   5.820   0.973  12.392  0.0890 -0.6639 -1.3344
 4708TIP3    H135615   5.791   0.887  12.423  0.4690 -0.8223 -1.4123
 4708TIP3    H235616   5.739   1.017  12.366 -0.1566 -0.8280 -0.8761
 4709TIP3   OH235617   4.324   0.625   2.349 -0.3374 -0.9501 -0.3275
 4709TIP3    H135618   4.395   0.572   2.314  0.1915 -0.4133 -0.0708
 4709TIP3    H235619   4.287   0.670   2.273  1.0463  0.5023 -0.1878
 4710TIP3   OH235620   0.336   5.996   0.356  0.2541  0.2809 -0.0868
 4710TIP3    H135621   0.414   5.996   0.411  0.4479  0.5344 -0.3617
 4710TIP3    H235622   0.269   5.952   0.409  0.7047 -0.3452 -0.0302
 4711TIP3   OH235623   4.898   5.472  15.440 -0.0460 -0.4813 -0.3375
 4711TIP3    H135624   4.828   5.519  15.395  0.0862 -0.6583 -0.7276
 4711TIP3    H235625   4.900   5.386  15.398 -0.4214 -0.9115  0.5018
 4712TIP3   OH235626   0.046   6.120   1.765 -0.4455  0.1383  0.3503
 4712TIP3    H135627   0.099   6.161   1.696 -0.9389 -0.7985 -0.6074
 4712TIP3    H235628  -0.028   6.179   1.777 -0.2870  0.3749  0.1699
 4713TIP3   OH235629   6.653   0.603  12.450 -0.3589 -0.5439  0.0768
 4713TIP3    H135630   6.663   0.590  12.356  1.0549 -0.9432  0.2563
 4713TIP3    H235631   6.638   0.516  12.486  0.4571 -0.5758  0.3570
 4714TIP3   OH235632   1.692   6.759   2.144  0.3852  0.1842 -0.0490
 4714TIP3    H135633   1.709   6.853   2.135  0.0888  0.4551  1.8041
 4714TIP3    H235634   1.775   6.718   2.120  0.3477  0.8570 -1.4529
 4715TIP3   OH235635   6.673   6.533  13.939  0.0593 -0.1648 -0.3985
 4715TIP3    H135636   6.759   6.532  13.898  0.7053 -0.3059  0.8962
 4715TIP3    H235637   6.613   6.502  13.871  1.1725 -1.0473 -1.0071
 4716TIP3   OH235638   3.424   4.264   2.304  0.2320  0.2152 -0.0548
 4716TIP3    H135639   3.343   4.281   2.353  0.9058  0.0528  1.1705
 4716TIP3    H235640   3.404   4.189   2.249 -0.5052  0.2893  0.1032
 4717TIP3   OH235641   0.673   4.499  16.377 -0.4710 -0.4095 -0.3239
 4717TIP3    H135642   0.667   4.556  16.301 -0.8573 -0.0046  0.0065
 4717TIP3    H235643   0.622   4.421  16.353 -1.2768  0.0613 -0.1790
 4718TIP3   OH235644   4.026   0.243   4.856 -0.3200 -0.6888  0.1305
 4718TIP3    H135645   4.069   0.298   4.922  0.2283 -1.8221  0.7529
 4718TIP3    H235646   3.960   0.194   4.904 -0.4244 -0.9754 -0.2983
 4719TIP3   OH235647   2.220   6.220  15.739 -0.1737  0.6775 -0.1909
 4719TIP3    H135648   2.241   6.240  15.648  1.2281  1.8567  0.3532
 4719TIP3    H235649   2.160   6.289  15.766 -2.0223 -0.6507 -0.6757
 4720TIP3   OH235650   5.888   3.747  14.859 -0.0470 -0.4989  0.1936
 4720TIP3    H135651   5.958   3.732  14.921  0.7399  0.0762 -0.5313
 4720TIP3    H235652   5.813   3.700  14.895  0.5220 -0.5631  1.3172
 4721TIP3   OH235653   6.563   1.666   2.852  0.0275  0.2341  0.2106
 4721TIP3    H135654   6.635   1.700   2.906  0.3864 -0.0230 -0.0931
 4721TIP3    H235655   6.545   1.736   2.789 -0.7955  0.7719  1.0333
 4722TIP3   OH235656   5.291   1.673  11.537  0.5246 -0.3360 -0.4815
 4722TIP3    H135657   5.293   1.669  11.633 -0.0579  0.3421 -0.4298
 4722TIP3    H235658   5.208   1.632  11.513 -1.1181  2.6434 -0.4481
 4723TIP3   OH235659   4.915   5.389   5.905  0.1127  0.1195 -0.0863
 4723TIP3    H135660   4.960   5.407   5.988 -0.4395  0.2797  0.1793
 4723TIP3    H235661   4.896   5.475   5.868  0.2869  0.0488 -0.3480
 4724TIP3   OH235662   4.260   1.332   5.422  0.9317 -0.3735 -0.1659
 4724TIP3    H135663   4.295   1.340   5.511 -1.4131  2.6866  0.6542
 4724TIP3    H235664   4.320   1.381   5.367  2.4040 -2.2958 -0.3989
 4725TIP3   OH235665   4.445   5.507  12.091 -1.1000 -0.3794  0.5534
 4725TIP3    H135666   4.424   5.468  12.176 -1.0960 -1.3375  0.1311
 4725TIP3    H235667   4.383   5.580  12.082 -0.7752  0.0403  1.5855
 4726TIP3   OH235668   2.662   3.072   0.028  0.5060 -0.3374  0.2057
 4726TIP3    H135669   2.673   3.139   0.096  2.0754 -0.1629 -0.1687
 4726TIP3    H235670   2.632   3.121  -0.049  0.2779 -0.2896  0.3233
 4727TIP3   OH235671   3.808   6.400  16.678  0.3425  0.1791  0.6478
 4727TIP3    H135672   3.789   6.416  16.586  0.6217  1.4047  0.7775
 4727TIP3    H235673   3.818   6.488  16.716  4.2955 -0.2482  0.9889
 4728TIP3   OH235674   1.767   5.416   3.868 -0.4404  0.0982 -0.4647
 4728TIP3    H135675   1.715   5.424   3.948  0.5846 -0.6864  0.2960
 4728TIP3    H235676   1.730   5.339   3.824  0.2484 -0.6438  0.2256
 4729TIP3   OH235677   0.099   3.437  11.416  0.1203  0.4827  0.1036
 4729TIP3    H135678   0.187   3.472  11.428  0.0556  0.4227  0.8070
 4729TIP3    H235679   0.065   3.426  11.505  0.3720 -2.0334 -0.0482
 4730TIP3   OH235680   0.253   5.840  11.321  0.2624 -0.6572  0.4285
 4730TIP3    H135681   0.256   5.840  11.226  1.5283 -2.6314  0.4198
 4730TIP3    H235682   0.172   5.888  11.342  0.5120  0.7460 -1.5650
 4731TIP3   OH235683   4.392   5.230   2.741 -0.1179 -0.3212  0.3968
 4731TIP3    H135684   4.427   5.142   2.756  0.1842 -0.0536  1.3101
 4731TIP3    H235685   4.433   5.283   2.809  1.0827  0.8918 -1.1907
 4732TIP3   OH235686   1.885   3.169   3.430  0.1993  0.5295  0.1504
 4732TIP3    H135687   1.885   3.255   3.471  0.6783  0.5227  0.1748
 4732TIP3    H235688   1.977   3.152   3.410  0.1597 -0.1350  0.4872
 4733TIP3   OH235689   6.047   3.624   5.373  0.2720 -0.1563  0.6181
 4733TIP3    H135690   6.107   3.681   5.324 -0.7648  0.2415 -0.2402
 4733TIP3    H235691   6.089   3.611   5.458  1.0070  1.0648  0.4571
 4734TIP3   OH235692   1.383   3.887  10.679  0.4015 -0.0653 -0.7019
 4734TIP3    H135693   1.424   3.801  10.670  1.7965  0.5945 -0.9314
 4734TIP3    H235694   1.431   3.943  10.617 -0.0039  1.0358 -0.0513
 4735TIP3   OH235695   2.816   5.389  17.248 -0.4351  0.7657  0.2598
 4735TIP3    H135696   2.899   5.426  17.276  0.2949 -1.4599  1.2415
 4735TIP3    H235697   2.750   5.450  17.280  0.6632  0.9456  2.2967
 4736TIP3   OH235698   4.799   3.852  11.326  0.5749 -0.6163  0.7969
 4736TIP3    H135699   4.867   3.912  11.294  1.4187 -2.1463 -0.4101
 4736TIP3    H235700   4.762   3.814  11.246 -0.9973 -0.6011  1.4836
 4737TIP3   OH235701   2.009   5.905   5.517 -0.4711 -0.2240 -0.2497
 4737TIP3    H135702   1.941   5.946   5.464 -0.9076 -2.0277 -1.1825
 4737TIP3    H235703   2.078   5.883   5.455  0.7234  1.0087  0.5858
 4738TIP3   OH235704   1.576   5.252  12.228 -0.8094 -0.0749 -0.5378
 4738TIP3    H135705   1.555   5.221  12.140 -0.0715 -0.2861 -0.6456
 4738TIP3    H235706   1.491   5.262  12.271 -1.1160 -2.1859 -0.5302
 4739TIP3   OH235707   3.584   4.266   4.500  0.0153  0.4968  0.3219
 4739TIP3    H135708   3.501   4.251   4.453  0.5780  1.2564 -0.9784
 4739TIP3    H235709   3.623   4.341   4.456  0.7074  1.1041  1.8976
 4740TIP3   OH235710   3.373   2.791  11.047 -0.2570 -0.1538 -0.5120
 4740TIP3    H135711   3.317   2.811  10.972 -0.4961  0.6744 -0.1185
 4740TIP3    H235712   3.425   2.715  11.018 -1.8181 -1.1730 -0.7609
 4741TIP3   OH235713   4.968   4.019   4.613 -0.0702  0.2060 -0.7203
 4741TIP3    H135714   5.041   4.062   4.658  1.5675 -2.0574 -1.0280
 4741TIP3    H235715   4.963   3.932   4.654 -3.0034  0.4263 -0.3376
 4742TIP3   OH235716   4.798   3.522   4.652  0.1153 -0.2553  0.7096
 4742TIP3    H135717   4.813   3.472   4.733 -0.5530  0.9061  1.5861
 4742TIP3    H235718   4.846   3.603   4.665 -0.5160  0.2111  0.2089
 4743TIP3   OH235719   3.239   6.099   1.789 -0.4722  0.6497 -0.2896
 4743TIP3    H135720   3.317   6.145   1.756 -0.4360  0.4428 -0.4962
 4743TIP3    H235721   3.169   6.164   1.786 -0.3981  0.7202 -0.4847
 4744TIP3   OH235722   6.701   4.816   1.700 -0.0684  0.5479  0.3006
 4744TIP3    H135723   6.623   4.782   1.745  0.4718 -0.7142  0.3362
 4744TIP3    H235724   6.774   4.780   1.750  0.5663  2.3520  0.7334
 4745TIP3   OH235725   4.683   3.855  15.107 -0.3431  0.5411  0.4328
 4745TIP3    H135726   4.662   3.809  15.188  0.5413  3.2933  2.4212
 4745TIP3    H235727   4.604   3.903  15.085 -0.1750  0.8279  0.4462
 4746TIP3   OH235728   2.529   3.721   3.591  0.3442  0.4862 -0.2461
 4746TIP3    H135729   2.504   3.663   3.662  0.5511  0.5962 -0.0816
 4746TIP3    H235730   2.508   3.672   3.511 -1.6355  1.1006 -0.1451
 4747TIP3   OH235731   5.557   6.060  16.782  0.2979 -0.0753 -0.0703
 4747TIP3    H135732   5.511   6.012  16.713  1.2981  0.1659 -0.9157
 4747TIP3    H235733   5.548   6.005  16.860 -1.3952 -0.0444 -0.2085
 4748TIP3   OH235734   0.649   3.381  17.064 -0.3664  0.1136 -0.2348
 4748TIP3    H135735   0.562   3.354  17.093  0.0163 -0.0711  0.8035
 4748TIP3    H235736   0.706   3.307  17.086  0.2246  0.6549  0.1077
 4749TIP3   OH235737   2.547   1.376   1.878  0.1313 -0.1348  0.0965
 4749TIP3    H135738   2.477   1.398   1.817  0.1526 -0.7720 -0.1688
 4749TIP3    H235739   2.526   1.289   1.909  0.1329  0.1792  1.0020
 4750TIP3   OH235740   4.028   5.547   0.876 -0.4780 -0.3266  0.2009
 4750TIP3    H135741   4.054   5.523   0.965  0.2600  0.2971  0.1655
 4750TIP3    H235742   4.045   5.641   0.871  1.8675 -0.7504 -1.3858
 4751TIP3   OH235743   5.792   5.689  12.312  0.2827 -0.0377 -0.3703
 4751TIP3    H135744   5.807   5.599  12.283 -0.6804 -0.3396  0.0257
 4751TIP3    H235745   5.855   5.741  12.263  3.2728 -1.2912  1.7842
 4752TIP3   OH235746   6.440   6.812   4.089  0.3084  0.0165  0.5120
 4752TIP3    H135747   6.507   6.881   4.086 -1.0904  1.4176 -0.5536
 4752TIP3    H235748   6.397   6.824   4.173 -0.7787  1.3577 -0.1949
 4753TIP3   OH235749   3.419   3.986   0.929  0.1062  0.1273  0.3275
 4753TIP3    H135750   3.377   4.000   0.844  0.1140 -0.5548  0.2009
 4753TIP3    H235751   3.450   3.895   0.925 -0.2441 -0.0357  1.2115
 4754TIP3   OH235752   0.702   2.883  13.587  0.2343  0.8370 -0.7098
 4754TIP3    H135753   0.771   2.933  13.631  0.3266  1.2987 -1.3709
 4754TIP3    H235754   0.707   2.910  13.496 -0.8433  0.8879 -0.7634
 4755TIP3   OH235755   6.499   3.335  16.008 -0.5112  0.2067 -0.4413
 4755TIP3    H135756   6.438   3.290  15.949 -0.3716 -0.9246  0.2388
 4755TIP3    H235757   6.497   3.283  16.089 -0.2482  1.3745  0.3489
 4756TIP3   OH235758   0.724   3.267  13.961  0.0163  1.0240  0.1405
 4756TIP3    H135759   0.682   3.250  13.877  0.6790  0.5304 -0.1057
 4756TIP3    H235760   0.700   3.192  14.016  2.2343 -0.3838 -0.6694
 4757TIP3   OH235761   3.261   2.293  16.255 -0.3837 -0.1742  1.0462
 4757TIP3    H135762   3.227   2.210  16.222  1.9009 -1.0899  0.8178
 4757TIP3    H235763   3.196   2.322  16.318 -1.3458 -2.0290  0.9754
 4758TIP3   OH235764   1.949   1.282  17.202  0.1201 -0.0334 -0.2470
 4758TIP3    H135765   1.934   1.376  17.205 -1.2284 -0.2558  2.5371
 4758TIP3    H235766   1.868   1.245  17.168  0.5790 -0.2478 -1.1600
 4759TIP3   OH235767   5.913   0.827  14.665 -0.0730  0.3509 -0.3057
 4759TIP3    H135768   5.969   0.759  14.628  2.9021  2.0959  0.7257
 4759TIP3    H235769   5.911   0.809  14.759 -0.5190  0.8235 -0.2190
 4760TIP3   OH235770   5.370   4.606   1.370  0.2752 -0.0410  0.6280
 4760TIP3    H135771   5.440   4.671   1.375 -0.3925  0.7970 -0.3276
 4760TIP3    H235772   5.291   4.658   1.351 -0.8998 -0.7866  3.0273
 4761TIP3   OH235773   5.914   1.222   4.576  0.9868  0.0246  0.1021
 4761TIP3    H135774   5.819   1.230   4.577  1.1518  2.7830 -0.1761
 4761TIP3    H235775   5.937   1.202   4.667  0.1783 -0.7759  0.1503
 4762TIP3   OH235776   2.576   0.548  13.987 -0.1894  0.0648  0.2567
 4762TIP3    H135777   2.516   0.583  14.053 -1.5950  0.5352 -1.2236
 4762TIP3    H235778   2.578   0.454  14.006  0.3297  0.3373  1.6629
 4763TIP3   OH235779   1.046   4.917  15.080  0.1206  0.6773 -0.1500
 4763TIP3    H135780   0.963   4.940  15.040  0.0601  1.8294  0.5919
 4763TIP3    H235781   1.097   4.998  15.079  0.8023  0.2701  0.4133
 4764TIP3   OH235782   0.078   1.885   0.249 -0.1953  0.0188 -0.1903
 4764TIP3    H135783   0.099   1.803   0.204  0.2055  0.1248 -0.2037
 4764TIP3    H235784  -0.017   1.894   0.241 -0.0639  0.3940 -1.6194
 4765TIP3   OH235785   6.063   6.197  15.346 -0.0721 -0.0592  0.5249
 4765TIP3    H135786   5.985   6.146  15.325 -0.2839  0.6872 -0.5953
 4765TIP3    H235787   6.108   6.208  15.263 -1.0745  3.2433  0.2583
 4766TIP3   OH235788   3.006   3.114  12.229  0.2061 -0.6273  0.8530
 4766TIP3    H135789   2.947   3.102  12.155 -0.3754 -0.2025  1.2377
 4766TIP3    H235790   3.074   3.047  12.217 -0.1063 -0.8315  0.1698
 4767TIP3   OH235791   5.690   1.107  14.243  0.2058  0.0106 -0.2734
 4767TIP3    H135792   5.709   1.021  14.206  0.3774  0.7604 -2.0546
 4767TIP3    H235793   5.717   1.101  14.334  0.9249 -1.5845 -0.5623
 4768TIP3   OH235794   1.502   1.817  11.394  0.0410  0.4617  0.5760
 4768TIP3    H135795   1.563   1.785  11.327 -1.4054 -1.5500  0.1310
 4768TIP3    H235796   1.521   1.763  11.471 -0.4164  0.5868  0.7778
 4769TIP3   OH235797   0.836   5.260  17.078 -0.0834 -0.0167 -0.0888
 4769TIP3    H135798   0.894   5.286  17.150  1.3720  1.0552 -1.5748
 4769TIP3    H235799   0.763   5.321  17.083  1.0463  1.4415 -0.7475
 4770TIP3   OH235800   1.555   6.577  16.306  0.1136  1.0080  0.5428
 4770TIP3    H135801   1.581   6.668  16.320  1.8362  0.7220 -0.4937
 4770TIP3    H235802   1.587   6.557  16.218  1.8375 -1.2518  1.5807
 4771TIP3   OH235803   2.451   0.577  16.585 -0.4693 -0.2565  0.3903
 4771TIP3    H135804   2.509   0.628  16.528  0.1032 -0.0451  1.1458
 4771TIP3    H235805   2.477   0.602  16.673 -1.4302 -0.4878  0.7473
 4772TIP3   OH235806   0.263   5.091  14.890 -0.4185  0.3568  0.0400
 4772TIP3    H135807   0.227   5.113  14.976 -2.4731 -3.5390  0.3954
 4772TIP3    H235808   0.187   5.071  14.836  0.9217 -2.5465 -0.9821
 4773TIP3   OH235809   0.510   6.323   1.506 -0.9541 -0.4192  0.0702
 4773TIP3    H135810   0.488   6.348   1.596  3.7629  1.7832  0.9530
 4773TIP3    H235811   0.560   6.242   1.516  0.5753  0.4304 -0.2823
 4774TIP3   OH235812   1.733   3.069  11.559 -0.0306  0.6620  0.4947
 4774TIP3    H135813   1.666   3.082  11.626  2.1422  1.4171  2.6623
 4774TIP3    H235814   1.770   3.156  11.545 -1.2236  0.7932 -2.7266
 4775TIP3   OH235815   5.606   6.397  13.079  0.1436  0.0429 -0.5500
 4775TIP3    H135816   5.541   6.380  13.011 -0.1883 -0.8789 -0.0187
 4775TIP3    H235817   5.605   6.492  13.090  0.8703  0.3209 -2.4660
 4776TIP3   OH235818   5.587   2.754   0.504  0.1519  1.2518 -0.3894
 4776TIP3    H135819   5.605   2.674   0.553  0.7798 -0.6377 -3.4290
 4776TIP3    H235820   5.670   2.802   0.504  0.2922  1.0104 -0.0443
 4777TIP3   OH235821   6.280   5.854   6.620  0.0610 -0.1449 -0.4440
 4777TIP3    H135822   6.306   5.944   6.639  1.9808 -0.2735 -2.0859
 4777TIP3    H235823   6.205   5.861   6.562  0.5941  0.4445 -1.0771
 4778TIP3   OH235824   5.654   1.940  14.304 -0.4223  0.4826 -0.2074
 4778TIP3    H135825   5.682   2.009  14.364 -0.0864 -0.7179  1.0950
 4778TIP3    H235826   5.726   1.931  14.242 -0.3386  1.1082 -0.2015
 4779TIP3   OH235827   1.488   5.216  17.261  0.5823 -0.0719  0.3777
 4779TIP3    H135828   1.455   5.305  17.247 -1.1607 -0.6092  0.9550
 4779TIP3    H235829   1.459   5.193  17.349  2.8348 -0.4692  1.0811
 4780TIP3   OH235830   2.362   4.294   3.708  0.2547  0.2732  0.3071
 4780TIP3    H135831   2.436   4.234   3.703 -2.1323 -2.9234 -0.5432
 4780TIP3    H235832   2.368   4.333   3.796  2.3157 -0.7133  0.6451
 4781TIP3   OH235833   3.139   5.886  13.727  0.0913 -0.2973  0.0227
 4781TIP3    H135834   3.087   5.949  13.779  1.4129 -0.3159  1.4410
 4781TIP3    H235835   3.137   5.921  13.638 -1.3012  0.3723  0.2925
 4782TIP3   OH235836   1.946   5.709  17.034  0.1070  0.4605 -0.4778
 4782TIP3    H135837   1.916   5.623  17.005  0.5072  0.5652 -1.2497
 4782TIP3    H235838   1.870   5.767  17.022 -0.8591 -0.1759  2.0987
 4783TIP3   OH235839   6.269   1.535  11.435  0.0318  0.3957 -0.3852
 4783TIP3    H135840   6.364   1.547  11.448  0.0339  0.9588 -0.8660
 4783TIP3    H235841   6.262   1.484  11.355 -0.0596 -0.3966  0.1141
 4784TIP3   OH235842   1.395   5.124   0.213  0.0668 -0.1019 -0.3214
 4784TIP3    H135843   1.382   5.029   0.222  0.9507 -0.1861  0.1670
 4784TIP3    H235844   1.308   5.158   0.192 -0.3280 -0.9792 -0.1564
 4785TIP3   OH235845   4.014   4.319  10.858  0.1188  0.1699 -0.3337
 4785TIP3    H135846   4.038   4.245  10.803  0.2538  1.7337 -2.5239
 4785TIP3    H235847   3.919   4.317  10.863  0.1753 -0.8170  0.6645
 4786TIP3   OH235848   3.070   4.315   2.740  0.4019 -0.0094  0.0437
 4786TIP3    H135849   3.165   4.309   2.726  0.4332  1.3500 -0.5180
 4786TIP3    H235850   3.035   4.238   2.696  1.0907  0.5801 -1.6294
 4787TIP3   OH235851   1.173   3.327   5.366 -0.1133 -0.2437  0.2341
 4787TIP3    H135852   1.172   3.384   5.289  0.3425 -2.2535 -1.3542
 4787TIP3    H235853   1.206   3.382   5.437  0.0161  1.5191 -1.1341
 4788TIP3   OH235854   0.050   2.377   0.266 -0.0281  0.2844 -0.3114
 4788TIP3    H135855   0.008   2.460   0.245  0.8049  1.0134  0.7937
 4788TIP3    H235856   0.066   2.382   0.360 -1.4673 -1.8331  0.1234
 4789TIP3   OH235857   5.042   5.290   4.313 -0.5564  0.4734  0.1819
 4789TIP3    H135858   4.954   5.312   4.345 -0.5376  0.3915  0.2893
 4789TIP3    H235859   5.026   5.253   4.226 -0.5038  1.8271 -0.4200
 4790TIP3   OH235860   3.719   2.590   5.783 -0.1356  0.2506 -0.1099
 4790TIP3    H135861   3.779   2.636   5.842 -0.5562 -0.6738  1.0671
 4790TIP3    H235862   3.762   2.595   5.697  1.1206  0.4930  0.5094
 4791TIP3   OH235863   1.671   3.606   2.770 -0.2945  0.3339  0.0924
 4791TIP3    H135864   1.606   3.577   2.834  0.2817  1.0084  1.0117
 4791TIP3    H235865   1.626   3.674   2.720 -0.0739  1.4023  1.2806
 4792TIP3   OH235866   6.666   4.075   2.317 -0.2228  0.8147  0.0053
 4792TIP3    H135867   6.753   4.108   2.295  0.9777 -2.1153 -0.1005
 4792TIP3    H235868   6.623   4.062   2.232  0.4601 -0.6407 -0.1490
 4793TIP3   OH235869   4.902   1.715   3.341 -0.2490 -0.0032  0.1475
 4793TIP3    H135870   4.873   1.806   3.335 -1.0689 -0.3433 -1.6871
 4793TIP3    H235871   4.997   1.721   3.352 -0.4639  1.0666  1.7471
 4794TIP3   OH235872   4.378   4.778   0.636  0.0510  0.1732 -0.0602
 4794TIP3    H135873   4.471   4.767   0.654 -0.0754 -0.9064 -0.0461
 4794TIP3    H235874   4.374   4.804   0.544  0.4775  2.3951  0.4793
 4795TIP3   OH235875   5.575   4.755   3.040 -0.0800  0.2938 -0.3657
 4795TIP3    H135876   5.523   4.678   3.060 -2.1795  1.8862  0.6323
 4795TIP3    H235877   5.666   4.725   3.045 -0.8112 -1.8824  0.8725
 4796TIP3   OH235878   4.916   4.009  15.291 -0.1919 -0.4675  0.0192
 4796TIP3    H135879   4.892   3.982  15.202 -0.8452 -0.8156  0.2894
 4796TIP3    H235880   4.843   4.064  15.319 -0.7677 -1.6254  0.9039
 4797TIP3   OH235881   1.918   2.667  15.786  0.4365  0.2578 -0.0360
 4797TIP3    H135882   1.848   2.660  15.851  0.2767  0.7406 -0.1507
 4797TIP3    H235883   1.945   2.577  15.770  0.1656  0.1029  0.3624
 4798TIP3   OH235884   3.540   2.055   6.191  0.7701  0.1419  0.2136
 4798TIP3    H135885   3.486   1.980   6.166  2.5863 -0.7747 -1.2092
 4798TIP3    H235886   3.579   2.030   6.275 -0.3331  0.4787  0.8525
 4799TIP3   OH235887   4.271   6.438  16.011  0.2740 -0.5054 -0.4190
 4799TIP3    H135888   4.287   6.485  15.930  0.5359 -1.2500 -0.8098
 4799TIP3    H235889   4.218   6.498  16.064  0.3344  0.0913 -1.0239
 4800TIP3   OH235890   1.624   2.483  12.347 -0.2258 -0.3279 -0.7213
 4800TIP3    H135891   1.618   2.578  12.333  0.4164 -0.2633 -0.5819
 4800TIP3    H235892   1.548   2.462  12.402 -0.4410  0.0836 -0.8559
 4801TIP3   OH235893   5.441   1.035  14.123  0.7278 -0.0129  0.2206
 4801TIP3    H135894   5.402   1.088  14.052  0.1322  0.8951  1.1832
 4801TIP3    H235895   5.535   1.053  14.118  0.5152  1.3193  0.6407
 4802TIP3   OH235896   5.464   1.412   1.914 -0.3896 -0.0625  0.8710
 4802TIP3    H135897   5.468   1.327   1.956  0.0844  0.2864  1.5529
 4802TIP3    H235898   5.514   1.402   1.833 -1.5442 -0.8187  0.2294
 4803TIP3   OH235899   5.092   2.899  15.293 -0.7199  0.1146  0.0778
 4803TIP3    H135900   5.123   2.975  15.244 -0.8828  2.0280  2.7238
 4803TIP3    H235901   4.997   2.911  15.298 -0.5909  0.6476  1.8231
 4804TIP3   OH235902   1.620   4.775  16.228 -0.2457 -0.4954 -0.3427
 4804TIP3    H135903   1.580   4.843  16.172 -2.7115 -1.3328  0.2814
 4804TIP3    H235904   1.604   4.805  16.317 -2.0948 -2.1929 -0.0348
 4805TIP3   OH235905   1.885   1.531   3.077 -0.1589 -0.1643 -0.3959
 4805TIP3    H135906   1.815   1.478   3.039 -0.2070 -1.3767  1.2888
 4805TIP3    H235907   1.839   1.598   3.128 -0.0838  0.1305 -0.7100
 4806TIP3   OH235908   4.614   3.160   5.199 -0.1279 -0.4566 -0.1712
 4806TIP3    H135909   4.585   3.219   5.130  1.2064 -0.9719 -1.2251
 4806TIP3    H235910   4.535   3.109   5.222 -0.8588  0.5089 -0.4815
 4807TIP3   OH235911   5.123   1.938  11.327 -0.6321 -0.2451  0.0502
 4807TIP3    H135912   5.095   1.939  11.419 -0.4302 -1.4278  0.1475
 4807TIP3    H235913   5.095   1.852  11.295  2.7644 -1.5712  0.1469
 4808TIP3   OH235914   1.557   1.856  12.031 -0.6553 -0.4160 -0.1038
 4808TIP3    H135915   1.563   1.890  11.942 -0.6239  0.2859  0.1630
 4808TIP3    H235916   1.632   1.895  12.077  0.8175 -2.6693 -0.3758
 4809TIP3   OH235917   5.810   3.580   5.567  0.5591 -0.5929 -0.4431
 4809TIP3    H135918   5.838   3.621   5.485 -1.7435  0.4028 -0.7993
 4809TIP3    H235919   5.716   3.565   5.556  0.5669 -2.2506  1.2804
 4810TIP3   OH235920   5.886   6.716   2.994  0.3646  0.4945  0.1331
 4810TIP3    H135921   5.921   6.627   2.986  0.1035  0.2613  1.4516
 4810TIP3    H235922   5.846   6.733   2.909  0.7824 -0.4845 -0.2784
 4811TIP3   OH235923   4.845   5.894  15.748  0.3419 -0.1694 -0.0159
 4811TIP3    H135924   4.934   5.888  15.714  0.5932  3.3285 -0.4074
 4811TIP3    H235925   4.797   5.941  15.679 -1.8312 -1.9020  0.2158
 4812TIP3   OH235926   5.534   5.016   1.019 -0.3736  0.4586  0.0321
 4812TIP3    H135927   5.605   5.074   0.991  0.2825 -0.4981 -0.3557
 4812TIP3    H235928   5.481   5.070   1.077  1.1639  0.9717  1.0390
 4813TIP3   OH235929   1.438   2.143   6.376  0.2975 -0.4846  0.0342
 4813TIP3    H135930   1.488   2.093   6.311  0.4319  2.0267 -1.9429
 4813TIP3    H235931   1.350   2.103   6.373  0.4940 -0.8878 -1.1804
 4814TIP3   OH235932   1.684   3.360   0.446  0.4124 -0.3407 -0.2237
 4814TIP3    H135933   1.708   3.300   0.516  1.2025  0.8037  0.5098
 4814TIP3    H235934   1.762   3.366   0.391 -0.6509 -2.3606 -2.0963
 4815TIP3   OH235935   2.729   4.301  13.468 -0.2589  0.2925  0.2284
 4815TIP3    H135936   2.659   4.311  13.405 -0.4267  1.5934  0.5969
 4815TIP3    H235937   2.784   4.231  13.432 -2.8442 -2.3390  0.9872
 4816TIP3   OH235938   3.168   6.329   0.838 -0.1752  0.3036 -0.3056
 4816TIP3    H135939   3.232   6.396   0.814  0.3581  0.2516  0.8867
 4816TIP3    H235940   3.084   6.375   0.834  0.1383  0.9341  0.0551
 4817TIP3   OH235941   1.871   4.053   3.786  0.0350  0.4170  0.2147
 4817TIP3    H135942   1.840   3.982   3.731 -0.7079  2.1158 -1.7000
 4817TIP3    H235943   1.935   4.100   3.732  1.7090  0.3234  2.0072
 4818TIP3   OH235944   2.594   4.827  16.494 -0.3542  0.5072 -0.5869
 4818TIP3    H135945   2.561   4.890  16.430  2.6528  1.2218 -1.6364
 4818TIP3    H235946   2.617   4.750  16.441  2.7726  1.3380 -0.6620
 4819TIP3   OH235947   3.824   5.438   5.177  0.3909  0.0322  0.4220
 4819TIP3    H135948   3.757   5.400   5.234  1.9050 -0.9409  1.6339
 4819TIP3    H235949   3.893   5.371   5.174  0.4491  0.1374 -2.4369
 4820TIP3   OH235950   3.407   1.998  10.396 -0.6400  0.5834 -0.0255
 4820TIP3    H135951   3.479   1.938  10.379 -1.5344 -0.3065 -0.8028
 4820TIP3    H235952   3.423   2.073  10.338 -1.0559 -0.2381 -1.2489
 4821TIP3   OH235953   6.018   3.587   2.345 -0.2988  0.4117 -0.1458
 4821TIP3    H135954   5.929   3.593   2.308 -0.7551  0.1720  0.8811
 4821TIP3    H235955   6.043   3.678   2.362 -0.7019  0.4330  0.3613
 4822TIP3   OH235956   0.482   6.405  12.973  0.0249  0.4239 -0.1872
 4822TIP3    H135957   0.539   6.360  13.035  0.0779 -0.6018 -0.9347
 4822TIP3    H235958   0.523   6.489  12.957  0.9792 -0.0359 -0.2066
 4823TIP3   OH235959   0.618   1.221  11.739 -0.0582 -0.4507 -0.3942
 4823TIP3    H135960   0.649   1.167  11.812  0.9147  0.4020 -0.1572
 4823TIP3    H235961   0.681   1.292  11.733 -0.7358  0.0921 -1.3780
 4824TIP3   OH235962   1.335   0.244  14.793 -0.4276 -0.0333  0.5856
 4824TIP3    H135963   1.310   0.229  14.701  0.7547 -0.1758  0.2650
 4824TIP3    H235964   1.409   0.305  14.787  1.9609 -2.6834  1.1737
 4825TIP3   OH235965   5.383   4.235  15.056  0.1571  0.0135 -0.3086
 4825TIP3    H135966   5.337   4.171  15.002 -0.7553 -1.3021  1.8761
 4825TIP3    H235967   5.400   4.308  14.997 -0.0920 -1.6063 -2.5295
 4826TIP3   OH235968   1.757   2.521  17.026 -0.5175  0.7893 -0.1527
 4826TIP3    H135969   1.720   2.579  16.959 -2.8121  1.4459  1.5260
 4826TIP3    H235970   1.834   2.568  17.058  0.2525  0.7503 -1.8557
 4827TIP3   OH235971   3.283   3.882  11.841 -0.5083 -0.3424 -0.3489
 4827TIP3    H135972   3.364   3.931  11.855 -1.5169  1.2677  0.1614
 4827TIP3    H235973   3.260   3.849  11.928 -0.1853 -1.1723 -0.5725
 4828TIP3   OH235974   1.946   1.733   1.667  1.2661 -0.5361  0.3277
 4828TIP3    H135975   1.936   1.786   1.746  0.0292  0.3067 -0.3575
 4828TIP3    H235976   1.967   1.796   1.598 -1.0956 -0.7299 -0.6808
 4829TIP3   OH235977   3.117   4.986  17.129  1.0049  0.1518  1.6452
 4829TIP3    H135978   3.179   5.057  17.116  2.2873 -1.1233  0.2919
 4829TIP3    H235979   3.121   4.967  17.222  1.9138  0.7439  1.7420
 4830TIP3   OH235980   4.133   6.673  11.193 -0.0317 -0.2232  0.3040
 4830TIP3    H135981   4.112   6.757  11.234 -1.0087 -0.3011 -0.0114
 4830TIP3    H235982   4.050   6.626  11.191 -0.1327 -0.0696 -2.1503
 4831TIP3   OH235983   6.029   5.110  14.299 -0.2754 -0.3753  0.4861
 4831TIP3    H135984   5.952   5.122  14.244 -1.6178  1.7928  2.6744
 4831TIP3    H235985   6.018   5.022  14.336 -0.3567 -1.0652 -1.0725
 4832TIP3   OH235986   0.276   3.642   1.575  0.1061  0.1609  0.1068
 4832TIP3    H135987   0.194   3.674   1.612  0.4236  0.1947  0.8102
 4832TIP3    H235988   0.252   3.599   1.493 -0.8693 -1.6781  1.3083
 4833TIP3   OH235989   3.010   2.599  13.772 -0.3091  0.0501 -0.3414
 4833TIP3    H135990   3.097   2.620  13.806 -0.7312  1.6827 -0.2090
 4833TIP3    H235991   2.961   2.568  13.848 -0.5370  1.4003  0.0802
 4834TIP3   OH235992   1.814   0.296   5.340  0.2653 -0.1252 -0.2151
 4834TIP3    H135993   1.734   0.339   5.310 -0.2790  0.3332  1.7586
 4834TIP3    H235994   1.872   0.368   5.364  1.1952 -0.4612 -1.3726
 4835TIP3   OH235995   2.101   2.016   4.716  0.3235  0.0481 -0.2007
 4835TIP3    H135996   2.134   2.001   4.805  0.5800 -0.1648 -0.3291
 4835TIP3    H235997   2.101   1.930   4.676  1.8473  0.3612 -0.9570
 4836TIP3   OH235998   6.373   3.208  11.550  0.0464  0.6885  0.1452
 4836TIP3    H135999   6.432   3.195  11.476  0.0715 -0.3507  0.3414
 4836TIP3    H236000   6.297   3.154  11.531  0.1729  0.1953  1.0037
 4837TIP3   OH236001   4.172   1.060   0.136 -0.0900  0.1494 -0.0323
 4837TIP3    H136002   4.198   1.150   0.153  1.7332 -0.5947  1.5194
 4837TIP3    H236003   4.225   1.032   0.062 -1.9443  0.8206 -1.7063
 4838TIP3   OH236004   5.689   4.762  13.913 -0.0799 -0.2875  0.1072
 4838TIP3    H136005   5.621   4.822  13.884  2.4074  2.2240 -1.0082
 4838TIP3    H236006   5.742   4.814  13.973  1.7623 -1.5958 -0.3044
 4839TIP3   OH236007   0.610   4.908  15.067  0.1468  0.2242  0.3898
 4839TIP3    H136008   0.574   4.986  15.024  0.5679 -0.5024 -1.3714
 4839TIP3    H236009   0.705   4.920  15.063  0.2457  1.1753  3.1972
 4840TIP3   OH236010   6.768   3.936  15.677 -1.0121  0.7439 -0.0096
 4840TIP3    H136011   6.692   3.941  15.619  0.5701  1.4843 -2.1458
 4840TIP3    H236012   6.807   3.851  15.659  0.5912  1.7456 -1.6011
 4841TIP3   OH236013   2.582   6.177   3.012  0.1899  0.4345 -0.0537
 4841TIP3    H136014   2.535   6.253   3.047  1.3217  0.8190  0.7042
 4841TIP3    H236015   2.620   6.209   2.930  0.1049  0.4907 -0.0713
 4842TIP3   OH236016   4.343   4.715   0.024 -0.0519  0.5135  0.2233
 4842TIP3    H136017   4.421   4.737  -0.026 -0.5798 -1.1187 -1.4497
 4842TIP3    H236018   4.374   4.654   0.091  0.2790  0.7713  0.3095
 4843TIP3   OH236019   2.066   0.208  16.688  0.2438  0.2833 -0.4338
 4843TIP3    H136020   2.107   0.285  16.728  0.9715 -0.2311 -0.1527
 4843TIP3    H236021   2.139   0.158  16.652 -0.1561 -0.5476 -0.1265
 4844TIP3   OH236022   4.695   6.723  13.332  0.3577  0.5713  0.0769
 4844TIP3    H136023   4.698   6.819  13.335 -1.1414  0.6237  1.0367
 4844TIP3    H236024   4.767   6.695  13.388  0.0142  1.1580  0.8203
 4845TIP3   OH236025   5.708   5.256  13.770  0.4112 -0.6931  0.4199
 4845TIP3    H136026   5.667   5.175  13.739 -0.6554  0.0863 -0.2919
 4845TIP3    H236027   5.634   5.317  13.782  1.3498  0.7780 -0.9081
 4846TIP3   OH236028   3.203   0.729   6.581 -0.8028  0.2754 -0.4175
 4846TIP3    H136029   3.137   0.797   6.568 -0.7920  0.3656 -0.0197
 4846TIP3    H236030   3.162   0.668   6.642 -0.9847 -0.3182 -1.1155
 4847TIP3   OH236031   4.708   3.935  13.244 -0.0946 -0.1533 -0.0121
 4847TIP3    H136032   4.683   3.945  13.336  0.8949 -0.4646  0.3092
 4847TIP3    H236033   4.680   4.016  13.202  1.3086  0.9107  1.0172
 4848TIP3   OH236034   0.756   5.126   1.372 -0.3975  0.0050  0.4392
 4848TIP3    H136035   0.762   5.091   1.461 -1.7109  0.3407  0.6952
 4848TIP3    H236036   0.699   5.064   1.326  0.6897 -0.4421 -0.3298
 4849TIP3   OH236037   3.560   2.532  14.060  0.0366 -0.0535  0.0740
 4849TIP3    H136038   3.531   2.619  14.085 -0.5551  0.0255 -0.8364
 4849TIP3    H236039   3.500   2.472  14.104  0.3331 -0.0003  0.5563
 4850TIP3   OH236040   0.528   4.130   2.286  0.1768  0.5487  0.1440
 4850TIP3    H136041   0.490   4.217   2.295 -0.8947  0.1788 -0.6266
 4850TIP3    H236042   0.618   4.146   2.259  0.2475  1.4195  0.8322
 4851TIP3   OH236043   2.245   0.106  12.605 -0.0479 -0.8370 -0.2160
 4851TIP3    H136044   2.305   0.034  12.587  2.4488  0.0324  3.4874
 4851TIP3    H236045   2.272   0.175  12.544  0.7867 -1.4211 -0.5250
 4852TIP3   OH236046   5.795   5.848  13.690 -0.2543 -0.3092 -0.0600
 4852TIP3    H136047   5.874   5.818  13.645  0.8966  0.4533  1.3515
 4852TIP3    H236048   5.723   5.813  13.638  1.0026 -1.0731 -1.3700
 4853TIP3   OH236049   6.135   3.339  13.476 -0.2742  0.7840  0.8932
 4853TIP3    H136050   6.127   3.283  13.554  0.7641  0.5846  0.8728
 4853TIP3    H236051   6.214   3.307  13.432 -0.6332  1.1492 -0.0437
 4854TIP3   OH236052   6.114   1.143  11.477 -0.3351 -0.1198  0.1440
 4854TIP3    H136053   6.202   1.161  11.510 -0.7194  1.1223  0.5442
 4854TIP3    H236054   6.126   1.130  11.383  0.2213  0.5158  0.1147
 4855TIP3   OH236055   4.729   5.921   5.208  0.0918  0.4445  0.5534
 4855TIP3    H136056   4.698   6.005   5.173  0.2925  0.2400 -0.1338
 4855TIP3    H236057   4.650   5.867   5.212  0.1025  0.3948  0.1801
 4856TIP3   OH236058   2.822   3.910  14.283 -0.0923 -0.6707 -0.0626
 4856TIP3    H136059   2.842   3.998  14.315 -0.4707  0.1389 -1.9441
 4856TIP3    H236060   2.827   3.855  14.361  1.7799  0.7326  0.8841
 4857TIP3   OH236061   5.391   2.012  13.761 -0.7845  0.1247  0.6537
 4857TIP3    H136062   5.397   1.989  13.669  0.2145 -1.0584  0.9867
 4857TIP3    H236063   5.477   2.050  13.782 -0.6932 -0.4122  1.2898
 4858TIP3   OH236064   4.790   0.538  16.924  0.1838  0.7104  0.3380
 4858TIP3    H136065   4.860   0.478  16.949  0.7100  1.0169 -0.3598
 4858TIP3    H236066   4.738   0.490  16.860  0.7340  1.0454 -0.3894
 4859TIP3   OH236067   5.548   2.542  13.353 -0.1561  0.2399 -0.1345
 4859TIP3    H136068   5.464   2.540  13.399  0.0848 -0.7769  0.2982
 4859TIP3    H236069   5.556   2.455  13.314 -0.0788  0.8940 -1.6213
 4860TIP3   OH236070   3.337   6.672   0.557 -1.0604  0.0635  0.0194
 4860TIP3    H136071   3.327   6.578   0.569 -0.8555 -0.1924 -1.6158
 4860TIP3    H236072   3.368   6.704   0.642  0.9295 -1.6420  0.0004
 4861TIP3   OH236073   6.780   5.570   3.377  0.2527 -0.0891 -0.3424
 4861TIP3    H136074   6.735   5.628   3.315 -0.9259 -1.1979 -0.5548
 4861TIP3    H236075   6.795   5.489   3.328 -1.1280 -1.1708  0.9305
 4862TIP3   OH236076   2.585   2.613  15.272 -0.2181 -0.3004  0.7232
 4862TIP3    H136077   2.593   2.587  15.363 -0.7226 -0.5971  0.6880
 4862TIP3    H236078   2.634   2.547  15.224  1.8276  0.9861  0.9103
 4863TIP3   OH236079   1.292   3.368   5.088 -0.6265  0.3648  0.5022
 4863TIP3    H136080   1.334   3.301   5.141  1.3756  0.6101 -0.6835
 4863TIP3    H236081   1.204   3.333   5.071  0.7857 -2.7391 -1.3058
 4864TIP3   OH236082   0.738   3.959  14.355  0.2560  0.3956 -0.1934
 4864TIP3    H136083   0.744   3.863  14.360  1.2929  0.3487 -1.8124
 4864TIP3    H236084   0.704   3.977  14.268  0.7405  1.5288 -0.1618
 4865TIP3   OH236085   0.953   0.762  12.196 -0.0902  0.2005 -0.7798
 4865TIP3    H136086   0.994   0.692  12.146 -1.4247  0.4202 -2.2326
 4865TIP3    H236087   1.002   0.841  12.172 -0.1506  0.1560 -1.0527
 4866TIP3   OH236088   1.605   3.002  13.501 -0.2164 -0.2050 -0.1687
 4866TIP3    H136089   1.663   2.958  13.439 -0.2342  0.9940 -1.0679
 4866TIP3    H236090   1.565   3.073  13.451 -2.2618 -0.8109  0.4880
 4867TIP3   OH236091   2.312   0.497  11.528  0.8855 -0.3857 -0.3881
 4867TIP3    H136092   2.350   0.459  11.449  1.5810 -2.4730  0.8694
 4867TIP3    H236093   2.374   0.477  11.597 -0.8315 -0.7628  1.1360
 4868TIP3   OH236094   2.964   4.533   0.509 -0.0688 -0.2739 -0.6591
 4868TIP3    H136095   2.958   4.456   0.452  0.4001 -0.6145 -0.2555
 4868TIP3    H236096   2.999   4.602   0.452  0.4136 -0.6172 -0.7898
 4869TIP3   OH236097   6.317   5.378   1.278  0.5021 -0.5686  0.2498
 4869TIP3    H136098   6.363   5.342   1.354 -0.7162 -0.1856  1.2040
 4869TIP3    H236099   6.377   5.443   1.242  1.2753 -1.0660  0.6173
 4870TIP3   OH236100   6.459   6.657   2.122 -0.2654 -0.2926  0.7752
 4870TIP3    H136101   6.548   6.643   2.154 -0.0880 -0.7732  0.0902
 4870TIP3    H236102   6.466   6.645   2.027 -1.2669 -1.3557  0.8272
 4871TIP3   OH236103   6.536   1.778   5.784 -0.1018  0.1548  0.2938
 4871TIP3    H136104   6.608   1.716   5.771  0.4093  0.7339  0.2455
 4871TIP3    H236105   6.459   1.724   5.801 -0.1229 -0.5789 -1.7924
 4872TIP3   OH236106   3.100   3.097  16.622 -0.3722  0.0470 -0.3005
 4872TIP3    H136107   3.031   3.151  16.662 -0.9015 -0.9975  0.2512
 4872TIP3    H236108   3.056   3.052  16.550 -0.3369 -0.7529  0.1600
 4873TIP3   OH236109   2.494   3.289  13.753 -0.3427 -0.2135 -0.4657
 4873TIP3    H136110   2.493   3.264  13.660  1.5236 -2.5661  0.0664
 4873TIP3    H236111   2.544   3.371  13.754 -2.2018  1.0261 -1.7015
 4874TIP3   OH236112   4.862   4.926  12.457 -0.4324  1.5453 -0.2959
 4874TIP3    H136113   4.784   4.870  12.465 -0.0955  1.2885  2.2085
 4874TIP3    H236114   4.887   4.919  12.365 -1.7622 -0.5935 -0.5833
 4875TIP3   OH236115   0.312   4.452  16.615  0.3264  0.3348  0.2332
 4875TIP3    H136116   0.266   4.490  16.540 -0.2512 -1.1133 -0.1878
 4875TIP3    H236117   0.396   4.497  16.618  0.4802  0.2230 -1.4767
 4876TIP3   OH236118   4.945   1.665   1.618 -0.2924 -0.3383 -0.5308
 4876TIP3    H136119   4.933   1.571   1.605 -1.7994 -0.1807 -0.4204
 4876TIP3    H236120   4.964   1.674   1.711 -0.5560 -0.5080 -0.4590
 4877TIP3   OH236121   1.226   5.902  10.587 -0.5257 -0.0817  0.0790
 4877TIP3    H136122   1.159   5.962  10.555 -1.5925 -0.6392  1.1907
 4877TIP3    H236123   1.223   5.910  10.683  0.1184 -1.0299  0.1998
 4878TIP3   OH236124   1.631   4.962   1.479 -0.1933 -0.0401  0.7572
 4878TIP3    H136125   1.689   5.035   1.501 -0.1048  1.6590 -3.9119
 4878TIP3    H236126   1.689   4.893   1.446 -0.5165  0.2465 -0.4943
 4879TIP3   OH236127   5.158   2.365   4.565 -0.0687  0.3429  0.1889
 4879TIP3    H136128   5.064   2.347   4.563 -0.4210  1.7716  1.5617
 4879TIP3    H236129   5.169   2.429   4.635  2.1597 -0.9805  1.1812
 4880TIP3   OH236130   3.507   6.261   2.389 -0.4064  0.0680  0.3331
 4880TIP3    H136131   3.534   6.184   2.340 -1.2764 -0.7733  1.1421
 4880TIP3    H236132   3.575   6.273   2.456  0.3055  0.6783 -0.4843
 4881TIP3   OH236133   5.887   5.743   0.794 -0.6164 -0.2010 -0.1340
 4881TIP3    H136134   5.826   5.687   0.841 -0.6773  0.5423  0.7044
 4881TIP3    H236135   5.957   5.760   0.857 -1.2327  1.6920  0.1203
 4882TIP3   OH236136   6.747   4.807  13.082 -0.4409  0.2892 -0.5634
 4882TIP3    H136137   6.651   4.813  13.076 -0.5829  0.1015  0.9931
 4882TIP3    H236138   6.777   4.813  12.992 -1.8371  1.8349 -0.9852
 4883TIP3   OH236139   5.641   1.183  15.883 -0.4469 -0.0479 -0.3092
 4883TIP3    H136140   5.562   1.235  15.899  0.9991  1.7422  1.3946
 4883TIP3    H236141   5.668   1.153  15.970  0.2291 -1.4887 -0.9828
 4884TIP3   OH236142   3.107   0.814  12.584 -0.1499  0.0139  0.7479
 4884TIP3    H136143   3.040   0.764  12.537 -0.8961 -0.5512  2.3279
 4884TIP3    H236144   3.130   0.758  12.659  1.4189  0.6110  0.7461
 4885TIP3   OH236145   6.439   2.568   1.527  0.1497  0.0530 -0.2916
 4885TIP3    H136146   6.369   2.551   1.590  1.7566 -3.0215  0.9026
 4885TIP3    H236147   6.519   2.565   1.580  1.3803  0.2320 -2.0568
 4886TIP3   OH236148   5.163   0.497  12.072 -0.1809  0.2989 -0.7269
 4886TIP3    H136149   5.078   0.483  12.114  0.5897 -0.3437  0.6679
 4886TIP3    H236150   5.170   0.592  12.062 -0.5675  0.4312  0.2049
 4887TIP3   OH236151   1.457   6.308  17.278  0.0351  0.0073  0.3819
 4887TIP3    H136152   1.467   6.362  17.356 -0.8079  1.6547 -0.5953
 4887TIP3    H236153   1.422   6.367  17.212  2.5460 -0.7804 -1.8745
 4888TIP3   OH236154   0.031   6.655  14.450 -0.2442  1.0525  0.2563
 4888TIP3    H136155  -0.048   6.692  14.410 -1.8758 -1.3588  1.0079
 4888TIP3    H236156  -0.002   6.600  14.521  1.9291 -1.6405 -0.6230
 4889TIP3   OH236157   5.630   5.517  10.668  0.3487  0.2116  0.1278
 4889TIP3    H136158   5.686   5.459  10.617  0.6026  1.2395 -0.7906
 4889TIP3    H236159   5.557   5.462  10.696  0.4792 -0.4954 -0.8865
 4890TIP3   OH236160   0.657   1.658  15.107 -0.6088  0.1244  0.0486
 4890TIP3    H136161   0.590   1.680  15.171  0.8789 -0.1241  1.7967
 4890TIP3    H236162   0.637   1.568  15.081 -1.9012  0.6239 -0.7827
 4891TIP3   OH236163   3.972   4.036   6.548  0.5662  0.2108 -0.3238
 4891TIP3    H136164   3.892   4.055   6.597 -0.0394 -2.0779 -0.3352
 4891TIP3    H236165   4.037   4.013   6.614  0.3525 -0.8005 -0.4482
 4892TIP3   OH236166   1.348   0.567  12.241  0.6336  0.0623 -0.3289
 4892TIP3    H136167   1.356   0.533  12.152 -0.5626  1.2003 -0.9218
 4892TIP3    H236168   1.371   0.660  12.233  1.0691  0.0569  0.6719
 4893TIP3   OH236169   6.680   4.023   5.707 -0.0396  0.0748  0.2431
 4893TIP3    H136170   6.622   4.063   5.772  0.2863  0.0204  0.5693
 4893TIP3    H236171   6.766   4.061   5.725  0.4779 -1.4674  1.1871
 4894TIP3   OH236172   2.720   0.977  14.881 -0.1173  0.5406  0.2993
 4894TIP3    H136173   2.688   0.891  14.853  0.1604  1.1029 -1.9272
 4894TIP3    H236174   2.641   1.023  14.912 -0.7758  0.3999 -1.0673
 4895TIP3   OH236175   2.366   6.602  12.744 -0.3326 -0.1065  0.0442
 4895TIP3    H136176   2.424   6.679  12.749 -0.9427  0.3037  1.4274
 4895TIP3    H236177   2.381   6.566  12.657 -0.1658  1.6876 -0.7161
 4896TIP3   OH236178   4.860   0.835   3.875 -0.4277 -0.1679  0.3181
 4896TIP3    H136179   4.879   0.906   3.814  0.2920 -0.7912 -0.2053
 4896TIP3    H236180   4.847   0.758   3.818  0.6254 -0.8390  0.9591
 4897TIP3   OH236181   1.886   6.124  12.547 -0.2065 -0.3906 -0.2233
 4897TIP3    H136182   1.971   6.114  12.503 -0.5670 -0.2943 -0.9580
 4897TIP3    H236183   1.864   6.216  12.536  0.6126  0.1063  1.8926
 4898TIP3   OH236184   6.565   2.890  14.968 -0.5783 -0.2967 -0.1950
 4898TIP3    H136185   6.653   2.870  14.998 -1.5578 -1.6086  2.1591
 4898TIP3    H236186   6.538   2.812  14.919 -1.0577 -0.7958  0.8066
 4899TIP3   OH236187   0.329   4.831  11.382  0.0533 -0.6134  0.0647
 4899TIP3    H136188   0.400   4.768  11.389  0.2766 -0.2652  1.3383
 4899TIP3    H236189   0.260   4.795  11.437 -0.1699 -0.2024  0.0576
 4900TIP3   OH236190   0.473   6.744   2.531  0.4369  0.3810  0.4107
 4900TIP3    H136191   0.393   6.712   2.572 -0.4293 -0.1718 -1.5895
 4900TIP3    H236192   0.540   6.733   2.598 -0.9217 -0.2966  1.7208
 4901TIP3   OH236193   2.927   0.286   3.303  0.4603 -0.1806  0.0018
 4901TIP3    H136194   2.885   0.340   3.369 -1.7667 -0.8255 -0.8055
 4901TIP3    H236195   2.980   0.347   3.252 -0.1220  0.8261  0.5707
 4902TIP3   OH236196   3.947   2.495   5.227 -0.1965 -0.8689 -0.0515
 4902TIP3    H136197   4.015   2.540   5.177 -1.6802  1.7109  0.1196
 4902TIP3    H236198   3.991   2.468   5.308  0.8053  0.0089 -0.2764
 4903TIP3   OH236199   4.707   0.776   4.602  0.0561 -0.5462 -0.0650
 4903TIP3    H136200   4.758   0.806   4.677 -1.1284  0.6769  0.2783
 4903TIP3    H236201   4.616   0.777   4.632 -0.2458 -2.5353 -0.7062
 4904TIP3   OH236202   3.236   4.376   3.770 -0.8498 -0.2283  0.0637
 4904TIP3    H136203   3.282   4.293   3.755 -1.3252 -0.0731 -2.6437
 4904TIP3    H236204   3.182   4.359   3.847  1.1047 -1.5047  1.2520
 4905TIP3   OH236205   4.600   0.547  11.590 -0.2712 -0.0053 -0.1066
 4905TIP3    H136206   4.679   0.498  11.567  1.2600  1.2381  2.1812
 4905TIP3    H236207   4.622   0.638  11.572 -0.9597  0.4232  1.1377
 4906TIP3   OH236208   5.134   4.826   0.834  0.3847  0.4093 -0.5965
 4906TIP3    H136209   5.151   4.833   0.740  0.0792 -1.5367 -0.8454
 4906TIP3    H236210   5.127   4.732   0.850 -2.7021  0.7500  0.7940
 4907TIP3   OH236211   3.305   6.650   5.643 -0.1334  0.0844 -0.0782
 4907TIP3    H136212   3.394   6.663   5.675  0.7521 -2.1025 -1.3574
 4907TIP3    H236213   3.264   6.592   5.707  0.0435 -0.4389 -0.4224
 4908TIP3   OH236214   2.292   2.720  12.095 -0.4657 -0.0178 -0.1467
 4908TIP3    H136215   2.317   2.685  12.181  0.4009 -0.0345 -0.3917
 4908TIP3    H236216   2.219   2.779  12.113 -0.7438 -0.5459  0.5104
 4909TIP3   OH236217   5.530   4.183  16.235 -0.0506  0.3772 -0.1445
 4909TIP3    H136218   5.527   4.232  16.318  1.0706 -0.1559  0.2270
 4909TIP3    H236219   5.545   4.249  16.168 -0.7180  0.7853  0.1018
 4910TIP3   OH236220   0.953   5.608   0.976  0.5011 -0.1759 -0.5764
 4910TIP3    H136221   1.020   5.545   0.949 -0.0417 -0.2884 -1.6870
 4910TIP3    H236222   0.934   5.659   0.897 -1.9348 -1.2500 -0.7591
 4911TIP3   OH236223   2.246   4.395  16.972  0.1390  0.4717  0.1859
 4911TIP3    H136224   2.292   4.468  16.930  0.9298 -0.3909 -0.4824
 4911TIP3    H236225   2.315   4.346  17.016 -0.3567  0.0005  0.4326
 4912TIP3   OH236226   6.061   5.301  16.567  0.0533 -0.5424 -0.1629
 4912TIP3    H136227   5.977   5.289  16.523  0.7796 -1.1813 -1.4363
 4912TIP3    H236228   6.115   5.349  16.505  0.5570  0.0968  0.7454
 4913TIP3   OH236229   4.331   3.824  15.339  0.0221  0.1830 -0.1646
 4913TIP3    H136230   4.293   3.813  15.426  0.2672 -1.8990 -0.2646
 4913TIP3    H236231   4.415   3.869  15.354 -0.6029  1.1597  0.4832
 4914TIP3   OH236232   4.950   1.893  14.987 -0.6758  0.0119  0.3289
 4914TIP3    H136233   5.045   1.890  14.996 -0.5743 -2.8881 -0.6889
 4914TIP3    H236234   4.919   1.930  15.070  1.2994  2.1083  0.2459
 4915TIP3   OH236235   1.286   4.399  16.004 -0.2039  0.1866 -0.3337
 4915TIP3    H136236   1.329   4.314  16.015  0.4212  0.6628  1.2256
 4915TIP3    H236237   1.348   4.462  16.039 -0.6655  1.3070 -1.4663
 4916TIP3   OH236238   6.074   5.639   5.351 -0.3203  0.3948 -0.5754
 4916TIP3    H136239   6.038   5.698   5.286 -1.3400  0.6582  0.1993
 4916TIP3    H236240   5.998   5.605   5.398  0.3329 -0.4565 -0.0855
 4917TIP3   OH236241   5.767   2.017   1.781  0.4938 -0.1466  0.6062
 4917TIP3    H136242   5.787   1.934   1.825 -0.9547 -2.1504 -2.1909
 4917TIP3    H236243   5.853   2.053   1.757  1.1888 -2.6532 -1.0654
 4918TIP3   OH236244   4.610   0.648   4.351 -0.2955 -0.0560  0.1213
 4918TIP3    H136245   4.664   0.679   4.424  0.7885 -1.6233  0.0432
 4918TIP3    H236246   4.672   0.631   4.280 -1.1115 -0.2813 -0.5553
 4919TIP3   OH236247   3.502   0.610   2.214  0.3454  0.1612  0.3608
 4919TIP3    H136248   3.477   0.597   2.123  2.8282 -0.3348 -0.3305
 4919TIP3    H236249   3.481   0.701   2.233 -0.2946  0.2359 -0.6668
 4920TIP3   OH236250   2.252   0.349  15.150 -0.6430 -0.0808 -0.3061
 4920TIP3    H136251   2.215   0.374  15.235  1.6556  0.8719  0.4759
 4920TIP3    H236252   2.287   0.431  15.115  1.6645 -1.0921 -0.4908
 4921TIP3   OH236253   2.414   4.953   5.765  0.1301 -0.3947  0.7166
 4921TIP3    H136254   2.468   4.991   5.696  2.4734 -3.4711  0.6618
 4921TIP3    H236255   2.329   4.937   5.723  0.0414  1.7573 -0.0688
 4922TIP3   OH236256   2.311   5.122  14.825  0.2594 -0.4172 -0.3389
 4922TIP3    H136257   2.334   5.207  14.863 -0.5314  0.8434 -2.5079
 4922TIP3    H236258   2.371   5.060  14.867  1.2515  1.3006  0.8953
 4923TIP3   OH236259   4.974   6.804   2.184 -0.4664 -0.3037  0.0480
 4923TIP3    H136260   5.012   6.861   2.117 -2.2495 -0.6246 -1.3167
 4923TIP3    H236261   4.974   6.857   2.264  0.7900  0.4438 -0.4265
 4924TIP3   OH236262   0.301   1.916  11.749  0.7572 -0.2791 -0.6230
 4924TIP3    H136263   0.307   1.884  11.840 -0.4289  0.9777 -0.0660
 4924TIP3    H236264   0.366   1.987  11.744  1.5455 -1.0071 -1.0893
 4925TIP3   OH236265   6.254   1.329   0.969  0.6768 -0.3790 -0.1459
 4925TIP3    H136266   6.217   1.340   1.056  1.3323  1.9689 -0.0938
 4925TIP3    H236267   6.180   1.298   0.916 -0.7480  1.6463  0.5142
 4926TIP3   OH236268   0.555   2.222  15.779 -0.5558 -0.5194 -0.1319
 4926TIP3    H136269   0.638   2.263  15.754 -0.9914 -0.4082 -1.5053
 4926TIP3    H236270   0.566   2.199  15.871  1.0755 -0.7018 -0.3355
 4927TIP3   OH236271   2.674   4.240  15.302 -0.0360  0.3635 -0.1593
 4927TIP3    H136272   2.662   4.173  15.234  1.7196  0.5435 -0.6993
 4927TIP3    H236273   2.646   4.321  15.260 -0.5060  0.2401 -0.0955
 4928TIP3   OH236274   2.222   4.614   0.451  0.3318  0.2113 -0.3737
 4928TIP3    H136275   2.163   4.574   0.386 -0.4339  1.2620 -0.3554
 4928TIP3    H236276   2.205   4.565   0.531 -0.2341  0.2442 -0.4674
 4929TIP3   OH236277   3.324   1.866   2.288  0.0642 -0.6291 -0.1428
 4929TIP3    H136278   3.336   1.847   2.382  0.0595  0.8904  0.1889
 4929TIP3    H236279   3.409   1.846   2.249  0.0644 -1.2900  0.1676
 4930TIP3   OH236280   5.328   5.203   0.485  0.2425  0.0514 -0.1845
 4930TIP3    H136281   5.391   5.267   0.518  0.4202 -0.7155  0.9984
 4930TIP3    H236282   5.326   5.134   0.551 -2.2130  0.2751  0.0770
 4931TIP3   OH236283   0.619   1.097  13.974 -0.2188  0.7478 -0.3446
 4931TIP3    H136284   0.641   1.018  13.924 -0.1368 -0.2063  1.1566
 4931TIP3    H236285   0.658   1.169  13.923 -0.1482 -0.1777 -1.6402
 4932TIP3   OH236286   3.994   0.972   5.383 -0.6081  0.4255  0.1053
 4932TIP3    H136287   4.089   0.957   5.384 -0.1879  2.7912  0.8687
 4932TIP3    H236288   3.958   0.906   5.442  0.4943 -0.8130 -0.5701
 4933TIP3   OH236289   2.588   4.894   5.978  0.1253  0.1621 -0.4908
 4933TIP3    H136290   2.521   4.872   5.913  0.0448  1.0264 -0.7255
 4933TIP3    H236291   2.647   4.819   5.978 -0.1028 -0.0309 -1.2708
 4934TIP3   OH236292   0.003   4.654  11.925 -0.3364  0.3653 -0.3566
 4934TIP3    H136293   0.085   4.634  11.970  0.3850  2.2420 -0.7169
 4934TIP3    H236294  -0.056   4.683  11.995  0.6729  2.9491 -0.4651
 4935TIP3   OH236295   3.283   5.588   5.113  0.3329 -0.2060  0.7393
 4935TIP3    H136296   3.331   5.656   5.066  2.1891 -1.3178  0.9412
 4935TIP3    H236297   3.341   5.512   5.113 -0.8648 -1.1949  2.2102
 4936TIP3   OH236298   5.740   6.407   4.170 -0.1117 -0.0565 -0.7160
 4936TIP3    H136299   5.722   6.328   4.220  1.4170  0.3908  0.6183
 4936TIP3    H236300   5.656   6.431   4.131 -0.8591 -1.6446 -0.1457
 4937TIP3   OH236301   2.328   6.114   5.338  0.1144  1.4706  0.9383
 4937TIP3    H136302   2.293   6.029   5.362 -0.3093  1.3149 -0.1808
 4937TIP3    H236303   2.292   6.174   5.403 -2.9756  1.4547 -0.5956
 4938TIP3   OH236304   6.318   1.226  16.324 -0.6883 -0.4979 -0.9934
 4938TIP3    H136305   6.246   1.164  16.332 -0.5252 -0.6081 -0.3445
 4938TIP3    H236306   6.395   1.171  16.305 -0.3549 -0.6143  0.5495
 4939TIP3   OH236307   6.454   0.358  11.453 -0.3338  0.2911  0.4286
 4939TIP3    H136308   6.450   0.268  11.483  0.7241 -0.1937 -0.7906
 4939TIP3    H236309   6.409   0.408  11.521 -4.2032 -1.5184 -0.5061
 4940TIP3   OH236310   3.404   6.258   4.952  0.1844 -0.4614  0.1482
 4940TIP3    H136311   3.383   6.278   5.043  2.1423 -1.1347  0.8198
 4940TIP3    H236312   3.353   6.179   4.933 -1.6619  0.7135  0.0097
 4941TIP3   OH236313   3.549   3.758  15.667  0.5288  0.1175 -0.4201
 4941TIP3    H136314   3.583   3.669  15.680 -0.7917 -0.2960  0.4025
 4941TIP3    H236315   3.489   3.750  15.593 -0.0098  0.1927  0.0017
 4942TIP3   OH236316   0.243   3.119   3.737  0.4544 -0.2437  0.0897
 4942TIP3    H136317   0.191   3.096   3.660  1.4466 -0.2601 -0.5952
 4942TIP3    H236318   0.179   3.152   3.800 -0.5614 -1.5551 -0.2047
 4943TIP3   OH236319   0.972   1.945  14.713 -0.6494  0.1363 -0.0268
 4943TIP3    H136320   0.880   1.966  14.724 -0.1674  1.5584  1.8177
 4943TIP3    H236321   0.977   1.850  14.726 -1.9590 -0.1467 -1.3161
 4944TIP3   OH236322   0.390   0.695  16.273  0.7863 -0.3111 -0.7696
 4944TIP3    H136323   0.466   0.733  16.317 -0.7565 -0.5011  2.2937
 4944TIP3    H236324   0.314   0.739  16.311 -0.7568 -0.1006 -3.7373
 4945TIP3   OH236325   6.595   1.657   5.296 -0.3176 -0.0706 -0.4124
 4945TIP3    H136326   6.569   1.565   5.301  0.8684 -0.4566 -0.9788
 4945TIP3    H236327   6.668   1.658   5.234 -0.5727  1.3166 -0.7147
 4946TIP3   OH236328   2.636   1.158   4.523  0.1302  0.6187 -0.1893
 4946TIP3    H136329   2.574   1.227   4.548 -0.1475 -0.1377  1.3588
 4946TIP3    H236330   2.582   1.082   4.503  0.4437  0.7595 -1.6866
 4947TIP3   OH236331   6.274   6.405   2.126  0.2223 -0.1820 -0.6272
 4947TIP3    H136332   6.207   6.467   2.098  0.1844 -0.4750 -1.1977
 4947TIP3    H236333   6.230   6.349   2.190 -0.2890 -0.8095 -1.5017
 4948TIP3   OH236334   2.497   0.859  16.070  0.4078 -0.3841 -0.2301
 4948TIP3    H136335   2.586   0.853  16.035  0.8574 -1.9237  1.0645
 4948TIP3    H236336   2.442   0.826  15.999  1.0396 -1.0434 -0.4336
 4949TIP3   OH236337   1.519   2.229  11.857  0.0278  0.2714  0.1087
 4949TIP3    H136338   1.594   2.266  11.810  0.6061 -1.8832 -0.7906
 4949TIP3    H236339   1.533   2.135  11.854 -1.3881 -0.0833  2.2463
 4950TIP3   OH236340   5.826   6.561  15.767 -0.5172 -0.2315 -0.1002
 4950TIP3    H136341   5.851   6.615  15.692  0.7356 -0.1956  0.3222
 4950TIP3    H236342   5.803   6.624  15.835 -1.8128 -0.2632 -0.4654
 4951TIP3   OH236343   0.324   1.802  10.575 -0.1128  0.2732 -0.7346
 4951TIP3    H136344   0.408   1.811  10.529 -0.3895  3.1409 -0.8502
 4951TIP3    H236345   0.347   1.805  10.668  0.1629 -2.6824 -0.5935
 4952TIP3   OH236346   6.076   0.437  14.699  0.8494  0.0681  0.3326
 4952TIP3    H136347   6.079   0.516  14.753 -0.0578 -0.1730  0.7527
 4952TIP3    H236348   6.142   0.452  14.631  0.9696  1.0139  0.6445
 4953TIP3   OH236349   1.668   1.972   3.699  0.6404 -0.1265 -0.8749
 4953TIP3    H136350   1.606   1.938   3.763  1.8649 -1.2075 -0.2017
 4953TIP3    H236351   1.619   1.975   3.617 -1.1345  1.8311  0.1706
 4954TIP3   OH236352   1.168   3.382   1.218 -0.0037  0.3583  0.1387
 4954TIP3    H136353   1.133   3.294   1.236  2.8410 -0.5942  1.7281
 4954TIP3    H236354   1.145   3.433   1.295 -1.5749  1.0654 -0.7461
 4955TIP3   OH236355   6.426   1.161   3.691 -0.0037  0.1001  0.0323
 4955TIP3    H136356   6.497   1.100   3.669 -0.5205 -0.4628 -0.0954
 4955TIP3    H236357   6.394   1.130   3.775 -0.8013 -0.3027 -0.4093
 4956TIP3   OH236358   4.400   6.585   1.696  0.1950 -0.8667 -0.5500
 4956TIP3    H136359   4.485   6.541   1.698  0.0720 -1.0714  0.9271
 4956TIP3    H236360   4.336   6.515   1.695  0.0230 -0.7228  0.1126
 4957TIP3   OH236361   1.232   4.939   2.369 -0.4345  0.2515 -0.0860
 4957TIP3    H136362   1.304   4.884   2.399  0.1357  0.1679 -1.5801
 4957TIP3    H236363   1.213   4.995   2.444  0.0194 -0.8915  0.9237
 4958TIP3   OH236364   3.419   3.457   2.822  0.0282  0.2328  0.1391
 4958TIP3    H136365   3.481   3.434   2.754 -1.2146  1.1376 -1.3610
 4958TIP3    H236366   3.450   3.541   2.856 -0.8534  1.1661 -1.2774
 4959TIP3   OH236367   2.150   3.904  13.789 -0.2887  0.1613 -0.0766
 4959TIP3    H136368   2.181   3.990  13.817 -2.5061  1.0426 -0.1851
 4959TIP3    H236369   2.201   3.842  13.842  1.7608  1.4712 -0.4186
 4960TIP3   OH236370   1.508   1.619   3.926 -0.3534 -0.7028  0.5035
 4960TIP3    H136371   1.591   1.592   3.967 -1.3655 -0.5034  2.8650
 4960TIP3    H236372   1.473   1.538   3.889  0.6136 -0.8975 -0.0327
 4961TIP3   OH236373   6.473   6.477   0.877  0.0250  0.1103 -0.1508
 4961TIP3    H136374   6.537   6.500   0.944  1.9043  2.8326 -2.6401
 4961TIP3    H236375   6.525   6.438   0.806 -1.5031 -0.3748 -1.0560
 4962TIP3   OH236376   3.911   0.790  11.793  0.0149 -0.5674 -0.0101
 4962TIP3    H136377   3.986   0.788  11.852 -0.7266  0.7864  1.0235
 4962TIP3    H236378   3.921   0.711  11.740  0.5729 -2.0174  2.1003
 4963TIP3   OH236379   1.101   5.763  12.235 -0.9171 -0.0120  0.2749
 4963TIP3    H136380   1.092   5.746  12.141 -0.5432 -0.2302  0.2783
 4963TIP3    H236381   1.094   5.858  12.242  0.5218  0.1432 -0.1479
 4964TIP3   OH236382   1.928   0.759  13.639 -0.0016 -0.0600 -0.2279
 4964TIP3    H136383   2.003   0.760  13.580  1.1045 -1.0436  1.0902
 4964TIP3    H236384   1.905   0.852  13.649  1.4493  0.3184 -0.1791
 4965TIP3   OH236385   5.466   3.370  12.864  0.5266 -0.2660  0.6297
 4965TIP3    H136386   5.553   3.392  12.831 -0.0369  1.6897  0.2981
 4965TIP3    H236387   5.448   3.283  12.829  0.5076  1.1054 -3.2596
 4966TIP3   OH236388   1.274   2.728  16.235 -0.1374 -0.1805 -0.0926
 4966TIP3    H136389   1.183   2.740  16.209 -0.5032  2.9310  2.0589
 4966TIP3    H236390   1.325   2.775  16.169 -0.2108 -0.4859 -0.3711
 4967TIP3   OH236391   0.496   3.005  16.086 -0.3941 -0.7708  0.1845
 4967TIP3    H136392   0.424   3.022  16.025 -0.5999 -0.8992  0.3875
 4967TIP3    H236393   0.490   2.911  16.104 -1.6811 -0.3909  2.0460
 4968TIP3   OH236394   2.137   3.658   6.054 -0.1027  0.1145 -0.0100
 4968TIP3    H136395   2.123   3.649   6.149 -1.5802 -0.5813 -0.2769
 4968TIP3    H236396   2.193   3.584   6.031 -1.1022 -0.6806  0.0599
 4969TIP3   OH236397   4.917   6.748  11.537 -0.5123  0.1869 -0.9808
 4969TIP3    H136398   4.977   6.677  11.559 -0.1927  0.1162 -2.0270
 4969TIP3    H236399   4.831   6.714  11.559 -0.1905  0.2494  0.4313
 4970TIP3   OH236400   3.223   0.865  12.006  0.0922 -0.7008  0.2482
 4970TIP3    H136401   3.215   0.945  11.954 -1.2312  0.3980  2.0086
 4970TIP3    H236402   3.317   0.857  12.025  0.7275 -1.5608 -2.7996
 4971TIP3   OH236403   1.810   1.279  14.488  0.1963 -0.6945  0.2389
 4971TIP3    H136404   1.825   1.241  14.401  0.4126  0.9224 -0.4527
 4971TIP3    H236405   1.873   1.351  14.494 -0.1866 -0.4418  1.5284
 4972TIP3   OH236406   4.670   0.247  13.756  0.1886 -0.2003  0.2276
 4972TIP3    H136407   4.718   0.330  13.752 -1.2432  0.7465  1.2525
 4972TIP3    H236408   4.614   0.256  13.834 -2.2740 -0.8313 -1.3596
 4973TIP3   OH236409   0.452   1.750  12.302 -0.3695  0.1460 -0.4757
 4973TIP3    H136410   0.530   1.770  12.354 -0.1987 -1.7876  0.0598
 4973TIP3    H236411   0.487   1.714  12.220 -0.6777 -1.7015  0.1764
 4974TIP3   OH236412   5.869   2.250   1.447 -0.3671  0.0730 -0.3452
 4974TIP3    H136413   5.826   2.262   1.531 -0.7081 -0.7736 -0.3884
 4974TIP3    H236414   5.804   2.277   1.383 -0.5081 -0.3090 -0.3703
 4975TIP3   OH236415   5.988   0.198  17.208  0.1538  0.5641  0.1507
 4975TIP3    H136416   6.011   0.255  17.134 -0.0203 -0.6947 -0.8969
 4975TIP3    H236417   5.893   0.202  17.212  0.0492 -0.5597 -0.7014
 4976TIP3   OH236418   2.012   4.962  15.325 -1.1772  0.1896 -0.1915
 4976TIP3    H136419   2.041   4.885  15.374  0.9409 -0.0871 -1.7688
 4976TIP3    H236420   1.951   4.927  15.260 -2.0172  0.2051  0.5691
 4977TIP3   OH236421   4.966   0.783   1.525  0.1920 -0.3742 -0.4199
 4977TIP3    H136422   4.903   0.716   1.553 -0.9357  0.4199 -0.9662
 4977TIP3    H236423   4.945   0.860   1.578  1.0774 -0.2597 -0.2192
 4978TIP3   OH236424   4.126   0.292  11.500  0.1038 -0.2633 -0.4365
 4978TIP3    H136425   4.169   0.251  11.575  0.3530 -0.8638 -0.9014
 4978TIP3    H236426   4.035   0.303  11.528  0.5451  1.0997  0.5836
 4979TIP3   OH236427   1.957   4.293  15.996  0.2476 -0.2054  0.2795
 4979TIP3    H136428   2.000   4.208  15.995 -0.1575 -0.4205  0.6467
 4979TIP3    H236429   1.940   4.310  16.089  0.5945  0.4132  0.2373
 4980TIP3   OH236430   4.489   2.623   0.230 -0.8468  0.0310 -0.9219
 4980TIP3    H136431   4.545   2.659   0.300 -1.3714 -0.0863 -0.4413
 4980TIP3    H236432   4.550   2.606   0.158 -0.0584 -1.1661 -0.0101
 4981TIP3   OH236433   6.792   3.295   2.533  0.2457 -0.0091  0.3120
 4981TIP3    H136434   6.838   3.343   2.464 -0.7448 -0.2082 -0.5086
 4981TIP3    H236435   6.699   3.313   2.517  0.0316  0.4906  2.0212
 4982TIP3   OH236436   3.677   2.189   4.630 -0.9752 -0.0346  0.8546
 4982TIP3    H136437   3.764   2.175   4.668 -0.6630 -1.2706 -0.2619
 4982TIP3    H236438   3.689   2.264   4.571 -0.7225 -0.0640  0.8656
 4983TIP3   OH236439   5.091   6.119  11.484  0.1360 -1.0197 -0.0853
 4983TIP3    H136440   5.010   6.169  11.477  1.2632  0.8474 -0.3928
 4983TIP3    H236441   5.097   6.071  11.402  0.2574  0.3121 -0.8760
 4984TIP3   OH236442   4.254   2.548  16.970  0.1865 -0.0154 -0.6045
 4984TIP3    H136443   4.271   2.460  17.003  1.7680  0.3461 -0.3846
 4984TIP3    H236444   4.290   2.607  17.037  1.5621  0.7409 -1.9352
 4985TIP3   OH236445   1.255   1.473   2.036 -0.4468 -0.0893  0.0407
 4985TIP3    H136446   1.310   1.395   2.033 -1.6478 -0.9541 -2.2039
 4985TIP3    H236447   1.287   1.528   1.964 -0.1283  1.1601  1.1005
 4986TIP3   OH236448   0.931   1.868   1.602  0.1262  0.4795  0.4346
 4986TIP3    H136449   0.893   1.886   1.517  1.0602  1.0128  0.1099
 4986TIP3    H236450   0.886   1.790   1.634 -0.3197  0.3580 -0.4887
 4987TIP3   OH236451   6.364   5.749  14.776 -0.0132 -0.2498  0.0393
 4987TIP3    H136452   6.448   5.792  14.763 -1.0792  1.5167 -1.4543
 4987TIP3    H236453   6.330   5.734  14.688 -0.9544 -1.6294  0.5953
 4988TIP3   OH236454   5.866   3.301  14.318 -0.4334  0.4548  0.1529
 4988TIP3    H136455   5.810   3.379  14.316  1.4259  2.0822  3.1038
 4988TIP3    H236456   5.947   3.329  14.276  0.1277  0.0170  0.9130
 4989TIP3   OH236457   5.236   1.210   1.463 -0.0975 -0.1910 -0.3072
 4989TIP3    H136458   5.322   1.230   1.499 -1.3212  1.7023  1.8725
 4989TIP3    H236459   5.237   1.250   1.375  0.8004  1.0627  0.2366
 4990TIP3   OH236460   0.190   3.081  15.067  0.4744 -0.0666 -0.5122
 4990TIP3    H136461   0.238   3.116  14.992  0.5556  0.6701 -0.1322
 4990TIP3    H236462   0.254   3.084  15.139 -0.1793  1.1143  0.0472
 4991TIP3   OH236463   1.636   2.235   5.163 -0.4057  0.1230  0.0484
 4991TIP3    H136464   1.727   2.205   5.173 -0.7679 -0.6735  1.1019
 4991TIP3    H236465   1.642   2.307   5.100  1.2017  1.1982  1.3293
 4992TIP3   OH236466   2.461   5.594  16.393  0.4842  0.2020  0.4022
 4992TIP3    H136467   2.473   5.519  16.451 -1.1759  0.4363  1.1240
 4992TIP3    H236468   2.503   5.568  16.311 -0.3318 -1.6781  0.5257
 4993TIP3   OH236469   5.482   3.380   2.254  0.0014  0.2918  0.2887
 4993TIP3    H136470   5.513   3.452   2.308  0.2807 -1.3879  2.5310
 4993TIP3    H236471   5.560   3.326   2.240 -0.5729 -0.5522  0.2870
 4994TIP3   OH236472   5.859   3.312  14.972  0.3051  0.0690  0.1191
 4994TIP3    H136473   5.914   3.260  15.030 -0.5908 -0.9974  0.0513
 4994TIP3    H236474   5.918   3.343  14.904  1.1974  0.6300  1.1314
 4995TIP3   OH236475   1.668   1.496  17.006 -0.5128  0.4353  0.2381
 4995TIP3    H136476   1.711   1.411  16.995 -1.5315 -0.1628  0.6623
 4995TIP3    H236477   1.672   1.536  16.919 -0.3579 -0.2210 -0.0663
 4996TIP3   OH236478   3.098   0.123  11.678  0.5001 -0.5407 -0.6275
 4996TIP3    H136479   3.037   0.188  11.712 -0.4460 -0.0414 -3.0639
 4996TIP3    H236480   3.181   0.142  11.723 -0.1276  1.3830 -0.1860
 4997TIP3   OH236481   5.223   0.525  16.788 -0.2006 -0.1128  0.0418
 4997TIP3    H136482   5.315   0.504  16.772 -0.1969 -0.6833  0.7414
 4997TIP3    H236483   5.224   0.617  16.813  0.0497  0.1660 -0.9395
 4998TIP3   OH236484   2.830   3.795  12.886 -0.3046  0.2479 -0.0044
 4998TIP3    H136485   2.871   3.755  12.808  0.1283  1.3991 -0.3910
 4998TIP3    H236486   2.780   3.724  12.925  0.5167 -0.7051 -0.6104
 4999TIP3   OH236487   0.876   6.636  12.890 -0.3644 -0.5046  0.7569
 4999TIP3    H136488   0.865   6.595  12.804  1.0652 -3.1587  1.7455
 4999TIP3    H236489   0.873   6.563  12.952 -0.2507  1.2144  2.8948
 5000TIP3   OH236490   1.931   3.120   0.279 -0.1911 -0.5649  0.3811
 5000TIP3    H136491   1.849   3.129   0.231 -0.5421  1.1618  1.2256
 5000TIP3    H236492   1.993   3.176   0.231 -0.0427 -0.3269  0.8419
 5001TIP3   OH236493   6.625   6.049  15.116 -0.5928 -0.5173 -0.2464
 5001TIP3    H136494   6.598   5.959  15.134 -2.3309 -0.0453 -0.2391
 5001TIP3    H236495   6.627   6.055  15.020 -0.5044 -0.5561 -0.2465
 5002TIP3   OH236496   4.304   2.394   2.990  0.1014 -0.0055 -0.3472
 5002TIP3    H136497   4.292   2.474   2.939  1.1965  0.3484 -0.0881
 5002TIP3    H236498   4.390   2.362   2.964 -0.0840 -0.7916 -0.0224
 5003TIP3   OH236499   6.562   0.830   2.121  0.6570 -0.0668 -0.5189
 5003TIP3    H136500   6.582   0.813   2.029 -2.4680 -2.7975 -0.8560
 5003TIP3    H236501   6.628   0.778   2.169  0.2043 -1.4645 -1.3396
 5004TIP3   OH236502   0.846   2.886   1.899  0.6104 -0.0092 -0.1341
 5004TIP3    H136503   0.793   2.883   1.820 -2.3705 -0.0334  1.6903
 5004TIP3    H236504   0.914   2.820   1.885  0.5235  0.3515 -2.8114
 5005TIP3   OH236505   4.295   6.577  11.530 -0.5928  0.2624 -0.9522
 5005TIP3    H136506   4.356   6.510  11.560  0.4134  2.0330  1.1936
 5005TIP3    H236507   4.210   6.549  11.563 -0.3845 -0.5038 -1.0424
 5006TIP3   OH236508   2.694   0.430  11.611  0.3456  0.1213 -0.3037
 5006TIP3    H136509   2.653   0.504  11.656  0.8669  1.3208 -1.6922
 5006TIP3    H236510   2.621   0.376  11.580 -0.2768  1.9720 -2.3324
 5007TIP3   OH236511   3.480   1.356  12.658  0.1349  0.8135 -0.2623
 5007TIP3    H136512   3.574   1.368  12.645 -0.1068  2.1060 -1.0043
 5007TIP3    H236513   3.442   1.370  12.572 -0.8483  1.6735  0.2891
 5008TIP3   OH236514   3.432   2.586  12.682  0.9017 -0.6951  0.2838
 5008TIP3    H136515   3.363   2.652  12.682  1.1826 -0.3979  0.6417
 5008TIP3    H236516   3.451   2.571  12.775 -0.1114 -2.2914  0.2735
 5009TIP3   OH236517   5.178   1.709  12.808 -0.4192 -0.1226 -0.1188
 5009TIP3    H136518   5.159   1.746  12.894 -3.1031 -1.3540 -0.0823
 5009TIP3    H236519   5.253   1.759  12.777  1.0695 -0.0440  3.1570
 5010TIP3   OH236520   1.711   2.853   2.623 -0.5647 -0.1349  0.2246
 5010TIP3    H136521   1.721   2.833   2.716 -1.0037 -1.3154  0.0442
 5010TIP3    H236522   1.718   2.767   2.580  1.5264  0.5684 -1.0203
 5011TIP3   OH236523   1.155   5.731   1.432  0.3901 -0.1931 -1.3965
 5011TIP3    H136524   1.119   5.643   1.416  1.5131 -0.7038 -1.2216
 5011TIP3    H236525   1.101   5.789   1.380 -2.3204 -0.5758  0.7635
 5012TIP3   OH236526   1.867   4.130   2.180  0.1368 -0.4098  0.0540
 5012TIP3    H136527   1.892   4.048   2.223  0.2481  1.1484  3.2517
 5012TIP3    H236528   1.950   4.174   2.163  0.0018  0.5452  1.6912
 5013TIP3   OH236529   6.317   6.159   6.598  0.3185 -0.3571  0.5303
 5013TIP3    H136530   6.237   6.159   6.546  0.1453 -1.2426  0.7644
 5013TIP3    H236531   6.386   6.134   6.537  0.7914  2.3716 -0.1433
 5014TIP3   OH236532   6.518   5.121  11.446  0.5464 -0.2554 -0.4252
 5014TIP3    H136533   6.424   5.113  11.464  0.8154 -2.5346  0.2470
 5014TIP3    H236534   6.522   5.156  11.357 -0.8595  3.4279  0.7655
 5015TIP3   OH236535   0.707   3.591   5.658 -0.0813  0.7136  0.1318
 5015TIP3    H136536   0.633   3.620   5.605 -1.5573 -0.0375  1.7295
 5015TIP3    H236537   0.767   3.552   5.594 -1.6559  0.1180 -1.0523
 5016TIP3   OH236538   2.829   3.304  11.915 -0.3077  0.0758 -0.1107
 5016TIP3    H136539   2.858   3.339  12.000  1.6548 -2.2529  0.2893
 5016TIP3    H236540   2.735   3.325  11.912 -0.0386  1.9702  1.6956
 5017TIP3   OH236541   5.125   0.777   3.360  0.0097  0.6770 -0.0511
 5017TIP3    H136542   5.170   0.753   3.280  0.2377  3.3138 -0.8069
 5017TIP3    H236543   5.064   0.705   3.376  0.2491 -0.1096 -2.3412
 5018TIP3   OH236544   6.095   6.243   2.670 -0.3612  0.1670  0.0603
 5018TIP3    H136545   6.059   6.229   2.758 -0.2634  0.2676  0.1163
 5018TIP3    H236546   6.084   6.336   2.654 -0.3668  0.1505 -0.0290
 5019TIP3   OH236547   6.516   1.067   1.263 -0.1053 -0.3951 -0.2361
 5019TIP3    H136548   6.557   1.067   1.177 -2.0245  0.9263 -1.2033
 5019TIP3    H236549   6.505   1.160   1.285  0.1420 -0.7056  1.3547
 5020TIP3   OH236550   6.231   4.586   4.552  0.4211  0.0456  0.3462
 5020TIP3    H136551   6.207   4.678   4.542  0.6581 -0.1068 -2.8725
 5020TIP3    H236552   6.314   4.578   4.503 -0.2575 -2.0695 -0.5789
 5021TIP3   OH236553   1.315   3.189  17.020 -0.2588 -0.5184  0.5027
 5021TIP3    H136554   1.351   3.113  17.064  0.8893 -0.5098 -0.3621
 5021TIP3    H236555   1.342   3.264  17.073 -1.0489 -0.6746  1.1376
 5022TIP3   OH236556   1.228   3.649  10.897 -0.4490 -0.1068  0.4779
 5022TIP3    H136557   1.143   3.633  10.858  0.2538 -2.5653 -0.2227
 5022TIP3    H236558   1.274   3.705  10.835 -1.2795  0.6661  0.5399
 5023TIP3   OH236559   5.023   3.764  14.730  0.5079  0.1768  0.0058
 5023TIP3    H136560   4.950   3.781  14.670  1.5690  2.0533 -0.8575
 5023TIP3    H236561   5.004   3.819  14.806  1.1936  1.0407 -0.4190
 5024TIP3   OH236562   6.206   5.828   4.547 -0.3900  0.3417  0.1907
 5024TIP3    H136563   6.245   5.893   4.489  1.5596 -1.4794 -0.7023
 5024TIP3    H236564   6.176   5.759   4.489 -0.1918 -0.6371  1.2139
 5025TIP3   OH236565   1.952   5.321  16.090 -0.2551 -0.8069 -0.3138
 5025TIP3    H136566   1.882   5.256  16.095 -0.4524 -0.6739 -1.1090
 5025TIP3    H236567   1.910   5.403  16.115  0.8734 -1.4761  4.7066
 5026TIP3   OH236568   0.141   1.342  10.419 -0.4005 -0.4243 -0.8486
 5026TIP3    H136569   0.147   1.415  10.482  1.8325 -0.6531 -0.7071
 5026TIP3    H236570   0.072   1.286  10.454 -1.8000  1.3167 -0.6629
 5027TIP3   OH236571   2.073   1.608   0.066 -0.0387 -0.3885 -0.2816
 5027TIP3    H136572   2.114   1.535   0.112 -0.4265 -0.8055 -0.5893
 5027TIP3    H236573   1.984   1.578   0.047 -0.1610  0.1135 -0.5213
 5028TIP3   OH236574   5.362   4.565   0.134  0.1310 -0.4136 -0.1677
 5028TIP3    H136575   5.339   4.504   0.064 -0.6462 -1.1560  0.7177
 5028TIP3    H236576   5.331   4.650   0.104 -0.0416 -0.6963 -0.7953
 5029TIP3   OH236577   0.609   5.490   4.523  0.1943  0.2924 -0.0158
 5029TIP3    H136578   0.567   5.406   4.537  0.7481  0.0184  0.0101
 5029TIP3    H236579   0.623   5.494   4.428  0.4290  0.2341  0.0175
 5030TIP3   OH236580   3.007   2.804   4.583 -0.7403  0.0612  0.7305
 5030TIP3    H136581   2.970   2.892   4.580 -0.1493  0.2943 -0.2996
 5030TIP3    H236582   3.092   2.812   4.540 -0.2515 -0.8199  1.4880
 5031TIP3   OH236583   3.404   0.995  14.122  0.2023 -0.1049  0.0391
 5031TIP3    H136584   3.416   1.072  14.066  0.9409 -0.6938 -0.6339
 5031TIP3    H236585   3.370   0.927  14.063 -0.9631 -0.1537  0.7385
 5032TIP3   OH236586   0.667   1.962   2.554  0.1627 -0.7399  0.2625
 5032TIP3    H136587   0.720   1.963   2.475  1.9225  0.5940  1.3825
 5032TIP3    H236588   0.723   1.926   2.622 -0.3383  0.6035  1.4654
 5033TIP3   OH236589   2.335   4.073  13.566 -0.1163 -0.8297 -0.0862
 5033TIP3    H136590   2.394   4.036  13.501  1.4891 -0.6241  1.1917
 5033TIP3    H236591   2.260   4.014  13.567 -0.5251 -0.4806 -2.5408
 5034TIP3   OH236592   0.862   2.398   5.873  0.6066 -0.2211 -0.8948
 5034TIP3    H136593   0.864   2.326   5.936 -1.1569 -0.4591 -1.0550
 5034TIP3    H236594   0.833   2.357   5.791 -2.6942  0.9353 -0.4576
 5035TIP3   OH236595   5.920   6.170   2.898  0.3028  0.1490  1.0248
 5035TIP3    H136596   5.928   6.096   2.958  0.6004 -1.3020 -0.7326
 5035TIP3    H236597   5.837   6.154   2.852  0.8935  0.3182 -0.1234
 5036TIP3   OH236598   6.176   4.583  16.832  0.1267  0.1198 -0.0914
 5036TIP3    H136599   6.245   4.556  16.894 -1.0575 -2.0143  0.3827
 5036TIP3    H236600   6.173   4.513  16.767 -2.0880 -0.2534  0.3354
 5037TIP3   OH236601   5.559   0.367  11.546  0.3761 -0.1095 -0.1961
 5037TIP3    H136602   5.574   0.288  11.599 -0.9788 -0.7014 -0.6625
 5037TIP3    H236603   5.600   0.437  11.596 -1.1298 -0.5840  1.8421
 5038TIP3   OH236604   6.579   2.543   4.230  0.0788 -0.4908  0.4727
 5038TIP3    H136605   6.575   2.499   4.316  0.0389 -0.6551  0.3869
 5038TIP3    H236606   6.523   2.489   4.174  0.6422 -0.7601  0.1687
 5039TIP3   OH236607   1.910   3.448   3.531 -0.3437  0.7594 -0.3551
 5039TIP3    H136608   1.859   3.522   3.497  0.4068  0.6376 -1.8179
 5039TIP3    H236609   1.998   3.483   3.542 -0.1778  0.3097 -0.2295
 5040TIP3   OH236610   0.424   3.333  12.224  0.4147  0.3246  0.0068
 5040TIP3    H136611   0.411   3.292  12.309  3.6137  0.2198  0.5693
 5040TIP3    H236612   0.404   3.426  12.239  0.1604  0.1694  0.6398
 5041TIP3   OH236613   1.365   2.407  11.510  0.6242 -0.3006  0.5223
 5041TIP3    H136614   1.303   2.346  11.552  0.4301 -0.8523 -0.5309
 5041TIP3    H236615   1.412   2.447  11.583  0.3609 -1.3046  1.2672
 5042TIP3   OH236616   2.346   1.870  10.809 -0.0091  0.0049 -0.3632
 5042TIP3    H136617   2.426   1.912  10.777  1.1215 -2.2733 -0.7127
 5042TIP3    H236618   2.356   1.778  10.786 -0.8299 -1.1479  3.2265
 5043TIP3   OH236619   4.100   5.452  13.974 -0.6483  0.2836 -0.6549
 5043TIP3    H136620   4.050   5.403  14.039 -0.7299  0.1984 -0.7800
 5043TIP3    H236621   4.156   5.510  14.025 -0.8088  0.3137 -0.5124
 5044TIP3   OH236622   5.564   4.143  13.999 -0.4834  0.1460  0.3037
 5044TIP3    H136623   5.537   4.080  13.933  0.7467 -1.2584  1.0671
 5044TIP3    H236624   5.657   4.159  13.980 -0.2978  0.2506  1.2471
 5045TIP3   OH236625   3.574   6.630  15.656  0.0742  0.3749 -0.4052
 5045TIP3    H136626   3.601   6.721  15.658 -2.3046  1.1527  0.0944
 5045TIP3    H236627   3.545   6.611  15.745  0.0223 -0.6815 -0.6313
 5046TIP3   OH236628   1.463   2.958   2.562 -0.5188 -0.4629 -0.1783
 5046TIP3    H136629   1.445   2.933   2.471  0.4735 -0.5234 -0.3751
 5046TIP3    H236630   1.547   2.917   2.581 -0.3359  0.2189  0.5039
 5047TIP3   OH236631   1.077   4.159   2.396  0.4664  0.3441 -0.0018
 5047TIP3    H136632   1.153   4.103   2.406  1.0080  1.0147 -0.2723
 5047TIP3    H236633   1.108   4.246   2.420 -0.6451  0.3696  1.4789
 5048TIP3   OH236634   6.080   3.837   5.009  0.0211  0.0021 -0.1238
 5048TIP3    H136635   6.051   3.900   4.944  0.6190  1.0000  0.5507
 5048TIP3    H236636   6.154   3.879   5.052 -0.2020 -0.7392  1.0353
 5049TIP3   OH236637   0.804   6.342   5.289  0.1775  0.7772  0.4338
 5049TIP3    H136638   0.887   6.297   5.306 -0.7983 -1.7170 -0.7944
 5049TIP3    H236639   0.748   6.274   5.251 -0.9990  3.3734 -2.9464
 5050TIP3   OH236640   4.881   4.329   4.400 -0.7887  0.2144  0.0890
 5050TIP3    H136641   4.907   4.413   4.362  0.2209 -0.1302 -0.0066
 5050TIP3    H236642   4.790   4.342   4.427 -1.3293  0.6721 -1.8472
 5051TIP3   OH236643   3.121   1.826  14.906 -0.1789 -0.0093 -0.1721
 5051TIP3    H136644   3.110   1.820  15.001  1.5527 -0.0197  0.0627
 5051TIP3    H236645   3.063   1.758  14.872  1.2614 -1.9878  1.0828
 5052TIP3   OH236646   1.990   1.372   1.270  0.5114 -0.0618  0.1413
 5052TIP3    H136647   2.026   1.284   1.261  0.7994  0.0990 -0.3101
 5052TIP3    H236648   1.998   1.392   1.363  0.5124 -0.4832  0.2318
 5053TIP3   OH236649   2.252   0.026  16.627  0.2029  0.4678  0.1130
 5053TIP3    H136650   2.292   0.063  16.705  0.7579  0.7761 -0.3124
 5053TIP3    H236651   2.320   0.031  16.560  0.4366 -1.6461  0.1189
 5054TIP3   OH236652   6.307   3.076   0.952  0.2733  0.2755 -0.3783
 5054TIP3    H136653   6.340   3.165   0.969 -1.0061  0.0999  4.0836
 5054TIP3    H236654   6.385   3.020   0.955  0.7284  0.8999 -0.3110
 5055TIP3   OH236655   2.231   5.388  12.657 -1.1198  0.1406 -0.3322
 5055TIP3    H136656   2.276   5.340  12.588 -2.6405 -0.7383 -0.7494
 5055TIP3    H236657   2.231   5.329  12.732 -1.3094  0.2614 -0.2354
 5056TIP3   OH236658   2.342   6.044   3.185 -0.3093  0.4806  0.5448
 5056TIP3    H136659   2.393   6.018   3.108 -1.2487  1.0811 -0.3030
 5056TIP3    H236660   2.405   6.089   3.242  1.4124 -3.4150  2.0853
 5057TIP3   OH236661   5.941   3.401   3.273  0.0906  0.3924  0.1924
 5057TIP3    H136662   5.923   3.311   3.301  1.1903  0.2035  0.3468
 5057TIP3    H236663   6.029   3.419   3.306 -0.9590  2.3534  2.2145
 5058TIP3   OH236664   2.825   6.747   3.007 -0.5167  0.2213 -0.4654
 5058TIP3    H136665   2.736   6.715   3.024 -0.1703 -0.1709  0.6646
 5058TIP3    H236666   2.813   6.839   2.982 -1.2167  0.2409 -0.0762
 5059TIP3   OH236667   1.239   1.601   0.873 -0.1328 -0.2954 -0.0407
 5059TIP3    H136668   1.278   1.571   0.954  1.7841  1.1995 -0.3442
 5059TIP3    H236669   1.156   1.554   0.867  0.7455 -2.1669  1.5986
 5060TIP3   OH236670   4.264   2.488   3.361  0.2329 -0.4931  0.2884
 5060TIP3    H136671   4.282   2.537   3.441  0.5394  0.0512 -0.1121
 5060TIP3    H236672   4.333   2.422   3.358  0.1902 -0.5504  0.4930
 5061TIP3   OH236673   3.763   1.222   4.108 -0.0466  0.0226 -0.8513
 5061TIP3    H136674   3.684   1.168   4.110 -0.6928  0.9406 -0.2387
 5061TIP3    H236675   3.804   1.202   4.024 -0.6702 -0.8489 -0.9585
 5062TIP3   OH236676   3.743   3.915   1.459 -0.0277  0.0910 -0.1543
 5062TIP3    H136677   3.794   3.980   1.411 -0.3762 -0.7896 -1.7677
 5062TIP3    H236678   3.675   3.888   1.398 -0.8202 -0.6839  1.0330
 5063TIP3   OH236679   2.233   2.643  11.153 -0.0577 -0.5109  0.1546
 5063TIP3    H136680   2.197   2.567  11.107 -1.1034  0.0905 -0.0694
 5063TIP3    H236681   2.236   2.712  11.087 -0.1128 -0.0725  0.6004
 5064TIP3   OH236682   1.299   6.446   1.726 -0.8921 -0.5307  0.1540
 5064TIP3    H136683   1.294   6.460   1.631 -1.4790  0.7922  0.3587
 5064TIP3    H236684   1.386   6.409   1.740 -0.9139 -1.0301 -0.9268
 5065TIP3   OH236685   2.195   2.566   5.777 -0.0375  0.2184  0.3088
 5065TIP3    H136686   2.208   2.587   5.685  0.8449  1.5531  0.7050
 5065TIP3    H236687   2.198   2.650   5.822  4.0290 -0.6028  2.0361
 5066TIP3   OH236688   6.777   3.691   5.465  0.2050 -0.0614  0.0873
 5066TIP3    H136689   6.720   3.636   5.410 -0.6379  0.5985  0.2903
 5066TIP3    H236690   6.722   3.717   5.539  0.6200  0.9747  0.0463
 5067TIP3   OH236691   1.267   2.696  17.118  0.3852  0.1224 -0.3685
 5067TIP3    H136692   1.228   2.693  17.205 -1.1635  0.1507 -1.0194
 5067TIP3    H236693   1.347   2.644  17.125  1.5258  1.9928  1.6295
 5068TIP3   OH236694   4.323   2.925   3.363  0.1506  0.7104  0.3027
 5068TIP3    H136695   4.284   2.893   3.282  0.4355  2.3635 -0.5351
 5068TIP3    H236696   4.417   2.927   3.345  0.0844  2.9739 -0.1104
 5069TIP3   OH236697   3.504   5.725  13.332  0.0380  0.8839  0.4824
 5069TIP3    H136698   3.483   5.816  13.353 -0.7226  0.6189  0.9150
 5069TIP3    H236699   3.514   5.682  13.417 -0.0289  0.4717  0.2889
 5070TIP3   OH236700   2.080   5.111  15.938  0.8160 -0.1736 -0.4855
 5070TIP3    H136701   2.053   5.165  15.863  0.2452  0.0273 -0.1406
 5070TIP3    H236702   2.045   5.157  16.014 -0.5825 -1.5619 -0.2520
 5071TIP3   OH236703   0.275   4.181   5.283 -0.0468 -0.2516 -0.5915
 5071TIP3    H136704   0.204   4.160   5.344 -0.2379  0.4424 -0.5680
 5071TIP3    H236705   0.243   4.256   5.233  1.4231  1.3905  0.7991
 5072TIP3   OH236706   5.859   5.818  13.240  0.2983  0.2545 -0.3843
 5072TIP3    H136707   5.847   5.810  13.146 -1.9678 -0.7209 -0.0676
 5072TIP3    H236708   5.908   5.739  13.265 -0.3304 -0.2115 -0.5877
 5073TIP3   OH236709   5.392   2.166   3.207  0.0347  0.2203  0.3845
 5073TIP3    H136710   5.405   2.260   3.215 -0.8266  0.3713  0.1669
 5073TIP3    H236711   5.352   2.140   3.290 -0.3446  0.1653  0.1854
 5074TIP3   OH236712   2.323   2.869   5.188  0.0684  0.4097 -0.2405
 5074TIP3    H136713   2.410   2.845   5.157  0.7970 -0.1553  2.0728
 5074TIP3    H236714   2.335   2.891   5.280 -1.8378  2.7391 -0.4348
 5075TIP3   OH236715   6.471   3.684  14.740 -0.8720  0.1039 -0.3519
 5075TIP3    H136716   6.513   3.607  14.701 -1.3340  0.1374 -0.9193
 5075TIP3    H236717   6.544   3.745  14.755 -0.5263 -0.3731 -0.0531
 5076TIP3   OH236718   2.014   5.066   1.426 -0.1612 -0.2275  0.0783
 5076TIP3    H136719   2.077   5.073   1.497  0.7571  1.7635 -0.8383
 5076TIP3    H236720   1.945   5.129   1.449 -0.4472 -0.4199 -0.2368
 5077TIP3   OH236721   1.872   6.314  12.149 -0.1869 -0.3007 -0.6531
 5077TIP3    H136722   1.936   6.251  12.115  1.4391  0.2330  1.2438
 5077TIP3    H236723   1.809   6.261  12.197  1.0792 -0.5650  0.7957
 5078TIP3   OH236724   2.761   4.683  13.177  0.5043 -0.5454 -0.3523
 5078TIP3    H136725   2.681   4.730  13.151  1.1537  1.3756  0.9112
 5078TIP3    H236726   2.732   4.594  13.193 -1.5905  0.2951  0.9056
 5079TIP3   OH236727   1.708   3.687   2.112  0.2646 -0.3100 -0.6469
 5079TIP3    H136728   1.687   3.726   2.196 -0.3916  0.0457 -0.9686
 5079TIP3    H236729   1.746   3.602   2.134 -2.7152 -1.6127 -0.0090
 5080TIP3   OH236730   4.877   0.072  13.650 -0.5060  0.6938 -0.1376
 5080TIP3    H136731   4.874   0.115  13.564 -0.6236  1.4233  0.2278
 5080TIP3    H236732   4.806   0.113  13.700 -1.4884 -0.8336 -0.1936
 5081TIP3   OH236733   5.734   3.228   2.246 -0.3265 -0.0478 -0.5521
 5081TIP3    H136734   5.808   3.194   2.296  0.4278 -0.4417 -1.8964
 5081TIP3    H236735   5.684   3.150   2.221 -1.8017  0.2647  1.1648
 5082TIP3   OH236736   3.180   5.810  17.167  0.4402  0.4227 -0.6802
 5082TIP3    H136737   3.206   5.753  17.095  2.1773 -2.0837  1.7047
 5082TIP3    H236738   3.085   5.800  17.173  0.5302 -1.0102 -1.3108
 5083TIP3   OH236739   1.779   3.362   4.088  0.2361 -0.6590 -0.0306
 5083TIP3    H136740   1.761   3.358   3.994  1.8633  0.7235 -0.4432
 5083TIP3    H236741   1.759   3.274   4.119 -1.8930 -0.7095 -1.3425
 5084TIP3   OH236742   1.904   4.943   1.800 -0.0893  0.2091  0.3521
 5084TIP3    H136743   1.944   4.951   1.886 -0.7791 -0.4659  0.7407
 5084TIP3    H236744   1.965   4.988   1.741 -0.7713  2.8632  1.5213
 5085TIP3   OH236745   3.755   3.812  11.916 -0.2229  0.2354  0.4031
 5085TIP3    H136746   3.812   3.851  11.983 -2.1272 -0.5033  2.5861
 5085TIP3    H236747   3.686   3.876  11.903 -0.9239 -0.4568  0.6346
 5086TIP3   OH236748   4.195   6.596   2.287  0.2169  0.0172 -0.5702
 5086TIP3    H136749   4.146   6.546   2.351 -0.5620 -0.3830 -1.4622
 5086TIP3    H236750   4.205   6.537   2.212  0.5225  0.7058 -1.0848
 5087TIP3   OH236751   1.182   2.663  12.797 -0.3681 -0.4236  0.2192
 5087TIP3    H136752   1.239   2.668  12.873 -1.7597  2.0215  1.2052
 5087TIP3    H236753   1.096   2.642  12.833 -0.9315  0.1920 -0.7257
 5088TIP3   OH236754   4.474   4.806  13.964 -0.1769 -0.3438 -0.2575
 5088TIP3    H136755   4.494   4.845  14.049  1.5326 -1.9726  0.1473
 5088TIP3    H236756   4.502   4.872  13.901 -1.5886  0.9461  0.3831
 5089TIP3   OH236757   1.682   3.124  13.745  0.0461  0.1020  0.1016
 5089TIP3    H136758   1.751   3.159  13.688 -0.9541  1.3789 -0.3890
 5089TIP3    H236759   1.644   3.052  13.695  1.2891 -0.9101  0.5660
 5090TIP3   OH236760   5.014   0.126   6.067 -0.2635 -0.3443 -0.5023
 5090TIP3    H136761   5.054   0.108   5.982 -0.6611  0.7102 -0.9335
 5090TIP3    H236762   5.083   0.110   6.130  0.5641  0.4987 -1.1574
 5091TIP3   OH236763   6.329   4.204  11.979 -0.0618 -0.1617  0.1835
 5091TIP3    H136764   6.241   4.191  11.945  0.2337  1.0880 -1.1529
 5091TIP3    H236765   6.372   4.260  11.915  1.9656 -1.3324  0.4219
 5092TIP3   OH236766   4.813   4.048   5.526 -0.1547 -0.4489  0.0865
 5092TIP3    H136767   4.788   4.044   5.619  0.6673 -1.8282  0.2912
 5092TIP3    H236768   4.902   4.084   5.527  0.3769 -1.6965 -0.0139
 5093TIP3   OH236769   1.424   1.024  15.870 -0.5789 -0.1306  0.0439
 5093TIP3    H136770   1.395   1.073  15.947  1.5535  0.3428  0.6284
 5093TIP3    H236771   1.500   1.072  15.838  0.8055 -2.2969 -0.1414
 5094TIP3   OH236772   2.557   3.616  13.952  0.3487  0.2469  0.8532
 5094TIP3    H136773   2.483   3.587  14.006 -0.0748  0.5602  0.4507
 5094TIP3    H236774   2.590   3.694  13.997  0.7756 -0.1928  1.3196
 5095TIP3   OH236775   2.588   3.643  15.224 -0.0811  0.2857  0.2656
 5095TIP3    H136776   2.664   3.635  15.166  1.0946  2.0821  1.4467
 5095TIP3    H236777   2.516   3.664  15.166  0.2859 -1.4364 -0.8890
 5096TIP3   OH236778   5.575   4.965  12.753 -0.8232  0.7778 -0.3988
 5096TIP3    H136779   5.539   4.913  12.681 -2.3986  3.3265 -1.6293
 5096TIP3    H236780   5.602   5.047  12.712 -0.4906  1.8065  1.7262
 5097TIP3   OH236781   1.173   0.267   2.824  0.0730 -0.4500  0.1924
 5097TIP3    H136782   1.202   0.358   2.828 -0.8975 -0.1263  0.0235
 5097TIP3    H236783   1.250   0.219   2.795  0.4276  0.3980 -0.2928
 5098TIP3   OH236784   2.401   2.617  12.837 -0.1857 -0.2475 -0.3683
 5098TIP3    H136785   2.418   2.647  12.926  1.1218 -1.7441 -0.0683
 5098TIP3    H236786   2.307   2.595  12.837  0.0827 -1.5823  1.0959
 5099TIP3   OH236787   4.317   5.719   3.422 -0.1618  0.1175  0.4954
 5099TIP3    H136788   4.313   5.782   3.494  0.7274  0.3455  0.3525
 5099TIP3    H236789   4.344   5.770   3.346  0.8450 -0.4765  0.4363
 5100TIP3   OH236790   3.548   2.900   2.406  0.2649  0.4130 -0.0321
 5100TIP3    H136791   3.525   2.893   2.313 -0.3832  1.6126  0.0213
 5100TIP3    H236792   3.464   2.914   2.451  0.4267 -1.3184  0.8881
 5101TIP3   OH236793   1.352   6.569  14.400 -0.1501  0.0016  0.2300
 5101TIP3    H136794   1.293   6.496  14.380 -0.3755  0.1297  0.4253
 5101TIP3    H236795   1.295   6.635  14.440  0.1753  0.0190  0.6688
 5102TIP3   OH236796   3.465   5.637   4.839 -0.2186 -0.1132 -0.4857
 5102TIP3    H136797   3.505   5.568   4.892 -1.2042  0.0970  0.5790
 5102TIP3    H236798   3.484   5.718   4.887 -1.6223  0.0172 -0.1102
 5103TIP3   OH236799   6.044   2.683   1.388 -0.5813  0.1282  0.1907
 5103TIP3    H136800   5.991   2.664   1.465 -1.0425 -0.6929 -0.3101
 5103TIP3    H236801   6.079   2.598   1.362  0.7126  0.6074  0.3039
 5104TIP3   OH236802   1.199   5.684  16.590  0.5847 -0.6324  0.3575
 5104TIP3    H136803   1.144   5.730  16.527 -0.3493 -2.1237  0.0388
 5104TIP3    H236804   1.281   5.735  16.592 -0.9825  2.0898  1.4126
 5105TIP3   OH236805   6.643   0.678  13.801 -0.6776  0.2984 -0.0244
 5105TIP3    H136806   6.642   0.760  13.850 -0.4735  0.0560  0.3860
 5105TIP3    H236807   6.690   0.616  13.857  0.4692  0.2879 -0.9466
 5106TIP3   OH236808   5.498   4.290   0.753 -0.3094 -0.2688  0.2669
 5106TIP3    H136809   5.581   4.325   0.721 -0.7967  0.4001 -0.2891
 5106TIP3    H236810   5.452   4.367   0.787 -0.6611 -0.6557  0.6798
 5107TIP3   OH236811   2.099   1.766  14.356  0.2974  0.6962  0.2384
 5107TIP3    H136812   2.066   1.807  14.436  0.6484  0.1443  0.6702
 5107TIP3    H236813   2.085   1.832  14.288 -1.1040  0.7271  0.5208
 5108TIP3   OH236814   1.097   2.118  12.847  0.0199 -0.1368 -0.0325
 5108TIP3    H136815   1.089   2.169  12.767 -0.0390 -0.6602 -0.3632
 5108TIP3    H236816   1.182   2.077  12.841  0.4161  0.5559  0.6166
 5109TIP3   OH236817   3.216   4.570   0.954  0.0767 -0.3066  0.0691
 5109TIP3    H136818   3.176   4.546   0.871  0.0133 -0.3069  0.1000
 5109TIP3    H236819   3.215   4.666   0.955 -0.5689 -0.3118  0.3837
 5110TIP3   OH236820   5.971   2.726   4.335  0.0310 -0.1777  0.1955
 5110TIP3    H136821   6.061   2.694   4.346 -0.0543 -0.1615  0.9708
 5110TIP3    H236822   5.982   2.808   4.286  0.2941 -1.0265 -1.2208
 5111TIP3   OH236823   6.380   1.071   0.403  0.1009 -0.0358 -0.0845
 5111TIP3    H136824   6.394   0.983   0.369 -1.2393 -0.3953  0.2440
 5111TIP3    H236825   6.403   1.065   0.496  0.5205  0.1081 -0.1744
 5112TIP3   OH236826   1.106   4.832   2.746  0.3347  0.0917  0.0358
 5112TIP3    H136827   1.135   4.773   2.677  3.0972  2.5358 -1.0823
 5112TIP3    H236828   1.071   4.908   2.700  0.3765  0.9408  1.3475
 5113TIP3   OH236829   0.902   0.142  13.776 -0.6424 -0.9241  0.1277
 5113TIP3    H136830   0.869   0.056  13.748 -1.1297 -0.3993 -0.9543
 5113TIP3    H236831   0.938   0.181  13.697  1.4287 -0.9245  1.0092
 5114TIP3   OH236832   3.916   6.180   3.635 -0.1407  0.4106 -0.0758
 5114TIP3    H136833   3.852   6.150   3.699 -0.7293  1.3887 -0.1850
 5114TIP3    H236834   3.991   6.209   3.687  0.3692 -1.0272  0.0373
 5115TIP3   OH236835   2.195   0.177   1.200  0.2506 -0.6255 -0.0453
 5115TIP3    H136836   2.278   0.199   1.243  1.3713  0.6908 -2.6312
 5115TIP3    H236837   2.220   0.112   1.133 -0.8979 -0.6429 -0.4717
 5116TIP3   OH236838   6.267   3.449   1.818  0.3007  0.0926  0.7108
 5116TIP3    H136839   6.332   3.401   1.869  0.4012 -0.2242  0.2893
 5116TIP3    H236840   6.242   3.523   1.874  1.4396  0.5454  0.6443
 5117TIP3   OH236841   6.650   3.308  10.602 -0.3284  0.2172 -0.2798
 5117TIP3    H136842   6.720   3.319  10.538 -0.7342  0.2275 -0.7245
 5117TIP3    H236843   6.685   3.348  10.682  0.7572 -1.1085 -0.0649
 5118TIP3   OH236844   2.242   4.630   2.292 -0.3564  0.0971  0.4347
 5118TIP3    H136845   2.311   4.568   2.318  0.2155  0.3321 -0.4792
 5118TIP3    H236846   2.268   4.713   2.332 -1.6269 -0.4144  2.4697
 5119TIP3   OH236847   0.542   4.622  15.769  0.4140 -0.1760  0.5677
 5119TIP3    H136848   0.577   4.688  15.829  3.0645  0.2685 -1.2845
 5119TIP3    H236849   0.593   4.634  15.688 -0.9698 -2.6542 -0.7832
 5120TIP3   OH236850   4.398   0.963   1.448 -0.3567 -0.4587  0.2400
 5120TIP3    H136851   4.388   0.883   1.396 -1.9640 -0.0581 -0.1062
 5120TIP3    H236852   4.318   1.013   1.431 -0.3742  0.2422  2.1378
 5121TIP3   OH236853   5.044   3.842   0.704  1.1557  0.0428 -0.3731
 5121TIP3    H136854   5.042   3.849   0.800  1.4448 -2.2635 -0.1276
 5121TIP3    H236855   4.953   3.830   0.679  0.9877  1.4344 -0.5013
 5122TIP3   OH236856   0.729   0.215   3.706 -0.2110 -0.7322  0.1788
 5122TIP3    H136857   0.656   0.245   3.651  1.1783 -1.1967 -2.0548
 5122TIP3    H236858   0.784   0.292   3.717  1.5839 -1.4579 -2.6469
 5123TIP3   OH236859   4.997   3.068   4.022 -0.0673 -0.3384 -0.7058
 5123TIP3    H136860   5.045   2.992   3.989  0.6030  0.2021 -0.9829
 5123TIP3    H236861   4.953   3.104   3.945 -0.7940 -0.7225 -0.4871
 5124TIP3   OH236862   3.355   1.547   2.237 -0.2586  0.1533  0.4596
 5124TIP3    H136863   3.438   1.520   2.197 -0.1705  1.0352  0.0122
 5124TIP3    H236864   3.381   1.608   2.306 -0.6018  2.9144 -1.6747
 5125TIP3   OH236865   3.165   6.812  15.567 -0.4749 -0.4054 -0.2689
 5125TIP3    H136866   3.083   6.862  15.571 -1.7900 -2.3476 -1.4295
 5125TIP3    H236867   3.180   6.784  15.657 -0.5801  0.6760  0.1103
 5126TIP3   OH236868   5.182   6.524   0.917 -0.0897 -0.7628  0.4890
 5126TIP3    H136869   5.203   6.513   0.825 -0.0920  0.4864  0.3253
 5126TIP3    H236870   5.125   6.449   0.937  1.2983 -2.0207 -0.0404
 5127TIP3   OH236871   1.717   5.835   4.772  0.4640  0.2773  0.2407
 5127TIP3    H136872   1.808   5.861   4.758  0.3654  0.4951 -0.0119
 5127TIP3    H236873   1.666   5.912   4.747  0.2283  0.2981  0.7704
 5128TIP3   OH236874   0.407   2.059  11.078 -0.4335  0.0354 -0.1208
 5128TIP3    H136875   0.456   2.106  11.011 -2.0498  0.0008 -1.4100
 5128TIP3    H236876   0.467   2.053  11.152  1.3575  0.2532 -1.4785
 5129TIP3   OH236877   4.762   2.288  13.826 -0.2062  0.2651 -0.2918
 5129TIP3    H136878   4.751   2.211  13.769  0.1547  0.2852 -0.3882
 5129TIP3    H236879   4.672   2.313  13.848 -0.4268  1.0106 -1.8551
 5130TIP3   OH236880   1.963   1.701  12.570  0.0655 -0.8114 -0.3765
 5130TIP3    H136881   2.030   1.747  12.520 -1.0833 -1.0445 -2.2485
 5130TIP3    H236882   1.917   1.647  12.505 -2.8998  0.4701  0.4653
 5131TIP3   OH236883   6.391   2.149   4.579 -0.3107 -0.5373 -0.1760
 5131TIP3    H136884   6.365   2.058   4.570 -1.4601 -0.3225  0.7294
 5131TIP3    H236885   6.328   2.186   4.641  0.9982  0.5156  0.5875
 5132TIP3   OH236886   3.908   5.026   3.797 -0.6831 -0.6193 -0.5833
 5132TIP3    H136887   3.813   5.027   3.781 -0.5060 -1.4346 -1.8771
 5132TIP3    H236888   3.932   4.934   3.786  0.1618 -0.5463  0.4826
 5133TIP3   OH236889   1.311   3.745   4.683  0.2330  0.2603 -0.0938
 5133TIP3    H136890   1.369   3.671   4.665  0.5965  0.0539  1.7268
 5133TIP3    H236891   1.247   3.712   4.746 -0.2512  1.1982 -0.0657
 5134TIP3   OH236892   4.050   0.903  11.421  0.5781  0.3754  0.0347
 5134TIP3    H136893   3.972   0.848  11.417 -0.3524  1.6911 -2.8837
 5134TIP3    H236894   4.018   0.992  11.406  2.4746  1.1828  0.4217
 5135TIP3   OH236895   4.398   5.333   5.118  0.5808  0.2516 -0.1797
 5135TIP3    H136896   4.447   5.347   5.037 -0.2712 -1.7866 -1.1173
 5135TIP3    H236897   4.464   5.303   5.181  1.3496  2.3800  0.1367
 5136TIP3   OH236898   5.014   4.519  14.458 -0.1825 -0.0734  0.1041
 5136TIP3    H136899   4.935   4.572  14.444  0.0463  0.2467  0.0140
 5136TIP3    H236900   5.010   4.495  14.550  0.3977  1.2445  0.5070
 5137TIP3   OH236901   0.145   1.413  13.671  0.1443 -0.0876  0.1021
 5137TIP3    H136902   0.124   1.328  13.632  1.6150 -0.5760  0.3180
 5137TIP3    H236903   0.165   1.470  13.597  2.3199 -0.8446  0.0460
 5138TIP3   OH236904   4.716   2.288  13.207 -0.3229  0.1121  0.0802
 5138TIP3    H136905   4.625   2.309  13.187  0.0272  0.7095 -0.9495
 5138TIP3    H236906   4.753   2.370  13.240  0.9364  1.1995 -3.5506
 5139TIP3   OH236907   6.369   5.046  13.891 -0.3500  0.4766 -0.4925
 5139TIP3    H136908   6.410   5.131  13.874  1.2507 -0.0161  0.6479
 5139TIP3    H236909   6.437   4.995  13.935 -1.7539 -0.8992  0.1922
 5140TIP3   OH236910   0.889   0.190  12.380  0.2000  0.6079 -0.5114
 5140TIP3    H136911   0.873   0.279  12.349 -0.0546 -0.2561 -3.1312
 5140TIP3    H236912   0.803   0.158  12.409  0.2960  1.1988  0.4459
 5141TIP3   OH236913   0.202   2.505  15.711 -0.1503  0.1104  0.3154
 5141TIP3    H136914   0.112   2.490  15.739 -1.1257  1.9346 -1.5840
 5141TIP3    H236915   0.249   2.524  15.792 -2.3522  2.9827  1.1006
 5142TIP3   OH236916   1.041   5.120  16.340 -0.2069 -0.0290  0.6654
 5142TIP3    H136917   1.118   5.103  16.395  0.0779 -3.5396 -0.5632
 5142TIP3    H236918   0.969   5.078  16.385 -0.0142 -2.7725 -1.3507
 5143TIP3   OH236919   5.234   6.570  14.984  0.2878 -0.4282  0.6478
 5143TIP3    H136920   5.305   6.526  15.031 -0.7124 -2.6310  0.2444
 5143TIP3    H236921   5.160   6.567  15.045 -0.3932 -1.2708 -0.1979
 5144TIP3   OH236922   1.959   2.291   1.790  0.3366 -0.7949  0.5523
 5144TIP3    H136923   1.892   2.336   1.842  1.7116  0.3308  1.4272
 5144TIP3    H236924   1.917   2.276   1.705 -1.0858 -0.2990  1.1400
 5145TIP3   OH236925   0.965   1.301  12.736  0.0971  0.3343  0.2291
 5145TIP3    H136926   0.879   1.339  12.751 -0.4560 -0.6800 -0.3377
 5145TIP3    H236927   0.963   1.216  12.781  0.3809 -0.2262 -0.7912
 5146TIP3   OH236928   4.833   0.479  13.762 -0.1535 -0.1478 -0.2245
 5146TIP3    H136929   4.867   0.511  13.679 -0.4933  2.9161  0.6907
 5146TIP3    H236930   4.910   0.466  13.817 -0.0870  1.5115  0.1246
 5147TIP3   OH236931   0.329   4.029   1.616 -0.2560  0.2820  0.4731
 5147TIP3    H136932   0.272   4.048   1.541 -0.8848  0.2942  0.9439
 5147TIP3    H236933   0.272   3.984   1.679  0.7382 -1.5623  0.1412
 5148TIP3   OH236934   2.926   5.958   5.751 -0.2191 -0.5765  0.4164
 5148TIP3    H136935   2.973   6.041   5.757 -0.2116 -0.5564  0.0988
 5148TIP3    H236936   2.877   5.964   5.668 -0.7544 -0.6080  0.7217
 5149TIP3   OH236937   0.896   6.288   3.743 -0.5906  0.1308 -0.2394
 5149TIP3    H136938   0.908   6.367   3.692 -0.4722 -0.7105 -1.5605
 5149TIP3    H236939   0.859   6.225   3.682 -3.9420  0.1075  1.5707
 5150TIP3   OH236940   0.840   6.143   6.913 -0.2843 -0.0532 -0.0389
 5150TIP3    H136941   0.918   6.122   6.964  0.9479 -0.6499 -2.0555
 5150TIP3    H236942   0.790   6.062   6.912 -0.2813 -0.0583  0.1714
 5151TIP3   OH236943   1.587   3.672   0.883 -0.5241 -0.6235  0.1561
 5151TIP3    H136944   1.634   3.723   0.817 -0.2025 -1.5300 -0.3373
 5151TIP3    H236945   1.637   3.686   0.964 -0.3501 -0.2891 -0.0075
 5152TIP3   OH236946   0.417   5.678  15.101  0.2614 -0.3746  0.8027
 5152TIP3    H136947   0.490   5.706  15.156  1.1222 -0.3700 -0.3087
 5152TIP3    H236948   0.408   5.746  15.035 -0.9957 -0.1984  1.1207
 5153TIP3   OH236949   2.881   3.409   3.060  0.3876  0.0708  0.4085
 5153TIP3    H136950   2.837   3.417   2.975  0.8739 -0.8169  0.0584
 5153TIP3    H236951   2.824   3.352   3.111  0.8903 -0.7141  0.1096
 5154TIP3   OH236952   0.548   1.108   4.208  0.1006 -0.2419 -0.5348
 5154TIP3    H136953   0.515   1.178   4.152  0.5577  0.3848 -0.0386
 5154TIP3    H236954   0.572   1.038   4.148  1.7568  0.8848 -1.2540
 5155TIP3   OH236955   6.432   5.214  10.315 -0.6558 -0.0366  0.2749
 5155TIP3    H136956   6.366   5.246  10.376  0.4553  1.1301  0.9431
 5155TIP3    H236957   6.489   5.158  10.368  0.1286  0.7240  0.2703
 5156TIP3   OH236958   1.406   5.482   1.421 -0.4642 -0.0841  0.4754
 5156TIP3    H136959   1.468   5.421   1.380 -0.5699 -1.0380  1.6544
 5156TIP3    H236960   1.328   5.476   1.366  0.2525  0.6392 -0.6534
 5157TIP3   OH236961   0.991   2.122  15.980 -0.6170  0.3061 -0.3749
 5157TIP3    H136962   0.977   2.049  16.041  0.2019  0.4571  0.0163
 5157TIP3    H236963   1.028   2.191  16.035 -1.5437  1.0781 -0.7125
 5158TIP3   OH236964   5.397   5.834  16.974 -0.4890 -0.0720 -0.0044
 5158TIP3    H136965   5.384   5.889  17.051  1.2358  0.2852  0.0748
 5158TIP3    H236966   5.318   5.781  16.968 -0.7891  0.1191  1.8342
 5159TIP3   OH236967   4.068   2.936  17.304  0.5193  0.0932 -0.3264
 5159TIP3    H136968   4.116   2.905  17.380 -1.2603  1.0991  1.2929
 5159TIP3    H236969   4.132   2.933  17.232  3.0029  1.3800  1.6608
 5160TIP3   OH236970   3.766   5.781  12.159 -0.3613 -0.5420  0.1754
 5160TIP3    H136971   3.759   5.865  12.206  0.9711 -0.3061 -0.0132
 5160TIP3    H236972   3.679   5.742  12.168 -0.3240 -0.2482  2.3672
 5161TIP3   OH236973   6.493   1.890   5.147 -0.6328 -0.6058  0.5372
 5161TIP3    H136974   6.536   1.834   5.212 -1.2406 -2.1671 -0.3394
 5161TIP3    H236975   6.547   1.881   5.069 -0.2252  0.8042  0.6383
 5162TIP3   OH236976   0.428   6.121   4.991 -0.2590 -1.0283 -0.1723
 5162TIP3    H136977   0.487   6.089   5.058 -1.3240 -1.3122  0.6633
 5162TIP3    H236978   0.392   6.201   5.027 -0.5439 -0.9714 -0.5757
 5163TIP3   OH236979   0.070   6.339   0.151  0.0341  0.8120 -0.2795
 5163TIP3    H136980   0.103   6.422   0.114  1.2684 -0.0913 -1.3248
 5163TIP3    H236981   0.088   6.346   0.245  0.0765  1.7477 -0.3450
 5164TIP3   OH236982   4.339   2.468   4.967 -0.3105 -0.6796 -0.3604
 5164TIP3    H136983   4.378   2.527   4.904 -1.3187 -0.8943 -1.2044
 5164TIP3    H236984   4.361   2.380   4.935  0.3959 -0.7882  0.3825
 5165TIP3   OH236985   2.627   2.464  16.409  0.0113  0.2903 -0.0403
 5165TIP3    H136986   2.635   2.369  16.419  0.9972  0.4482  1.0117
 5165TIP3    H236987   2.538   2.478  16.377  0.0480 -1.0174 -0.7807
 5166TIP3   OH236988   5.561   3.851   0.828 -0.2695  0.0874 -0.3496
 5166TIP3    H136989   5.595   3.879   0.743  0.2245  2.7401  0.6388
 5166TIP3    H236990   5.468   3.870   0.825 -0.1322  0.8607 -0.0938
 5167TIP3   OH236991   2.639   0.059  13.774  0.0483 -0.3388  0.3590
 5167TIP3    H136992   2.681  -0.022  13.743 -1.6750 -1.3809  0.5926
 5167TIP3    H236993   2.637   0.116  13.697 -1.1026 -1.5720 -0.5681
 5168TIP3   OH236994   0.554   2.072  16.796  0.2571 -0.2295 -0.5628
 5168TIP3    H136995   0.596   2.024  16.867 -0.3376 -0.4983 -0.3853
 5168TIP3    H236996   0.558   2.164  16.823 -2.8514 -0.5430  1.4481
 5169TIP3   OH236997   1.126   5.473  16.403  0.0807  0.4444 -0.4542
 5169TIP3    H136998   1.170   5.547  16.445  1.2688 -0.8836  0.7309
 5169TIP3    H236999   1.034   5.500  16.398  0.0383  1.0224  2.2456
 5170TIP3   OH237000   1.422   6.535  13.617 -0.0588  0.1607 -0.1085
 5170TIP3    H137001   1.424   6.529  13.522  2.2362 -0.2770 -0.1055
 5170TIP3    H237002   1.485   6.604  13.638  2.3455 -2.2224  1.1226
 5171TIP3   OH237003   3.422   1.417  16.726  0.3871 -0.0421  0.4922
 5171TIP3    H137004   3.420   1.410  16.630 -0.2445 -0.4329  0.5326
 5171TIP3    H237005   3.391   1.332  16.757 -0.8844  0.5912  1.0317
 5172TIP3   OH237006   0.911   6.740  13.589 -0.3647  0.4335 -0.2915
 5172TIP3    H137007   0.966   6.687  13.530  2.0583  1.3861  0.9414
 5172TIP3    H237008   0.855   6.790  13.530 -1.8721 -2.4905 -1.5322
 5173TIP3   OH237009   3.626   2.302   2.065  0.4815 -0.1151 -0.1254
 5173TIP3    H137010   3.614   2.301   2.160 -0.8823 -0.6525 -0.2845
 5173TIP3    H237011   3.672   2.384   2.047  0.8824 -0.0809  1.0131
 5174TIP3   OH237012   1.860   3.087   2.675 -0.0052  0.3937  0.7784
 5174TIP3    H137013   1.834   3.144   2.603  1.3338 -0.8302 -0.7540
 5174TIP3    H237014   1.821   3.002   2.653 -0.6878  0.3061  2.2191
 5175TIP3   OH237015   0.792   2.044   0.135  0.1249 -0.6307  0.6074
 5175TIP3    H137016   0.697   2.042   0.151 -0.2707  2.1054 -0.9523
 5175TIP3    H237017   0.828   1.990   0.205 -2.5619 -1.7558  1.2673
 5176TIP3   OH237018   0.109   2.665   4.008  0.2006  0.7054  0.3901
 5176TIP3    H137019   0.159   2.722   4.066 -0.9085 -0.4648  2.6027
 5176TIP3    H237020   0.124   2.577   4.043  0.5830 -0.2337 -1.9599
 5177TIP3   OH237021   2.732   6.719   4.983  0.2834 -0.0260  0.1722
 5177TIP3    H137022   2.657   6.706   5.041 -1.2659  1.0618 -1.4865
 5177TIP3    H237023   2.694   6.733   4.897  2.2888  1.9698 -0.5052
 5178TIP3   OH237024   1.835   1.178  12.922 -0.4044  0.0921 -0.3519
 5178TIP3    H137025   1.757   1.157  12.973 -0.6611  0.5325 -0.5593
 5178TIP3    H237026   1.801   1.215  12.840 -0.0089 -1.0146 -1.0387
 5179TIP3   OH237027   4.775   0.042  17.293  0.5901  0.1454  0.0906
 5179TIP3    H137028   4.778   0.123  17.242 -2.0372 -0.5109 -1.2782
 5179TIP3    H237029   4.692   0.002  17.270  1.2410 -2.3710  1.6804
 5180TIP3   OH237030   3.378   6.819  11.588 -0.4041  0.4757 -0.2804
 5180TIP3    H137031   3.397   6.908  11.560 -1.2000  0.3372 -1.3217
 5180TIP3    H237032   3.464   6.778  11.599  0.1139  1.9960  2.5374
 5181TIP3   OH237033   2.726   5.926   6.589 -0.1297  0.2365 -0.4008
 5181TIP3    H137034   2.665   5.877   6.643  0.5950  1.0748  1.2341
 5181TIP3    H237035   2.791   5.861   6.562  0.4307  0.1116  1.1552
 5182TIP3   OH237036   5.046   2.854  11.174 -0.0344  0.2700 -0.1415
 5182TIP3    H137037   5.097   2.930  11.145 -0.1769 -0.3660 -2.1837
 5182TIP3    H237038   4.975   2.847  11.110 -1.4300 -0.1879  1.3852
 5183TIP3   OH237039   0.040   5.608  16.134  0.9726  0.1961  1.0873
 5183TIP3    H137040  -0.047   5.567  16.137  0.7070  0.8328  3.0367
 5183TIP3    H237041   0.049   5.636  16.043 -0.8174  0.0105  0.8086
 5184TIP3   OH237042   5.654   6.150   4.625  0.5587 -0.2586 -0.1178
 5184TIP3    H137043   5.560   6.139   4.610  0.0168 -1.1264  3.1270
 5184TIP3    H237044   5.695   6.082   4.572 -0.5409  0.4244 -1.9361
 5185TIP3   OH237045   5.254   4.031  12.227 -0.2192  0.1950 -0.3982
 5185TIP3    H137046   5.348   4.028  12.246 -0.4243 -1.4207  0.5787
 5185TIP3    H237047   5.219   4.097  12.287 -0.1063 -1.3056  1.4093
 5186TIP3   OH237048   4.259   3.272  13.911 -0.0897  0.5837 -0.6155
 5186TIP3    H137049   4.171   3.241  13.891 -0.2903  0.3854  0.5091
 5186TIP3    H237050   4.274   3.246  14.002  0.6885  1.6038 -0.4250
 5187TIP3   OH237051   4.056   6.030   3.217  0.1271 -0.1143  0.2474
 5187TIP3    H137052   3.966   6.059   3.236  0.3246  0.7557 -0.1369
 5187TIP3    H237053   4.047   5.936   3.202 -0.6093 -0.1710  0.9333
 5188TIP3   OH237054   5.820   6.082  15.322  0.2320 -0.2992  0.5339
 5188TIP3    H137055   5.820   5.987  15.315 -2.2838 -0.3379 -0.0934
 5188TIP3    H237056   5.739   6.103  15.368 -0.8086  1.5991 -1.8895
 5189TIP3   OH237057   0.689   5.921   0.683  0.1610  0.0772 -0.8757
 5189TIP3    H137058   0.643   5.889   0.605  0.3041 -0.0495 -0.9076
 5189TIP3    H237059   0.782   5.913   0.661  0.1998  0.4088 -0.8421
 5190TIP3   OH237060   1.948   3.054  15.422  0.0506 -0.4281 -0.0212
 5190TIP3    H137061   2.027   3.090  15.381  0.0065  0.9689  1.0465
 5190TIP3    H237062   1.977   3.027  15.510 -0.8133  0.9184  0.7082
 5191TIP3   OH237063   4.599   5.568   5.768 -0.2283  0.2315 -0.2573
 5191TIP3    H137064   4.617   5.605   5.854 -1.0291  0.1228 -0.0343
 5191TIP3    H237065   4.623   5.637   5.707 -3.0733  1.7591  0.2052
 5192TIP3   OH237066   4.917   5.906   4.589  0.0803  0.3746  1.2728
 5192TIP3    H137067   5.005   5.939   4.608  0.2338 -0.0155  1.2452
 5192TIP3    H237068   4.931   5.834   4.527 -0.3900  1.4154 -0.0879
 5193TIP3   OH237069   5.451   5.074  13.172  0.0410 -0.2607  0.3324
 5193TIP3    H137070   5.456   5.142  13.104 -0.3390  0.0462  0.6058
 5193TIP3    H237071   5.512   5.006  13.142  1.8141  0.9899  0.9308
 5194TIP3   OH237072   2.866   1.636  12.072  0.2903 -0.0707 -0.1405
 5194TIP3    H137073   2.864   1.725  12.109  0.7837  0.4500 -1.3117
 5194TIP3    H237074   2.926   1.643  11.997  0.1074 -1.3324 -0.4227
 5195TIP3   OH237075   6.484   3.657  11.233 -0.1760  0.4594 -0.0752
 5195TIP3    H137076   6.500   3.583  11.292  0.5184 -0.1115 -0.9457
 5195TIP3    H237077   6.390   3.655  11.215 -0.3402  0.4691  0.7791
 5196TIP3   OH237078   3.115   3.280   5.169 -0.0270 -0.4445  0.3428
 5196TIP3    H137079   3.064   3.356   5.142 -0.7070 -0.3155  1.9184
 5196TIP3    H237080   3.149   3.302   5.255 -0.3191 -1.9564  0.8793
 5197TIP3   OH237081   2.118   1.158   0.553  0.2712 -0.1627 -0.0916
 5197TIP3    H137082   2.069   1.211   0.491 -1.0509 -0.1353  0.9316
 5197TIP3    H237083   2.092   1.190   0.639  0.4737 -1.5607  0.5242
 5198TIP3   OH237084   4.183   3.058  11.051 -0.1652  0.4590 -0.1025
 5198TIP3    H137085   4.200   3.136  10.999  2.1499 -0.5554 -1.0375
 5198TIP3    H237086   4.239   3.068  11.128  0.5330 -0.4272 -0.4619
 5199TIP3   OH237087   0.530   2.371   1.659 -0.1425 -0.1606  0.6344
 5199TIP3    H137088   0.564   2.393   1.746  0.3103  1.9795 -0.0216
 5199TIP3    H237089   0.606   2.376   1.602 -0.5659 -0.8669 -0.0130
 5200TIP3   OH237090   2.569   6.163  14.540  0.1522 -0.1137  0.3264
 5200TIP3    H137091   2.529   6.242  14.504  1.7361  0.5492 -0.0811
 5200TIP3    H237092   2.500   6.098  14.539 -0.4657  0.5098 -1.8716
 5201TIP3   OH237093   5.025   2.646  12.740  0.3143 -0.3176 -0.2315
 5201TIP3    H137094   4.945   2.612  12.699  1.0499 -2.2148 -0.2111
 5201TIP3    H237095   5.001   2.733  12.771 -1.4389 -0.4306 -1.1305
 5202TIP3   OH237096   6.668   2.236   0.347  0.5520 -0.6831  0.6983
 5202TIP3    H137097   6.605   2.276   0.287  0.7191  1.6128  1.9493
 5202TIP3    H237098   6.754   2.259   0.310  0.6836  1.7839  2.3088
 5203TIP3   OH237099   2.399   4.105  16.412  0.0251  0.1688 -0.2629
 5203TIP3    H137100   2.441   4.030  16.455 -0.2785 -0.0451 -0.3326
 5203TIP3    H237101   2.389   4.170  16.482 -1.4112 -0.5679  0.2749
 5204TIP3   OH237102   5.417   6.098   3.263 -0.6655  1.0510 -0.0839
 5204TIP3    H137103   5.452   6.166   3.207 -0.6068 -1.0175 -2.7792
 5204TIP3    H237104   5.325   6.089   3.237 -1.2017  1.3007  1.5576
 5205TIP3   OH237105   1.694   2.734  14.917  0.5042 -0.8414 -0.9867
 5205TIP3    H137106   1.768   2.713  14.974 -0.0935 -1.5076 -0.4372
 5205TIP3    H237107   1.695   2.829  14.910  1.0152 -0.8017 -0.4405
 5206TIP3   OH237108   1.316   3.466   4.803 -0.5456  0.3107 -0.1403
 5206TIP3    H137109   1.312   3.456   4.898  0.5541  0.1281 -0.0983
 5206TIP3    H237110   1.225   3.456   4.774 -0.8617  0.1376  0.8657
 5207TIP3   OH237111   4.096   2.810   5.865  0.4685  0.4845  0.4123
 5207TIP3    H137112   4.145   2.808   5.947 -1.1005  1.6825  1.4210
 5207TIP3    H237113   4.159   2.780   5.799  1.9122 -0.0228  1.9563
 5208TIP3   OH237114   0.292   5.411  11.755 -0.2926  0.0794 -0.0531
 5208TIP3    H137115   0.260   5.344  11.694  0.1379  0.2991 -0.5366
 5208TIP3    H237116   0.261   5.494  11.718  0.9434  0.3099 -0.6324
 5209TIP3   OH237117   2.327   1.943  14.627 -0.2506  0.2383 -0.0410
 5209TIP3    H137118   2.243   1.958  14.671 -0.3599 -0.4241 -0.0119
 5209TIP3    H237119   2.320   1.989  14.544 -0.9687 -0.4827 -0.4000
 5210TIP3   OH237120   4.341   2.657   4.771  0.7654 -0.3157 -0.1796
 5210TIP3    H137121   4.407   2.683   4.707  1.7513  0.6938  1.1890
 5210TIP3    H237122   4.322   2.737   4.820 -2.7947 -0.0828 -1.5806
 5211TIP3   OH237123   3.131   1.423   0.033  0.3634 -0.1387  0.0976
 5211TIP3    H137124   3.123   1.376  -0.049  2.7365  0.7900 -0.7592
 5211TIP3    H237125   3.063   1.490   0.030 -0.2421 -0.7799 -0.6242
 5212TIP3   OH237126   2.125   0.110  15.595  0.7075  0.2501 -0.3475
 5212TIP3    H137127   2.198   0.086  15.537  1.3451  2.8743 -0.7503
 5212TIP3    H237128   2.164   0.169  15.659 -0.1781 -1.8634  2.3287
 5213TIP3   OH237129   4.783   0.271  16.301  0.1614 -0.2969  0.2236
 5213TIP3    H137130   4.862   0.290  16.251  0.3476  0.9895  0.9718
 5213TIP3    H237131   4.813   0.264  16.391 -0.2017 -2.3904  0.2304
 5214TIP3   OH237132   4.835   5.857  11.292 -0.7809  0.3593 -0.0803
 5214TIP3    H137133   4.902   5.801  11.254 -0.3839  0.5790  0.2902
 5214TIP3    H237134   4.755   5.835  11.243 -0.4575  0.0564 -0.4815
 5215TIP3   OH237135   0.081   1.010   0.894 -0.1539  1.0367 -0.0235
 5215TIP3    H137136   0.067   0.970   0.809  0.0405  1.2208 -0.1435
 5215TIP3    H237137   0.140   0.950   0.940  0.4051  1.3451 -0.3257
 5216TIP3   OH237138   0.906   3.229   5.365 -0.1074 -0.1111  0.4215
 5216TIP3    H137139   0.885   3.195   5.278  1.2849 -0.6838  0.2809
 5216TIP3    H237140   1.001   3.222   5.372 -0.2358 -0.8001  2.2821
 5217TIP3   OH237141   1.928   6.207   3.127  0.2187 -0.2295  0.1965
 5217TIP3    H137142   1.979   6.281   3.160 -0.7023 -0.6411  2.7753
 5217TIP3    H237143   1.977   6.130   3.154 -0.7380 -0.5948  0.9299
 5218TIP3   OH237144   4.897   1.751   0.753  0.4456 -0.3528 -0.3244
 5218TIP3    H137145   4.903   1.670   0.804 -1.6791  1.0768  2.5083
 5218TIP3    H237146   4.808   1.750   0.717  0.8125  0.1776 -1.2621
 5219TIP3   OH237147   6.715   4.581   5.193 -0.3929 -0.3371 -0.0520
 5219TIP3    H137148   6.754   4.606   5.109 -0.4390  1.3364  0.3722
 5219TIP3    H237149   6.730   4.658   5.249 -2.5852 -0.3941  0.6930
 5220TIP3   OH237150   1.333   3.749   3.910 -0.7610  0.1981  0.0376
 5220TIP3    H137151   1.326   3.653   3.901 -2.5747  0.4230 -1.7017
 5220TIP3    H237152   1.304   3.766   4.000 -2.1883 -0.7791 -0.1985
 5221TIP3   OH237153   5.483   1.221   4.271  0.1186  0.2905 -0.3602
 5221TIP3    H137154   5.579   1.228   4.268  0.1246  0.5806  0.4295
 5221TIP3    H237155   5.455   1.293   4.327 -0.5695  0.2261 -0.6124
 5222TIP3   OH237156   6.090   0.588  14.013 -0.0255 -0.3777 -0.1758
 5222TIP3    H137157   6.135   0.655  14.065  0.8980 -0.2617 -1.0901
 5222TIP3    H237158   6.005   0.579  14.055 -1.1053  3.0065 -1.2629
 5223TIP3   OH237159   5.540   3.854   6.167 -0.7485  1.2231  0.4026
 5223TIP3    H137160   5.467   3.879   6.225 -1.2442 -1.0754  0.8773
 5223TIP3    H237161   5.498   3.819   6.089 -0.1896 -0.1502  0.6869
 5224TIP3   OH237162   3.855   1.523   3.795 -0.3281 -0.0731  0.0582
 5224TIP3    H137163   3.948   1.513   3.775 -0.4587 -0.1876 -0.5088
 5224TIP3    H237164   3.844   1.616   3.813  0.0636 -0.2040  1.0200
 5225TIP3   OH237165   4.510   0.257   0.822  0.0240 -0.6958 -0.3045
 5225TIP3    H137166   4.570   0.199   0.774 -1.7994 -2.9987 -0.0358
 5225TIP3    H237167   4.566   0.324   0.860  2.3320 -2.2859 -0.6533
 5226TIP3   OH237168   3.722   6.652  17.094  0.0533 -0.1655  0.3272
 5226TIP3    H137169   3.807   6.673  17.134  0.9295 -0.8716 -1.0946
 5226TIP3    H237170   3.743   6.589  17.025 -1.6895 -0.6409  0.1942
 5227TIP3   OH237171   4.622   3.718  14.351 -0.5332  0.4517  0.1152
 5227TIP3    H137172   4.585   3.778  14.287 -2.5659 -2.3692 -1.6101
 5227TIP3    H237173   4.553   3.707  14.417  0.4337  1.1490  1.2878
 5228TIP3   OH237174   6.043   4.800  15.562  0.1191 -0.5925 -0.0809
 5228TIP3    H137175   5.984   4.740  15.607 -0.7244  0.0460 -0.3242
 5228TIP3    H237176   6.008   4.806  15.473 -0.3174  0.9176  0.1707
 5229TIP3   OH237177   2.871   2.807   3.485 -0.8549  0.0856 -0.5206
 5229TIP3    H137178   2.935   2.822   3.415 -0.5979  1.0586 -0.0899
 5229TIP3    H237179   2.863   2.891   3.530 -0.0231 -0.8231  1.4581
 5230TIP3   OH237180   1.818   5.181   0.108  0.2295  0.1817 -1.1360
 5230TIP3    H137181   1.791   5.091   0.087  2.9532 -0.6874 -1.4218
 5230TIP3    H237182   1.789   5.233   0.033 -0.3523 -0.6984 -1.5384
 5231TIP3   OH237183   6.703   6.117  11.042  0.1888  0.0685  0.5637
 5231TIP3    H137184   6.662   6.136  10.958  0.5684  1.4119  0.6532
 5231TIP3    H237185   6.796   6.110  11.022  0.2554  0.1528  0.8392
 5232TIP3   OH237186   5.371   3.722   5.974  0.1677  0.1652 -0.0478
 5232TIP3    H137187   5.311   3.692   6.043  0.2890 -1.6722 -0.6776
 5232TIP3    H237188   5.319   3.715   5.893  1.4219 -2.3309 -0.7265
 5233TIP3   OH237189   2.044   4.810  15.029 -0.1158 -0.1317  0.3806
 5233TIP3    H137190   2.047   4.715  15.025  0.2860 -0.0922 -0.3585
 5233TIP3    H237191   1.951   4.830  15.045 -0.1862 -0.6441  0.6321
 5234TIP3   OH237192   3.228   5.002   4.366 -0.5161 -0.0097  0.4763
 5234TIP3    H137193   3.138   4.990   4.336 -0.4366 -1.5263  0.7604
 5234TIP3    H237194   3.277   4.932   4.321  0.9364  2.0216 -1.2979
 5235TIP3   OH237195   5.818   0.199   1.370  0.4398 -0.1565  0.3723
 5235TIP3    H137196   5.830   0.243   1.286  0.5339  0.9805  0.9655
 5235TIP3    H237197   5.854   0.111   1.357  0.3997 -0.0127 -0.7850
 5236TIP3   OH237198   4.078   4.799  15.479  0.7776  0.4917  0.1379
 5236TIP3    H137199   4.057   4.892  15.486 -1.6935 -0.0244  0.4798
 5236TIP3    H237200   4.020   4.756  15.542  1.2784 -1.3534 -0.5914
 5237TIP3   OH237201   3.658   1.229  17.072 -0.3635  0.0568 -0.5067
 5237TIP3    H137202   3.574   1.215  17.116 -0.4031  1.2988 -0.1521
 5237TIP3    H237203   3.708   1.283  17.133  0.7116 -0.6688 -0.7168
 5238TIP3   OH237204   0.381   1.416   1.722 -0.1482 -0.1443  0.3472
 5238TIP3    H137205   0.290   1.447   1.722  0.0434  0.4578 -0.3790
 5238TIP3    H237206   0.384   1.348   1.789 -0.5881  1.4472  2.0743
 5239TIP3   OH237207   1.156   3.114  14.935  0.1119 -0.2008 -0.0600
 5239TIP3    H137208   1.231   3.058  14.958  0.7090  0.8901  0.7379
 5239TIP3    H237209   1.089   3.092  15.000  0.4545  0.2028  0.4414
 5240TIP3   OH237210   2.307   6.363   6.578 -0.3439  0.3387 -0.6837
 5240TIP3    H137211   2.383   6.375   6.522 -1.1283  0.5834 -1.7435
 5240TIP3    H237212   2.235   6.403   6.528 -0.8485  1.7630  1.0893
 5241TIP3   OH237213   4.587   3.814  16.672  0.0829 -0.1588  0.6451
 5241TIP3    H137214   4.606   3.731  16.716  2.1608 -0.2602 -0.3194
 5241TIP3    H237215   4.551   3.787  16.587 -0.7880 -0.0282  0.9681
 5242TIP3   OH237216   0.918   1.550   4.006 -0.3255  0.2908 -0.4599
 5242TIP3    H137217   0.954   1.635   4.030  0.1190 -0.4150  1.5308
 5242TIP3    H237218   0.827   1.554   4.036 -0.1872 -0.0761  0.0112
 5243TIP3   OH237219   2.606   4.734   2.298  0.4980 -0.1436 -0.5121
 5243TIP3    H137220   2.696   4.765   2.295  0.4089  0.4958  1.6462
 5243TIP3    H237221   2.611   4.642   2.272  1.6783  0.0233 -0.9205
 5244TIP3   OH237222   4.495   6.418   4.106 -0.3206 -0.1496  0.1557
 5244TIP3    H137223   4.549   6.423   4.028 -2.1691  0.6504 -1.1478
 5244TIP3    H237224   4.542   6.471   4.171 -0.0193  1.4156 -1.2566
 5245TIP3   OH237225   2.598   1.410  11.753  0.0422  0.7597 -0.3163
 5245TIP3    H137226   2.668   1.427  11.690  2.6822 -0.0370  2.2025
 5245TIP3    H237227   2.532   1.477  11.734  2.3185  2.7904 -1.6487
 5246TIP3   OH237228   2.238   5.221   5.406 -0.1492  0.1575  0.3012
 5246TIP3    H137229   2.251   5.229   5.501 -0.4316 -0.8666  0.4418
 5246TIP3    H237230   2.258   5.129   5.388 -2.1282 -0.1896 -0.3026
 5247TIP3   OH237231   0.870   0.795  14.417 -0.6398  0.0577  0.0607
 5247TIP3    H137232   0.814   0.728  14.456 -0.1728 -0.7488 -0.6051
 5247TIP3    H237233   0.928   0.823  14.487 -0.7948 -0.2981  0.3319
 5248TIP3   OH237234   1.174   6.012   1.998 -0.3170 -0.0567 -0.3950
 5248TIP3    H137235   1.135   6.063   1.927  0.6157 -0.2874 -1.0922
 5248TIP3    H237236   1.170   5.921   1.968 -0.3407 -0.2098  0.0572
 5249TIP3   OH237237   0.526   4.627  11.501  0.3516 -0.0848 -0.0761
 5249TIP3    H137238   0.446   4.637  11.552 -0.2931  0.6586 -1.1803
 5249TIP3    H237239   0.596   4.633  11.565 -0.4081  1.5337  0.6642
 5250TIP3   OH237240   6.106   5.483  15.393  0.6174  0.4544 -0.5114
 5250TIP3    H137241   6.112   5.475  15.297  0.3231  0.8538 -0.5653
 5250TIP3    H237242   6.126   5.575  15.410 -1.1228  0.8322 -0.3461
 5251TIP3   OH237243   4.799   1.311   3.362 -0.4219  0.3014  0.1930
 5251TIP3    H137244   4.845   1.322   3.278  0.6180  0.1752  0.7284
 5251TIP3    H237245   4.706   1.310   3.338 -0.2156  1.6346 -0.8132
 5252TIP3   OH237246   3.528   4.515  14.444 -0.4780  0.1468  0.0139
 5252TIP3    H137247   3.616   4.507  14.482  0.3421 -1.4643 -2.0196
 5252TIP3    H237248   3.544   4.531  14.351 -2.3565 -0.1740 -0.3946
 5253TIP3   OH237249   1.281   4.852   0.626 -0.4007  0.3991  0.1404
 5253TIP3    H137250   1.369   4.814   0.630 -1.4736 -2.3589 -0.3178
 5253TIP3    H237251   1.255   4.860   0.718 -0.4470 -0.8700  0.2625
 5254TIP3   OH237252   0.242   2.193  11.873 -0.0738 -0.0409 -0.2900
 5254TIP3    H137253   0.328   2.161  11.846  0.5415  0.4580  0.9795
 5254TIP3    H237254   0.255   2.288  11.885 -1.3245  0.3949 -2.0156
 5255TIP3   OH237255   2.158   3.551  11.989 -0.3106  0.1959 -0.4209
 5255TIP3    H137256   2.190   3.634  12.023 -2.2419  0.2914  1.4013
 5255TIP3    H237257   2.107   3.575  11.912 -1.4713  0.8654  0.5087
 5256TIP3   OH237258   5.700   4.044  15.889  0.4619  0.5211  0.1638
 5256TIP3    H137259   5.663   4.128  15.917  2.0544  0.9927  0.9784
 5256TIP3    H237260   5.712   3.995  15.970  0.4239 -0.1223 -0.2163
 5257TIP3   OH237261   0.016   0.202   3.280  0.0184 -0.6259 -0.0146
 5257TIP3    H137262  -0.020   0.289   3.264 -0.0043 -0.8332 -1.1388
 5257TIP3    H237263   0.021   0.195   3.376  0.0808  0.6271  0.0795
 5258TIP3   OH237264   3.365   4.833   4.953 -0.2021 -0.0907  0.3160
 5258TIP3    H137265   3.369   4.871   4.866  0.4393  1.4788  0.9978
 5258TIP3    H237266   3.283   4.866   4.991  1.1432  2.0971  1.5156
 5259TIP3   OH237267   3.387   6.018  11.506  0.1786 -0.5319  0.0164
 5259TIP3    H137268   3.428   6.094  11.465  0.5795 -1.9353 -2.3411
 5259TIP3    H237269   3.440   6.001  11.584 -0.3451  1.9614  1.0162
 5260TIP3   OH237270   3.332   1.279  15.632  0.4805 -0.3917  0.4766
 5260TIP3    H137271   3.336   1.300  15.538  2.7634  0.4061  0.6883
 5260TIP3    H237272   3.421   1.254  15.654  0.1943  0.3643  2.6562
 5261TIP3   OH237273   5.485   2.128  15.526 -0.1667  0.1863  0.1115
 5261TIP3    H137274   5.559   2.079  15.489 -1.4632 -0.8639 -1.1710
 5261TIP3    H237275   5.525   2.206  15.563  1.5631 -0.1980 -0.8379
 5262TIP3   OH237276   6.419   4.097   2.999  0.2568 -0.0397 -0.1621
 5262TIP3    H137277   6.482   4.042   2.953  1.4325  0.5457  0.6985
 5262TIP3    H237278   6.379   4.150   2.930  0.6744 -0.4501 -0.7294
 5263TIP3   OH237279   1.645   4.410   4.610  0.4512 -0.3376  0.7706
 5263TIP3    H137280   1.581   4.465   4.655  0.3584  0.1551  0.0676
 5263TIP3    H237281   1.597   4.373   4.536  0.4437 -1.5917  1.3975
 5264TIP3   OH237282   1.061   0.813   6.705  0.0482 -1.0001 -0.4576
 5264TIP3    H137283   1.006   0.819   6.627 -2.9380  1.5664  1.5735
 5264TIP3    H237284   1.004   0.773   6.771  1.4554 -0.5312  1.1156
 5265TIP3   OH237285   5.403   4.540   0.821  0.3964 -0.2939  0.6018
 5265TIP3    H137286   5.466   4.606   0.849 -0.0013  0.7063 -0.7565
 5265TIP3    H237287   5.323   4.562   0.870  0.3442  0.0774  0.3561
 5266TIP3   OH237288   1.464   4.296   4.431 -0.7266 -0.2454  0.4067
 5266TIP3    H137289   1.422   4.211   4.416  3.2790 -2.3398 -0.2095
 5266TIP3    H237290   1.503   4.319   4.347 -0.1075  1.2483  1.0665
 5267TIP3   OH237291   5.654   6.685   0.660  0.1341 -0.1258  0.6674
 5267TIP3    H137292   5.616   6.598   0.652 -1.1763  0.4693  0.1939
 5267TIP3    H237293   5.630   6.713   0.749 -0.6064  0.2656  0.3544
 5268TIP3   OH237294   2.492   4.725   0.985 -0.0425  0.6534 -0.3925
 5268TIP3    H137295   2.456   4.655   1.040 -0.7483  0.3192 -1.2637
 5268TIP3    H237296   2.471   4.805   1.032 -1.4070  0.4289 -0.5554
 5269TIP3   OH237297   5.076   0.100   5.762  0.8611 -0.5617  0.6873
 5269TIP3    H137298   5.002   0.055   5.720  2.1025 -2.3841  0.3525
 5269TIP3    H237299   5.067   0.191   5.733 -0.4734 -1.0089 -0.4529
 5270TIP3   OH237300   2.456   5.010  16.351 -0.1274 -0.3002 -0.1655
 5270TIP3    H137301   2.471   5.056  16.269 -1.8990 -0.3430 -0.5397
 5270TIP3    H237302   2.426   5.077  16.412 -0.9700 -0.6334 -0.2021
 5271TIP3   OH237303   4.119   6.269  14.948  0.0975  0.1332 -0.0785
 5271TIP3    H137304   4.157   6.183  14.928  0.8093  0.8235 -1.8694
 5271TIP3    H237305   4.084   6.301  14.865 -2.5221  0.5020  1.0738
 5272TIP3   OH237306   1.059   2.302  14.921 -0.0363  0.1157 -0.3948
 5272TIP3    H137307   1.047   2.390  14.955 -1.5182 -0.8988  1.9807
 5272TIP3    H237308   0.973   2.261  14.926  0.9018 -1.9672  0.1920
 5273TIP3   OH237309   6.812   0.059  13.905 -0.1459 -0.1138  0.2954
 5273TIP3    H137310   6.847  -0.021  13.866  1.7422  0.3526  0.9438
 5273TIP3    H237311   6.779   0.109  13.831 -0.1889 -0.9364 -0.2560
 5274TIP3   OH237312   4.410   2.128  15.824 -0.4248  0.2559  0.0253
 5274TIP3    H137313   4.406   2.103  15.731 -1.8297  1.0649 -0.1582
 5274TIP3    H237314   4.404   2.044  15.871 -0.4961 -0.0993 -0.6055
 5275TIP3   OH237315   4.759   2.920   2.465 -0.1275 -0.2461 -0.1563
 5275TIP3    H137316   4.719   2.854   2.409  0.2198 -0.5827 -0.0117
 5275TIP3    H237317   4.820   2.966   2.406 -0.0017 -0.3840 -0.1335
 5276TIP3   OH237318   5.455   3.146  11.158 -0.0683  0.3929 -0.6079
 5276TIP3    H137319   5.408   3.092  11.095  0.0272  1.6132 -1.7683
 5276TIP3    H237320   5.435   3.236  11.133 -3.2203  1.1054  3.4651
 5277TIP3   OH237321   4.325   6.025  12.003  0.3771 -0.5391 -0.2989
 5277TIP3    H137322   4.354   6.102  12.051 -0.8183 -1.1790  1.5575
 5277TIP3    H237323   4.288   6.060  11.922  0.7861  0.7448  0.0462
 5278TIP3   OH237324   3.711   0.422   0.609 -0.1541 -0.3049  0.4659
 5278TIP3    H137325   3.665   0.498   0.575 -1.3255 -1.2490 -0.1226
 5278TIP3    H237326   3.779   0.403   0.544 -0.6572 -0.4923 -0.0085
 5279TIP3   OH237327   6.122   0.360   0.616  0.4641 -0.0702  0.0438
 5279TIP3    H137328   6.159   0.406   0.541  0.5653  0.8415  0.6324
 5279TIP3    H237329   6.055   0.303   0.579 -0.7010  1.6326 -0.6014
 5280TIP3   OH237330   2.851   4.101  10.671  0.0392 -0.4677  0.0033
 5280TIP3    H137331   2.779   4.141  10.719  0.7574 -0.6859  1.2804
 5280TIP3    H237332   2.809   4.058  10.597 -0.7561  3.1619 -1.9264
 5281TIP3   OH237333   3.232   1.769  14.492 -0.0278 -0.2977 -0.3995
 5281TIP3    H137334   3.186   1.826  14.554  0.5410 -0.4232  0.1527
 5281TIP3    H237335   3.178   1.690  14.487 -1.4820  0.7444 -2.1225
 5282TIP3   OH237336   4.423   4.547   1.612  0.2680  0.4448  0.0158
 5282TIP3    H137337   4.378   4.599   1.545  2.6603  0.1198 -1.9982
 5282TIP3    H237338   4.397   4.586   1.695 -3.0277  0.7365 -1.0177
 5283TIP3   OH237339   4.894   0.856   1.952  0.2331  0.1641  0.3775
 5283TIP3    H137340   4.936   0.889   1.872 -0.9593 -0.5775 -0.5803
 5283TIP3    H237341   4.814   0.909   1.961  0.1698 -0.0085  0.8803
 5284TIP3   OH237342   4.491   2.742   5.095  0.4013 -0.2732  0.8615
 5284TIP3    H137343   4.528   2.790   5.021  0.9910  0.8090  1.8503
 5284TIP3    H237344   4.406   2.711   5.062  0.8110 -0.1366 -0.3871
 5285TIP3   OH237345   0.311   2.219   5.064 -0.0367  0.1433  0.1456
 5285TIP3    H137346   0.232   2.234   5.117  0.1564  0.9230  0.2328
 5285TIP3    H237347   0.374   2.181   5.125 -0.9194 -2.3255 -0.3500
 5286TIP3   OH237348   5.456   2.351  11.405 -0.2263  0.5383 -0.0468
 5286TIP3    H137349   5.377   2.357  11.458  0.1964  2.9435  0.4218
 5286TIP3    H237350   5.457   2.261  11.373 -0.5228 -1.1167  3.9940
 5287TIP3   OH237351   4.859   6.446  13.030  0.8523 -0.0719  0.6587
 5287TIP3    H137352   4.835   6.433  13.122 -0.0039  3.9153  1.1908
 5287TIP3    H237353   4.868   6.541  13.021 -1.4911 -0.0084 -3.9567
 5288TIP3   OH237354   4.499   1.623   3.354 -0.1158  0.2048 -0.2129
 5288TIP3    H137355   4.561   1.647   3.285  0.7151 -1.8896 -0.2575
 5288TIP3    H237356   4.413   1.635   3.313  0.3441 -0.3478 -1.3992
 5289TIP3   OH237357   3.913   2.563  16.153 -0.4136  0.1054 -0.2413
 5289TIP3    H137358   3.903   2.482  16.203 -2.7230 -0.1191 -0.9547
 5289TIP3    H237359   3.926   2.631  16.220  1.9243 -0.8315  0.3485
 5290TIP3   OH237360   2.097   3.625  16.303 -0.0509 -0.5127 -0.2052
 5290TIP3    H137361   2.116   3.654  16.214 -0.7322 -0.5192 -0.3629
 5290TIP3    H237362   2.182   3.615  16.345  0.2334  1.8295 -0.0968
 5291TIP3   OH237363   4.653   1.143   2.889 -0.0187  0.4328  0.4417
 5291TIP3    H137364   4.624   1.232   2.907 -0.9583  0.5364 -1.3924
 5291TIP3    H237365   4.738   1.136   2.932 -0.4199  1.8407  1.5201
 5292TIP3   OH237366   5.246   2.865  16.790  0.3387  0.3110  0.0081
 5292TIP3    H137367   5.263   2.934  16.726  0.0073 -1.4690 -2.1600
 5292TIP3    H237368   5.177   2.812  16.749 -0.8022 -0.2192  2.4562
 5293TIP3   OH237369   5.107   1.945  13.014 -0.5006 -0.6685  0.1358
 5293TIP3    H137370   5.108   2.017  12.951 -0.7961 -0.7238  0.0667
 5293TIP3    H237371   5.174   1.968  13.078 -1.1359  0.0590  0.5476
 5294TIP3   OH237372   2.485   1.017  14.152  0.0865  0.1775 -0.2711
 5294TIP3    H137373   2.510   0.928  14.175 -1.8369 -0.1415  0.8394
 5294TIP3    H237374   2.488   1.064  14.236 -3.4809 -0.0852  0.1533
 5295TIP3   OH237375   4.399   4.977  14.799  0.2206  0.0434 -0.2647
 5295TIP3    H137376   4.359   5.045  14.854  2.1037  0.5355  0.5757
 5295TIP3    H237377   4.445   4.920  14.861 -0.2826 -1.2769 -1.0770
 5296TIP3   OH237378   1.677   5.376   3.443  0.0401  0.5300  0.3927
 5296TIP3    H137379   1.742   5.375   3.373 -0.1687 -0.5303  0.1989
 5296TIP3    H237380   1.715   5.431   3.511  0.5573  0.9836 -0.2570
 5297TIP3   OH237381   0.415   2.985  15.229  0.0476 -0.1708  0.0843
 5297TIP3    H137382   0.447   2.911  15.280 -0.0536 -1.5426 -1.7242
 5297TIP3    H237383   0.415   2.953  15.139 -3.2494  0.8921 -0.4164
 5298TIP3   OH237384   3.882   1.771  13.226 -0.5654 -0.1266  0.4327
 5298TIP3    H137385   3.861   1.743  13.316 -0.1692 -1.0869  0.2381
 5298TIP3    H237386   3.909   1.690  13.182  1.8936  0.7691  0.1924
 5299TIP3   OH237387   2.061   2.775  15.594  0.4602 -0.3639 -0.4088
 5299TIP3    H137388   2.138   2.819  15.627 -0.0680 -0.1166  0.5128
 5299TIP3    H237389   2.009   2.754  15.671  0.1646 -1.6012 -0.9107
 5300TIP3   OH237390   5.766   6.668   2.742 -0.2976  0.2068 -0.2116
 5300TIP3    H137391   5.719   6.585   2.737 -0.8220  0.3217  1.6997
 5300TIP3    H237392   5.708   6.731   2.700 -0.7679 -0.0876 -0.0190
 5301TIP3   OH237393   6.145   5.499  11.423 -0.0443  1.0386  0.0193
 5301TIP3    H137394   6.103   5.415  11.403 -0.5091  1.4097 -0.5726
 5301TIP3    H237395   6.239   5.480  11.418 -0.1433  0.5258  0.0186
 5302TIP3   OH237396   0.411   5.065   4.689  0.0214  0.2327  0.0073
 5302TIP3    H137397   0.318   5.081   4.707 -0.8517 -2.1904 -1.8032
 5302TIP3    H237398   0.437   5.002   4.757 -0.7710 -1.8946 -1.5293
 5303TIP3   OH237399   6.182   4.739  14.571 -0.0533  0.2356  0.1693
 5303TIP3    H137400   6.178   4.834  14.571  0.7442  0.2797  0.3170
 5303TIP3    H237401   6.185   4.715  14.664 -0.3358  0.0625  0.1338
 5304TIP3   OH237402   0.634   5.467  12.626 -0.3043  0.3863  0.2085
 5304TIP3    H137403   0.599   5.378  12.629 -0.9010  0.6400  1.1561
 5304TIP3    H237404   0.615   5.504  12.712  1.2758  0.9416  0.3599
 5305TIP3   OH237405   2.099   2.174  14.817 -0.2457 -0.2761  0.4079
 5305TIP3    H137406   2.090   2.218  14.732 -0.7423 -0.5527  0.3133
 5305TIP3    H237407   2.169   2.222  14.862 -1.4219  1.2442  0.7011
 5306TIP3   OH237408   5.752   5.581  16.472  1.1401 -0.3435  0.8541
 5306TIP3    H137409   5.846   5.593  16.487  0.8387  1.6187  1.4453
 5306TIP3    H237410   5.711   5.657  16.513 -0.6311 -0.5573 -0.4004
 5307TIP3   OH237411   1.996   4.679   2.566  0.0428  0.0032 -0.9622
 5307TIP3    H137412   1.978   4.717   2.652 -0.1466  0.4814 -1.2118
 5307TIP3    H237413   2.039   4.595   2.586 -1.3616 -0.6128 -0.3736
 5308TIP3   OH237414   1.220   1.515  13.341  0.0387 -0.3853  0.0898
 5308TIP3    H137415   1.193   1.424  13.327 -0.4398 -0.3820  0.9426
 5308TIP3    H237416   1.201   1.558  13.258  0.6771 -1.1518 -0.4720
 5309TIP3   OH237417   0.042   4.099   3.575 -0.4195  0.2433  0.3816
 5309TIP3    H137418   0.049   4.054   3.659 -1.7507  0.4069  0.6008
 5309TIP3    H237419   0.125   4.080   3.531 -0.9795 -2.6230  0.3677
 5310TIP3   OH237420   5.482   2.823  16.918  0.3640 -0.2481  0.2228
 5310TIP3    H137421   5.405   2.848  16.867  1.2194 -0.5943 -1.2677
 5310TIP3    H237422   5.484   2.727  16.913 -0.1557 -0.3800  1.8606
 5311TIP3   OH237423   1.616   6.759  17.279  0.3422  0.6180  0.0656
 5311TIP3    H137424   1.687   6.774  17.342  0.3583 -0.6382  0.3644
 5311TIP3    H237425   1.562   6.692  17.320  0.3978 -0.2840 -1.2969
 5312TIP3   OH237426   2.524   2.186  14.600  0.2820 -0.4552  0.0049
 5312TIP3    H137427   2.430   2.205  14.603  0.6046  1.1999  0.3164
 5312TIP3    H237428   2.534   2.110  14.658 -0.7746 -0.2355  0.5105
 5313TIP3   OH237429   3.139   0.695  13.772 -0.1113  0.1615 -0.5224
 5313TIP3    H137430   3.150   0.730  13.684  2.1902 -0.5370 -0.5836
 5313TIP3    H237431   3.133   0.600  13.760  0.1646  0.0614  0.0720
 5314TIP3   OH237432   4.790   0.900  14.768 -0.3678  0.4897  0.1129
 5314TIP3    H137433   4.879   0.878  14.796 -1.3301 -2.2336  1.3951
 5314TIP3    H237434   4.792   0.892  14.673  0.9036  1.1205  0.0696
 5315TIP3   OH237435   3.766   3.996  16.600  0.5316  0.0692  0.2572
 5315TIP3    H137436   3.823   4.003  16.677  0.1073 -0.3377  0.6159
 5315TIP3    H237437   3.706   4.069  16.607  0.5994  0.1288  0.2210
 5316TIP3   OH237438   2.067   1.176   5.969  0.2646 -0.5045 -0.3634
 5316TIP3    H137439   1.973   1.186   5.984  0.2021 -2.5855  1.0106
 5316TIP3    H237440   2.086   1.237   5.897 -1.7273  1.3857  0.5852
 5317TIP3   OH237441   0.496   3.076   5.704 -0.2497  0.5768  0.5653
 5317TIP3    H137442   0.415   3.113   5.671 -1.0070  0.0216  1.7412
 5317TIP3    H237443   0.513   3.000   5.649 -0.7801  0.4202  0.6192
 5318TIP3   OH237444   0.348   5.827  11.557 -0.2560  0.3451  0.9189
 5318TIP3    H137445   0.438   5.797  11.567 -0.2063  0.7516  1.7509
 5318TIP3    H237446   0.329   5.813  11.464  0.0308 -1.4813  1.0904
 5319TIP3   OH237447   4.514   1.267   4.707  0.0556  0.2220  0.0524
 5319TIP3    H137448   4.482   1.186   4.747  0.9186 -0.5966 -0.8397
 5319TIP3    H237449   4.460   1.277   4.628 -0.0673  0.5425  0.1744
 5320TIP3   OH237450   0.277   0.332  14.285  0.3171 -0.2585  1.0893
 5320TIP3    H137451   0.248   0.270  14.218 -0.1010  0.4405  0.6078
 5320TIP3    H237452   0.265   0.286  14.368 -2.3008  0.0254  0.9410
 5321TIP3   OH237453   0.457   4.105   4.102 -0.2126 -0.0473  0.0848
 5321TIP3    H137454   0.546   4.101   4.138 -0.3182 -0.5230  0.2987
 5321TIP3    H237455   0.421   4.017   4.118 -0.3759 -0.1621 -0.8833
 5322TIP3   OH237456   5.155   4.508   3.015 -0.4539 -0.2458 -0.0166
 5322TIP3    H137457   5.099   4.544   3.084  0.2679 -0.9625  0.9912
 5322TIP3    H237458   5.243   4.511   3.052  0.5651  2.7082 -2.3204
 5323TIP3   OH237459   5.251   5.418  16.434  0.4675 -0.0224 -0.2964
 5323TIP3    H137460   5.237   5.327  16.409 -0.6462  0.6824 -2.5047
 5323TIP3    H237461   5.328   5.445  16.384 -1.5957  1.3189 -3.0188
 5324TIP3   OH237462   5.526   2.462   3.952 -0.0454  0.2477  0.5936
 5324TIP3    H137463   5.532   2.518   4.029  0.8482  1.2881 -0.1981
 5324TIP3    H237464   5.447   2.410   3.966 -1.0295  1.8542  1.2733
 5325TIP3   OH237465   5.788   3.170  13.453  0.3240 -0.3679  0.6445
 5325TIP3    H137466   5.835   3.229  13.393  1.4037 -1.5492  0.2873
 5325TIP3    H237467   5.847   3.096  13.464 -2.0071 -2.5871 -0.8644
 5326TIP3   OH237468   2.562   1.853   3.685  0.2829  0.3635 -0.0109
 5326TIP3    H137469   2.583   1.946   3.672  2.0407 -0.0557 -0.4588
 5326TIP3    H237470   2.605   1.809   3.611  0.3106 -0.9068  0.7427
 5327TIP3   OH237471   6.372   6.737   3.545 -0.3699  0.5202  0.3108
 5327TIP3    H137472   6.457   6.717   3.584  0.2267 -1.0137 -1.6450
 5327TIP3    H237473   6.390   6.803   3.478 -0.7750  0.3908  0.0693
 5328TIP3   OH237474   4.968   0.742  16.737  0.0001  0.4185  0.0430
 5328TIP3    H137475   4.952   0.669  16.797  1.2444  0.1047  0.0126
 5328TIP3    H237476   4.988   0.700  16.653  2.0164  0.7157  0.3257
 5329TIP3   OH237477   3.807   2.564  11.696  0.1063 -0.2722 -0.3299
 5329TIP3    H137478   3.849   2.527  11.774  2.2795  0.3216 -1.1408
 5329TIP3    H237479   3.823   2.499  11.628  0.0577  0.1524 -0.7473
 5330TIP3   OH237480   4.906   0.955   3.192  0.2054  0.1689 -0.6618
 5330TIP3    H137481   4.820   0.995   3.207  0.7008  1.1077 -0.1872
 5330TIP3    H237482   4.890   0.861   3.191 -0.9837  0.3648 -1.6288
 5331TIP3   OH237483   4.552   0.842   1.650 -0.1558  0.2704  0.9967
 5331TIP3    H137484   4.595   0.907   1.707  0.0045  1.1032 -0.0431
 5331TIP3    H237485   4.528   0.892   1.572 -0.0053 -0.9407  0.1589
 5332TIP3   OH237486   3.786   0.314   4.619  0.0265 -0.3384  0.3259
 5332TIP3    H137487   3.712   0.262   4.648 -0.5784  0.5505  0.4336
 5332TIP3    H237488   3.790   0.387   4.681  0.6203 -0.0568 -0.0331
 5333TIP3   OH237489   2.862   1.074  10.718  0.3103 -0.5624  0.2808
 5333TIP3    H137490   2.903   0.991  10.742 -0.6056 -1.2001 -0.2853
 5333TIP3    H237491   2.936   1.133  10.703  1.0194 -1.5596 -0.3290
 5334TIP3   OH237492   5.884   0.124   3.847  0.4336  0.0052  0.1109
 5334TIP3    H137493   5.912   0.138   3.757  1.6384 -0.4902  0.3967
 5334TIP3    H237494   5.943   0.178   3.900  0.6273 -0.7680  0.6969
 5335TIP3   OH237495   0.121   0.977   4.121  0.3730 -0.6536 -0.1542
 5335TIP3    H137496   0.046   1.036   4.121  0.4044 -0.5868 -1.6809
 5335TIP3    H237497   0.174   1.004   4.046 -0.3356 -3.4818 -1.8105
 5336TIP3   OH237498   3.376   4.647  15.265  0.0981 -0.1278  0.3249
 5336TIP3    H137499   3.399   4.620  15.353  0.6436  0.1837  0.2837
 5336TIP3    H237500   3.364   4.742  15.271 -0.1664 -0.1459  0.1279
 5337TIP3   OH237501   0.752   3.038   1.162  0.0999 -0.7226  0.0635
 5337TIP3    H137502   0.765   2.987   1.242 -2.6031 -1.0926  0.3433
 5337TIP3    H237503   0.783   3.126   1.185 -2.1943 -0.3560  2.1890
 5338TIP3   OH237504   6.643   5.019  15.746  0.0824 -0.1666  0.2979
 5338TIP3    H137505   6.591   4.941  15.728 -1.6080  1.1330 -0.7706
 5338TIP3    H237506   6.707   5.023  15.675 -1.1557  0.4753 -0.8144
 5339TIP3   OH237507   6.497   2.895   0.461 -0.4422 -0.0152 -0.7071
 5339TIP3    H137508   6.443   2.889   0.383  2.0242  0.2287 -2.5566
 5339TIP3    H237509   6.534   2.807   0.471  0.5069  0.3644 -0.7920
 5340TIP3   OH237510   6.322   3.862   0.900  0.2494 -0.3227 -0.1126
 5340TIP3    H137511   6.242   3.812   0.915  0.4492 -0.7767 -0.5365
 5340TIP3    H237512   6.292   3.945   0.862 -0.0849 -0.0851  0.6557
 5341TIP3   OH237513   1.693   1.492   3.602 -0.4458 -0.5585  0.2144
 5341TIP3    H137514   1.705   1.399   3.584 -0.6404 -0.5044 -0.1911
 5341TIP3    H237515   1.599   1.503   3.616 -0.2567 -0.6834  1.7565
 5342TIP3   OH237516   3.300   1.374  10.202 -0.3042  0.7195  0.2970
 5342TIP3    H137517   3.333   1.420  10.279  0.4980  0.5755  0.0466
 5342TIP3    H237518   3.264   1.443  10.146 -0.6210  0.8543  0.6623
 5343TIP3   OH237519   0.045   0.949   1.538 -0.2334  0.2008  0.7764
 5343TIP3    H137520   0.113   0.883   1.543  0.0870  0.5898  1.9590
 5343TIP3    H237521   0.072   1.017   1.600 -1.0716  0.9502  0.3618
 5344TIP3   OH237522   1.852   2.771   1.799 -0.1773 -0.2717  0.0585
 5344TIP3    H137523   1.882   2.752   1.888 -0.1828 -0.3291  0.0480
 5344TIP3    H237524   1.872   2.692   1.750 -0.8066 -0.4963  0.1640
 5345TIP3   OH237525   1.562   4.963   0.541 -0.1395 -0.2443 -0.6290
 5345TIP3    H137526   1.602   5.017   0.609 -1.0635  0.9200 -0.9602
 5345TIP3    H237527   1.577   4.873   0.569  0.3218  0.1973  0.6120
 5346TIP3   OH237528   2.768   4.057  12.780  0.5429 -0.0806 -0.1386
 5346TIP3    H137529   2.735   3.985  12.833 -0.6798 -0.1058 -0.9004
 5346TIP3    H237530   2.828   4.015  12.718  0.7539 -0.2662  0.1886
 5347TIP3   OH237531   2.564   4.422  15.527  0.0550  1.1124 -0.6922
 5347TIP3    H137532   2.536   4.377  15.606 -1.9105  0.2840 -1.7790
 5347TIP3    H237533   2.642   4.374  15.498  0.5171  1.1429  0.4657
 5348TIP3   OH237534   4.455   4.989  16.199 -0.3092 -0.1313  0.5443
 5348TIP3    H137535   4.524   4.926  16.222 -0.9608 -1.5159 -1.0281
 5348TIP3    H237536   4.380   4.962  16.252  0.4203  1.6938  2.6423
 5349TIP3   OH237537   1.526   3.218   3.507  0.4915 -0.5811  0.3963
 5349TIP3    H137538   1.534   3.242   3.415 -0.3618  1.3733  0.7725
 5349TIP3    H237539   1.608   3.174   3.527  0.1502 -2.2779 -1.6028
 5350TIP3   OH237540   4.821   3.114  14.970 -0.2981  0.6276  0.1777
 5350TIP3    H137541   4.805   3.096  14.878  0.2791 -1.2207  0.4136
 5350TIP3    H237542   4.820   3.029  15.013  3.5751  0.9323  1.2370
 5351TIP3   OH237543   6.612   5.989  11.266 -0.5573 -0.2253  0.0588
 5351TIP3    H137544   6.620   6.010  11.173 -0.9920 -1.2471 -0.2192
 5351TIP3    H237545   6.522   6.013  11.288 -0.7535 -0.8775 -0.0234
 5352TIP3   OH237546   4.813   3.090  16.082 -0.1933  0.5546  0.9420
 5352TIP3    H137547   4.819   3.157  16.014  2.2980  1.2318  1.7031
 5352TIP3    H237548   4.723   3.060  16.078 -1.0947  3.0777 -0.2794
 5353TIP3   OH237549   0.741   3.256   2.484  0.5133  0.1886 -0.1692
 5353TIP3    H137550   0.721   3.228   2.395  0.8887  2.1065 -0.9141
 5353TIP3    H237551   0.658   3.252   2.530  0.5361 -2.0273 -0.1938
 5354TIP3   OH237552   5.541   0.970   3.499  0.0920  0.8303  0.6287
 5354TIP3    H137553   5.573   0.882   3.480  3.4760  1.8913  0.7309
 5354TIP3    H237554   5.447   0.966   3.481  0.0484 -2.8395  0.9338
 5355TIP3   OH237555   5.337   0.691   0.582  0.1750  0.0333 -0.7502
 5355TIP3    H137556   5.381   0.766   0.620  0.3565 -0.1133 -0.6685
 5355TIP3    H237557   5.408   0.631   0.559 -0.0504 -2.0566  3.1545
 5356TIP3   OH237558   4.285   5.767   3.864  0.2564 -0.2472 -0.9702
 5356TIP3    H137559   4.282   5.832   3.794 -1.4069  0.2616 -0.4647
 5356TIP3    H237560   4.272   5.683   3.820  2.2667 -0.2722 -1.6110
 5357TIP3   OH237561   4.120   2.853   1.803  0.1806 -0.4144  0.1128
 5357TIP3    H137562   4.035   2.865   1.760  0.3192 -0.7227 -0.2642
 5357TIP3    H237563   4.183   2.885   1.739  0.3018  0.7531  0.7913
 5358TIP3   OH237564   3.369   0.003   6.207  0.0996  0.2892  0.7242
 5358TIP3    H137565   3.294   0.053   6.177  1.1723  2.4477  1.4022
 5358TIP3    H237566   3.381  -0.065   6.141 -1.6276  0.7163 -0.0848
 5359TIP3   OH237567   1.657   0.951   0.251 -0.3103 -0.2682  0.2547
 5359TIP3    H137568   1.639   0.861   0.278 -1.3818 -0.2909 -0.4492
 5359TIP3    H237569   1.632   1.005   0.327 -2.1604 -0.4092 -0.1958
 5360TIP3   OH237570   0.637   2.973  12.789 -0.0512 -0.5722  0.7088
 5360TIP3    H137571   0.666   3.053  12.744 -0.8777  0.0706  1.2828
 5360TIP3    H237572   0.711   2.950  12.845  0.3278 -0.4041  0.2862
 5361TIP3   OH237573   6.688   0.592  16.935  0.4238  0.1673 -0.0456
 5361TIP3    H137574   6.727   0.566  17.019  0.5943  0.3226 -0.0775
 5361TIP3    H237575   6.758   0.578  16.871  1.4588  3.1654  0.2578
 5362TIP3   OH237576   3.849   5.920   2.520  0.0141 -0.0299  0.3146
 5362TIP3    H137577   3.828   5.833   2.554 -0.5676  0.4122  1.1321
 5362TIP3    H237578   3.805   5.981   2.580 -0.8322  0.8095 -1.0982
 5363TIP3   OH237579   2.282   3.336  12.702  0.3676  0.6563 -0.2665
 5363TIP3    H137580   2.317   3.425  12.696 -0.6637  1.1891  1.0822
 5363TIP3    H237581   2.205   3.345  12.759  0.3643 -1.1364  0.0494
 5364TIP3   OH237582   0.905   3.992   1.212 -0.1409 -0.2749 -0.2985
 5364TIP3    H137583   0.857   4.045   1.276 -0.0779 -0.7675  0.1585
 5364TIP3    H237584   0.997   4.006   1.233 -0.1076 -0.1269 -0.5363
 5365TIP3   OH237585   2.438   6.179   4.323  0.2297  0.6809 -0.7336
 5365TIP3    H137586   2.413   6.092   4.291  0.8495 -0.5350  1.7972
 5365TIP3    H237587   2.519   6.199   4.277  0.0580 -0.0827 -1.3850
 5366TIP3   OH237588   5.267   4.941  15.786  0.0627 -0.1168 -0.1998
 5366TIP3    H137589   5.363   4.939  15.787  0.0863 -0.0992  1.7247
 5366TIP3    H237590   5.242   4.941  15.879 -1.7672  2.1803 -0.6022
 5367TIP3   OH237591   3.790   2.521   0.900 -0.2375 -0.3656  0.0148
 5367TIP3    H137592   3.728   2.588   0.930  0.2475 -0.1860  0.6151
 5367TIP3    H237593   3.770   2.512   0.806 -0.9951 -0.1220  0.1399
 5368TIP3   OH237594   3.588   0.421   4.316  0.2591  0.1788 -0.3860
 5368TIP3    H137595   3.655   0.424   4.248  1.4481  1.6260  0.7728
 5368TIP3    H237596   3.619   0.482   4.383 -1.7948  0.2202  0.6105
 5369TIP3   OH237597   3.306   5.011   0.726 -0.0480 -0.3414 -0.0663
 5369TIP3    H137598   3.349   5.094   0.703  1.3208 -1.3285 -1.2565
 5369TIP3    H237599   3.370   4.964   0.779 -0.2420 -1.1989 -0.5694
 5370TIP3   OH237600   1.169   6.045  16.587 -0.4709  0.1751 -0.1555
 5370TIP3    H137601   1.199   6.109  16.524 -0.1422 -0.1549 -0.3373
 5370TIP3    H237602   1.116   5.984  16.536 -1.1597  0.5459  0.0934
 5371TIP3   OH237603   1.646   5.156  11.980  0.2060 -0.4162  0.3174
 5371TIP3    H137604   1.615   5.109  11.902  1.3422  1.7810 -1.5940
 5371TIP3    H237605   1.723   5.107  12.009  0.4470 -0.6322 -0.6518
 5372TIP3   OH237606   1.783   3.738  11.825  0.4824 -0.1918  0.2520
 5372TIP3    H137607   1.749   3.676  11.760  0.8384 -0.0004 -0.1233
 5372TIP3    H237608   1.707   3.760  11.879  0.4870 -1.4168  0.7754
 5373TIP3   OH237609   5.186   0.190  15.468 -0.4995  0.1551 -0.1548
 5373TIP3    H137610   5.159   0.100  15.453 -0.4975  0.0388  0.5263
 5373TIP3    H237611   5.167   0.235  15.386 -0.8504 -0.3801 -0.3662
 5374TIP3   OH237612   1.558   2.431  12.056 -0.0721 -0.5213  0.4790
 5374TIP3    H137613   1.551   2.384  12.138  1.1350 -0.4890  0.6155
 5374TIP3    H237614   1.524   2.370  11.990  0.1920 -1.0494  0.8301
 5375TIP3   OH237615   6.671   0.397  14.574  0.0666 -0.1342 -0.4355
 5375TIP3    H137616   6.695   0.338  14.503  0.7784 -0.6265  0.2034
 5375TIP3    H237617   6.695   0.350  14.654  1.1407  1.2251  0.0795
 5376TIP3   OH237618   1.978   2.276  16.864 -0.2824 -0.1477 -0.4625
 5376TIP3    H137619   2.043   2.269  16.794 -0.9341  1.6783 -1.3159
 5376TIP3    H237620   1.910   2.333  16.828 -0.8427  0.5235  1.5146
 5377TIP3   OH237621   0.560   3.221  13.753 -0.1162  0.2675 -0.2455
 5377TIP3    H137622   0.536   3.129  13.764  1.1969 -0.0842 -0.1654
 5377TIP3    H237623   0.492   3.257  13.697  0.5016 -1.2999 -2.1191
 5378TIP3   OH237624   3.608   1.429   2.774  0.1891  0.1509 -0.4492
 5378TIP3    H137625   3.636   1.349   2.819 -2.5169  0.0730  1.2899
 5378TIP3    H237626   3.656   1.499   2.818  0.6747 -0.2889 -0.2619
 5379TIP3   OH237627   5.535   5.608  16.901  0.1329 -0.7052 -0.7613
 5379TIP3    H137628   5.560   5.616  16.993  0.7682 -2.3596 -0.7485
 5379TIP3    H237629   5.492   5.691  16.880 -0.9866 -0.7022  1.3237
 5380TIP3   OH237630   1.766   5.138  15.974 -0.1758  0.2720  0.4666
 5380TIP3    H137631   1.708   5.082  15.921 -0.8780 -0.2252  1.7165
 5380TIP3    H237632   1.826   5.177  15.910 -1.6195  0.4918 -0.8390
 5381TIP3   OH237633   2.305   2.104   2.009 -0.2877 -0.3888 -0.0543
 5381TIP3    H137634   2.352   2.037   2.060  1.0403 -0.0111 -0.7353
 5381TIP3    H237635   2.372   2.169   1.988 -1.2343  0.4050 -0.6693
 5382TIP3   OH237636   5.627   3.132  14.382 -0.1948  0.0026 -0.4242
 5382TIP3    H137637   5.676   3.153  14.462 -1.3107  0.4969  0.1593
 5382TIP3    H237638   5.592   3.216  14.353 -0.3376 -0.2765 -1.0650
 5383TIP3   OH237639   5.576   4.779  16.780  0.2419 -0.4586  0.1347
 5383TIP3    H137640   5.508   4.747  16.721 -0.4582 -0.4663  0.9213
 5383TIP3    H237641   5.529   4.804  16.859  1.0925  0.1063  0.4750
 5384TIP3   OH237642   1.380   2.764   4.412 -0.3738  0.2304 -0.1208
 5384TIP3    H137643   1.348   2.851   4.437  1.2595  1.3337 -1.6560
 5384TIP3    H237644   1.306   2.725   4.364 -0.8243  1.1006 -0.1555
 5385TIP3   OH237645   1.935   2.879  11.821 -0.0946 -0.5884 -0.2204
 5385TIP3    H137646   1.879   2.956  11.831  2.0994  1.1229 -0.2640
 5385TIP3    H237647   1.884   2.820  11.765 -2.4571  0.1558  1.0182
 5386TIP3   OH237648   4.270   2.378  16.382  0.1353  0.3679  0.2138
 5386TIP3    H137649   4.248   2.348  16.471 -0.3188  0.0465  0.0027
 5386TIP3    H237650   4.204   2.337  16.327  1.4767 -0.9074 -0.5086
 5387TIP3   OH237651   2.985   3.434  12.762  0.6132  0.1660  0.6183
 5387TIP3    H137652   3.069   3.391  12.777  0.1215 -0.9833  0.1806
 5387TIP3    H237653   2.977   3.498  12.833  2.1891  0.8164  0.2371
 5388TIP3   OH237654   1.951   6.195   1.007 -0.0843 -0.2409 -0.0857
 5388TIP3    H137655   2.033   6.157   0.976  0.2859  0.1868  0.3576
 5388TIP3    H237656   1.973   6.286   1.027 -0.1430 -0.6566  2.0611
 5389TIP3   OH237657   5.161   4.722  12.028 -0.3773  0.0345  0.2458
 5389TIP3    H137658   5.249   4.698  11.998 -0.0762  0.1544  1.0256
 5389TIP3    H237659   5.143   4.805  11.983  0.0539  0.1935  0.3604
 5390TIP3   OH237660   2.410   5.967   0.101  0.5012 -0.1496  0.2434
 5390TIP3    H137661   2.468   5.891   0.098  2.2024  0.9683  2.4009
 5390TIP3    H237662   2.468   6.043   0.093 -0.9937  0.9803 -0.4437
 5391TIP3   OH237663   1.950   4.918   1.200  0.3756  0.5957 -0.1394
 5391TIP3    H137664   2.027   4.862   1.190  0.1810  0.3459 -0.2355
 5391TIP3    H237665   1.971   4.973   1.276  1.6933  2.2222 -1.5978
 5392TIP3   OH237666   4.908   5.820   2.063  0.0690  0.2815 -0.2635
 5392TIP3    H137667   4.998   5.850   2.077 -0.4130  1.4556  0.5269
 5392TIP3    H237668   4.857   5.901   2.060 -1.2143 -0.4046  1.3364
 5393TIP3   OH237669   4.519   2.194  15.050 -0.7416  0.2569  0.0784
 5393TIP3    H137670   4.579   2.265  15.027 -1.3317  0.3528 -1.2402
 5393TIP3    H237671   4.514   2.141  14.971 -3.1505  0.8022 -0.2010
 5394TIP3   OH237672   3.329   2.640   0.057 -0.2983 -0.4378  0.2549
 5394TIP3    H137673   3.344   2.548   0.035 -5.2269 -1.3800 -0.3683
 5394TIP3    H237674   3.286   2.677  -0.021  2.2172  2.7595  0.1702
 5395TIP3   OH237675   3.544   5.565  16.929  0.2120 -0.2739  0.2653
 5395TIP3    H137676   3.509   5.653  16.943 -0.0317 -0.4026  0.4832
 5395TIP3    H237677   3.626   5.563  16.978  0.9601  0.3041 -0.9341
 5396TIP3   OH237678   0.609   5.368  11.756  0.3730 -0.4710  0.7965
 5396TIP3    H137679   0.681   5.333  11.705 -0.1670 -0.0632 -0.2803
 5396TIP3    H237680   0.549   5.294  11.768 -0.2758 -0.2101 -0.5950
 5397TIP3   OH237681   1.759   6.338   5.367 -0.5427 -0.1992 -0.2777
 5397TIP3    H137682   1.667   6.347   5.343 -0.0731 -0.0620 -2.1733
 5397TIP3    H237683   1.791   6.428   5.376 -0.1586 -0.1874 -1.5376
 5398TIP3   OH237684   6.579   5.099  10.952  0.1448  0.2275  0.1624
 5398TIP3    H137685   6.635   5.160  10.904 -0.5350  0.1542 -0.7586
 5398TIP3    H237686   6.541   5.043  10.884 -0.7730  0.0667  0.7939
 5399TIP3   OH237687   5.431   0.941   4.002 -0.0893 -0.1496 -0.3346
 5399TIP3    H137688   5.527   0.940   4.001  0.0667  1.6592  2.0063
 5399TIP3    H237689   5.407   0.851   4.023  0.8432 -1.4223 -4.0137
 5400TIP3   OH237690   1.192   1.985  17.083 -0.5944 -0.2263  0.0489
 5400TIP3    H137691   1.286   2.000  17.090 -0.7513  0.2504  1.6680
 5400TIP3    H237692   1.154   2.040  17.152 -2.0799 -0.2632 -0.6928
 5401TIP3   OH237693   6.120   0.224  16.470  0.0869 -0.1478 -0.3208
 5401TIP3    H137694   6.133   0.197  16.560 -0.2547 -0.4518 -0.3617
 5401TIP3    H237695   6.116   0.143  16.420  0.1552  0.0139 -0.5938
 5402TIP3   OH237696   4.731   3.670   4.134 -0.1140 -0.3271  0.4780
 5402TIP3    H137697   4.766   3.652   4.046 -0.9500 -0.7349  0.2207
 5402TIP3    H237698   4.808   3.665   4.191  0.9613  2.5658 -0.5306
 5403TIP3   OH237699   3.654   6.306  12.674 -0.0281  0.3227  0.1871
 5403TIP3    H137700   3.616   6.390  12.700 -1.4849 -0.4273  0.6225
 5403TIP3    H237701   3.669   6.261  12.757  0.1333 -0.0944 -0.0680
 5404TIP3   OH237702   2.552   4.926   2.778 -0.3172  1.0283  0.4960
 5404TIP3    H137703   2.588   4.935   2.690  2.4531  0.4738  1.4546
 5404TIP3    H237704   2.486   4.995   2.785  0.4391  2.0141 -1.5214
 5405TIP3   OH237705   0.202   5.417   4.940  0.1931  0.0707  0.6538
 5405TIP3    H137706   0.260   5.373   4.878 -0.0728 -0.8283  1.0227
 5405TIP3    H237707   0.114   5.405   4.904 -0.3975 -3.3764  2.7301
 5406TIP3   OH237708   3.093   6.376  14.206 -0.3367  0.5725 -0.0623
 5406TIP3    H137709   3.174   6.426  14.207 -0.2979  0.5458 -0.8844
 5406TIP3    H237710   3.097   6.325  14.125 -1.2033  0.6222 -0.1522
 5407TIP3   OH237711   1.634   0.529   1.596  0.5556 -0.1725  0.3039
 5407TIP3    H137712   1.655   0.592   1.665  1.7148 -1.0152  0.7602
 5407TIP3    H237713   1.554   0.563   1.556  0.5659  1.0136  1.2246
 5408TIP3   OH237714   0.524   5.248  13.239 -0.2583  0.5440  0.0566
 5408TIP3    H137715   0.589   5.250  13.169  0.0928  1.5736  0.3921
 5408TIP3    H237716   0.522   5.337  13.273  0.7934 -0.2594  2.4845
 5409TIP3   OH237717   5.647   1.605  17.220  0.0035 -0.2431  0.4656
 5409TIP3    H137718   5.721   1.663  17.204 -1.5588  1.5167 -0.8097
 5409TIP3    H237719   5.586   1.657  17.272 -0.5273 -1.5100  1.1518
 5410TIP3   OH237720   5.856   5.325   2.420  0.0204 -0.1365  0.1849
 5410TIP3    H137721   5.891   5.243   2.386 -0.0711 -1.1688  2.4361
 5410TIP3    H237722   5.762   5.308   2.429 -0.2224  0.7109 -0.6066
 5411TIP3   OH237723   6.687   1.243  13.696 -0.2015 -0.0314 -0.2333
 5411TIP3    H137724   6.741   1.208  13.767  0.1830  0.5507 -0.2301
 5411TIP3    H237725   6.701   1.183  13.623  1.1542  0.5807 -0.5111
 5412TIP3   OH237726   0.948   4.530   3.847 -0.3567 -0.0343  0.3655
 5412TIP3    H137727   0.960   4.469   3.775  1.3282 -2.7788  2.7598
 5412TIP3    H237728   1.013   4.599   3.832 -0.9668  0.2232 -1.3599
 5413TIP3   OH237729   4.052   1.005   3.620  0.3101  0.2049 -0.5214
 5413TIP3    H137730   4.102   0.938   3.573 -0.7537 -0.9247 -0.0712
 5413TIP3    H237731   4.114   1.039   3.686  1.4088  0.9295 -1.8504
 5414TIP3   OH237732   6.358   2.096   2.888  0.3866 -0.2823 -0.1562
 5414TIP3    H137733   6.265   2.104   2.909  0.8256  1.0511  1.5314
 5414TIP3    H237734   6.396   2.180   2.916  1.7037  0.2651 -3.1601
 5415TIP3   OH237735   6.669   0.883  14.205  0.4380 -0.3008 -0.6216
 5415TIP3    H137736   6.673   0.797  14.163 -0.1559  0.0106 -1.3520
 5415TIP3    H237737   6.650   0.865  14.297 -1.0511 -0.9166 -1.0155
 5416TIP3   OH237738   1.538   4.026  12.654 -0.2600 -0.2962 -0.5790
 5416TIP3    H137739   1.443   4.029  12.639 -0.3344 -0.9557 -0.2575
 5416TIP3    H237740   1.573   4.092  12.595 -0.8663 -0.4456 -1.1201
 5417TIP3   OH237741   1.865   0.453  12.705  0.3134  0.2214 -0.1309
 5417TIP3    H137742   1.788   0.508  12.690  0.1997  0.4557  1.1993
 5417TIP3    H237743   1.848   0.410  12.789  2.7029  2.2309  1.5281
 5418TIP3   OH237744   0.834   4.992  14.952  0.4326 -0.1703  0.1855
 5418TIP3    H137745   0.877   5.064  14.905 -0.3853  0.8855  1.0258
 5418TIP3    H237746   0.766   4.962  14.892 -0.1603  0.7255  0.3811
 5419TIP3   OH237747   1.319   2.691  10.513  0.0165 -0.1300  1.0311
 5419TIP3    H137748   1.366   2.621  10.557 -1.8154 -3.1362 -1.3884
 5419TIP3    H237749   1.376   2.715  10.439 -0.4697 -1.0052  0.3505
 5420TIP3   OH237750   1.406   4.058  16.923  0.5291 -0.2187  0.0323
 5420TIP3    H137751   1.432   4.057  16.831 -0.9693  0.9755 -0.4570
 5420TIP3    H237752   1.392   3.966  16.946 -0.7997 -0.4297 -1.4805
 5421TIP3   OH237753   1.730   0.826  16.895 -0.3450  0.3723 -0.6654
 5421TIP3    H137754   1.712   0.736  16.922 -1.2026  0.5772 -0.5355
 5421TIP3    H237755   1.795   0.818  16.825 -0.5384 -0.3510 -0.7658
 5422TIP3   OH237756   6.549   4.516   6.235 -0.5660  0.0561  0.3485
 5422TIP3    H137757   6.606   4.494   6.309  1.3025 -0.6674 -1.2377
 5422TIP3    H237758   6.597   4.583   6.186  0.0152 -2.0439 -2.1726
 5423TIP3   OH237759   3.597   0.667  17.285  0.5340  0.0323  0.1308
 5423TIP3    H137760   3.649   0.696  17.210  0.0579 -0.5361 -0.4308
 5423TIP3    H237761   3.506   0.674  17.255  0.1839  2.1135  1.4875
 5424TIP3   OH237762   6.642   5.570   0.527 -0.2042  0.8252  0.3689
 5424TIP3    H137763   6.668   5.662   0.533  0.7475  0.8907 -3.0030
 5424TIP3    H237764   6.699   5.525   0.591  0.2504  2.3793  1.1025
 5425TIP3   OH237765   3.174   0.425  11.832  0.9123  0.5249 -0.1682
 5425TIP3    H137766   3.226   0.348  11.854  0.3617  0.2515  0.1938
 5425TIP3    H237767   3.189   0.485  11.905 -1.3470 -0.5967  1.3349
 5426TIP3   OH237768   6.110   2.545   6.277  0.2355 -0.3658  0.3315
 5426TIP3    H137769   6.049   2.492   6.226  1.0978 -3.8161  2.5658
 5426TIP3    H237770   6.190   2.545   6.225 -0.9525  2.8348 -1.8382
 5427TIP3   OH237771   4.817   0.777  11.998  0.3174  0.3844  0.3072
 5427TIP3    H137772   4.884   0.830  12.042  0.5427  1.0217 -0.7663
 5427TIP3    H237773   4.759   0.748  12.069  0.4091  1.7470  0.9756
 5428TIP3   OH237774   5.422   3.761   4.767 -0.6329  0.4482  0.2106
 5428TIP3    H137775   5.419   3.813   4.847  1.4573  2.3307 -0.8331
 5428TIP3    H237776   5.359   3.803   4.708 -2.0409 -0.8294  0.7291
 5429TIP3   OH237777   3.104   6.606  12.824 -0.3306  0.0515 -0.3411
 5429TIP3    H137778   3.042   6.535  12.842 -2.4812  1.7326 -0.7086
 5429TIP3    H237779   3.107   6.657  12.905 -1.0164  1.0918 -0.9405
 5430TIP3   OH237780   4.081   4.752  14.718  0.0554 -0.0554  0.0861
 5430TIP3    H137781   4.071   4.847  14.713 -0.0584 -0.1170 -1.2015
 5430TIP3    H237782   4.012   4.723  14.777 -1.1161  0.4914 -0.9690
 5431TIP3   OH237783   3.343   5.646   6.602  0.2479 -0.3006 -0.1906
 5431TIP3    H137784   3.339   5.555   6.573 -0.8275  0.3110 -2.1736
 5431TIP3    H237785   3.286   5.649   6.679 -0.3092 -1.1750 -0.5486
 5432TIP3   OH237786   2.360   5.843   0.859 -0.4723 -0.2111  0.1864
 5432TIP3    H137787   2.298   5.788   0.812  0.1718 -1.8268  1.1625
 5432TIP3    H237788   2.411   5.886   0.790 -0.6006 -1.2923 -0.6061
 5433TIP3   OH237789   2.142   1.788   6.065  0.2576 -0.1318 -0.5326
 5433TIP3    H137790   2.078   1.755   6.128  1.0739  1.1046  1.0009
 5433TIP3    H237791   2.226   1.753   6.095  0.5480 -0.3005 -1.4991
 5434TIP3   OH237792   5.625   4.992  16.604  0.1384  0.4598 -0.6070
 5434TIP3    H137793   5.607   4.901  16.626  0.9381  0.5101  0.3073
 5434TIP3    H237794   5.707   5.013  16.649  0.1246  1.5473 -1.0369
 5435TIP3   OH237795   3.745   1.566  14.457 -1.0867  0.4270  0.1580
 5435TIP3    H137796   3.717   1.610  14.378  2.3588  0.7876 -1.0140
 5435TIP3    H237797   3.812   1.503  14.428  0.3704  0.6318  2.7248
 5436TIP3   OH237798   2.875   4.980   1.759  0.6163  0.0147  0.5922
 5436TIP3    H137799   2.893   5.024   1.842 -0.6306 -0.0763  0.9310
 5436TIP3    H237800   2.939   4.910   1.754  1.8295  1.0904  0.6318
 5437TIP3   OH237801   1.049   0.109   2.058  0.3356 -0.0326  0.1428
 5437TIP3    H137802   1.037   0.106   2.153  0.5967  0.0143  0.1772
 5437TIP3    H237803   1.060   0.017   2.032  0.0937 -0.0606  0.1345
 5438TIP3   OH237804   2.052   3.536  13.585 -0.0964  0.1242 -0.1036
 5438TIP3    H137805   2.131   3.547  13.639  0.7228  3.1688 -1.6741
 5438TIP3    H237806   2.076   3.471  13.519  0.4244 -0.3389  0.5279
 5439TIP3   OH237807   0.951   1.289   3.534  0.2144 -0.3761  0.0380
 5439TIP3    H137808   0.989   1.236   3.464  0.5905  0.6825 -0.5830
 5439TIP3    H237809   0.896   1.228   3.582  1.9109 -1.7455  0.3757
 5440TIP3   OH237810   1.651   5.871  11.702 -0.1108 -0.6433 -0.1195
 5440TIP3    H137811   1.707   5.810  11.655  0.4129 -0.4396  0.2249
 5440TIP3    H237812   1.698   5.955  11.698 -0.1745 -0.5691  0.5487
 5441TIP3   OH237813   2.111   2.381   6.231 -0.1715 -0.1295  0.6029
 5441TIP3    H137814   2.128   2.404   6.322 -0.5770 -0.3531  0.7382
 5441TIP3    H237815   2.024   2.419   6.213  0.0755  0.2492  0.1935
 5442TIP3   OH237816   6.730   0.528   6.304  0.3831 -0.7804 -0.0961
 5442TIP3    H137817   6.660   0.468   6.329  0.2107 -0.2317  0.8079
 5442TIP3    H237818   6.802   0.471   6.278  0.2259 -1.3864  0.7564
 5443TIP3   OH237819   5.559   5.856  17.245 -0.1528  0.5074 -0.6589
 5443TIP3    H137820   5.511   5.834  17.324  0.7199  1.7613  0.2652
 5443TIP3    H237821   5.584   5.771  17.208 -1.1806 -0.1103  0.0169
 5444TIP3   OH237822   1.592   0.608  16.412  0.2258 -0.3883  0.2037
 5444TIP3    H137823   1.594   0.681  16.350 -4.3188  0.0666  0.2682
 5444TIP3    H237824   1.590   0.530  16.358  1.9184 -0.3603  0.0487
 5445TIP3   OH237825   6.130   6.452  13.326  0.2483  0.2310  0.3176
 5445TIP3    H137826   6.120   6.361  13.296  0.7236  0.7287 -1.4963
 5445TIP3    H237827   6.223   6.458  13.349  0.1719  0.2040  0.6316
 5446TIP3   OH237828   6.042   6.157   5.530 -0.2126 -0.1793 -0.2611
 5446TIP3    H137829   6.020   6.196   5.445  0.5956  0.2758 -0.2717
 5446TIP3    H237830   6.033   6.063   5.517  1.6594 -0.2547 -1.3915
 5447TIP3   OH237831   1.998   0.435   3.007  0.1012  0.2458 -0.6711
 5447TIP3    H137832   1.963   0.347   2.995  1.3136 -0.4800  0.7093
 5447TIP3    H237833   2.089   0.429   2.976  0.0345  1.1664 -1.0825
 5448TIP3   OH237834   1.332   1.284  11.275 -0.3211  0.0966  0.3216
 5448TIP3    H137835   1.332   1.224  11.350 -0.1619  0.8356  0.9200
 5448TIP3    H237836   1.394   1.245  11.214 -0.6659 -0.6707  0.4352
 5449TIP3   OH237837   4.596   2.615   1.954  0.0792 -0.1326 -0.4827
 5449TIP3    H137838   4.524   2.669   1.990  2.4361  1.0927  2.9342
 5449TIP3    H237839   4.638   2.671   1.889  1.6826  1.8943  2.0902
 5450TIP3   OH237840   6.515   2.082  16.622  0.4599  0.0825 -0.0147
 5450TIP3    H137841   6.453   2.095  16.694  1.3123  0.5381  0.6563
 5450TIP3    H237842   6.495   1.994  16.589  0.2133 -0.2366  0.9365
 5451TIP3   OH237843   3.740   1.112  16.351 -0.4746  0.3740  0.0301
 5451TIP3    H137844   3.646   1.103  16.334 -0.2256 -0.1796 -1.1009
 5451TIP3    H237845   3.782   1.070  16.277  0.6735 -1.0332  1.4101
 5452TIP3   OH237846   3.604   5.116   5.795 -0.3601 -0.2515 -0.1045
 5452TIP3    H137847   3.633   5.208   5.796  0.4188 -0.4626 -1.4645
 5452TIP3    H237848   3.534   5.113   5.730  0.1960 -0.7732 -0.6912
 5453TIP3   OH237849   2.124   5.432   0.952  0.1867 -0.2075  0.1480
 5453TIP3    H137850   2.133   5.472   1.038  0.1007  1.0991 -0.4275
 5453TIP3    H237851   2.042   5.382   0.957  0.1901 -0.1548  0.8200
 5454TIP3   OH237852   5.352   0.716   4.972 -0.0081  0.4459  0.2497
 5454TIP3    H137853   5.332   0.642   4.916 -1.7814  1.8323 -1.0570
 5454TIP3    H237854   5.284   0.781   4.953  0.7258  1.9365  2.2534
 5455TIP3   OH237855   1.960   5.690  15.847 -0.1983 -0.2623  0.2431
 5455TIP3    H137856   1.942   5.650  15.761 -0.0731 -1.9201  0.9627
 5455TIP3    H237857   1.948   5.784  15.832  0.0108 -0.4985 -1.6402
 5456TIP3   OH237858   1.189   5.138  15.088 -0.4911  0.1766 -0.2227
 5456TIP3    H137859   1.195   5.134  14.992  1.4151 -0.7913 -0.1126
 5456TIP3    H237860   1.262   5.194  15.114 -0.1216 -0.6982  0.7013
 5457TIP3   OH237861   2.183   0.028  14.153  0.3330  0.2078 -0.7406
 5457TIP3    H137862   2.163  -0.065  14.148  1.0264  0.1084 -2.3923
 5457TIP3    H237863   2.105   0.072  14.118 -0.5569  0.3721  1.3109
 5458TIP3   OH237864   4.368   3.510   1.777 -0.0540  0.1421 -0.2808
 5458TIP3    H137865   4.389   3.587   1.724  1.4458 -0.5066 -0.6833
 5458TIP3    H237866   4.343   3.443   1.712  0.2834 -0.2022 -0.0548
 5459TIP3   OH237867   4.284   3.207   5.316  0.3642 -0.4006 -0.0615
 5459TIP3    H137868   4.293   3.294   5.354  1.1032 -0.3557 -0.3259
 5459TIP3    H237869   4.295   3.147   5.391 -2.7807 -0.2632  0.6229
 5460TIP3   OH237870   6.550   2.486   1.079  0.2572 -0.2776 -0.0239
 5460TIP3    H137871   6.487   2.504   1.149  0.0822 -0.9492 -0.0053
 5460TIP3    H237872   6.635   2.502   1.120  0.0993  1.0313 -0.1647
 5461TIP3   OH237873   4.694   2.996  16.829  0.6917 -0.3904 -0.3609
 5461TIP3    H137874   4.610   3.041  16.827  0.2657 -1.1405  0.1528
 5461TIP3    H237875   4.701   2.954  16.744  0.2416 -0.8612 -0.1702
 5462TIP3   OH237876   5.541   2.735   3.513  0.0115 -0.3002 -0.3447
 5462TIP3    H137877   5.504   2.805   3.566 -2.1752 -2.2748  0.8932
 5462TIP3    H237878   5.527   2.655   3.564  0.3821 -1.9524 -2.6432
 5463TIP3   OH237879   2.226   0.553   6.585  0.2485 -0.6075 -0.2868
 5463TIP3    H137880   2.176   0.530   6.663 -0.3592  2.0912  0.1960
 5463TIP3    H237881   2.310   0.509   6.596  0.3331  0.0597  2.1266
 5464TIP3   OH237882   5.717   1.430  14.784  0.9898  0.0226 -0.1919
 5464TIP3    H137883   5.682   1.450  14.696 -1.9080  0.3733  0.9299
 5464TIP3    H237884   5.731   1.336  14.783 -0.2506 -0.1810 -0.6664
 5465TIP3   OH237885   3.732   0.285  17.180  0.3971  0.2665 -0.5782
 5465TIP3    H137886   3.743   0.364  17.128 -0.7158  1.3652  0.7684
 5465TIP3    H237887   3.716   0.316  17.269 -0.1429 -1.4600 -0.0215
 5466TIP3   OH237888   0.821   2.693   0.561  0.1743 -0.8116 -0.1190
 5466TIP3    H137889   0.793   2.782   0.583  2.5321 -0.4056  1.5998
 5466TIP3    H237890   0.755   2.637   0.602 -1.3973  0.0663 -1.2938
 5467TIP3   OH237891   2.270   5.708   2.816 -0.1034  0.2326  0.0898
 5467TIP3    H137892   2.361   5.682   2.834  0.7246  1.0991 -2.4485
 5467TIP3    H237893   2.276   5.800   2.789 -1.6453  0.1210 -0.7362
 5468TIP3   OH237894   5.062   2.457  15.274  0.0654  0.2397  0.3015
 5468TIP3    H137895   5.034   2.373  15.238  0.9770 -0.0529  0.2432
 5468TIP3    H237896   5.001   2.474  15.346  0.2091 -0.7380  0.6632
 5469TIP3   OH237897   4.462   3.760   2.832 -0.1190  0.1158  0.3145
 5469TIP3    H137898   4.414   3.712   2.764  0.1899 -0.8252  0.7351
 5469TIP3    H237899   4.428   3.724   2.914 -1.1760  1.9189  0.7080
 5470TIP3   OH237900   6.452   0.771  11.222 -0.3084 -0.3772 -0.5476
 5470TIP3    H137901   6.545   0.753  11.211 -0.6147 -2.6313 -0.0108
 5470TIP3    H237902   6.412   0.744  11.139 -0.5801 -0.1610 -0.4894
 5471TIP3   OH237903   5.050   1.858   0.311  0.2779 -0.2566 -0.6908
 5471TIP3    H137904   5.048   1.940   0.260  1.8628 -1.2346 -2.4413
 5471TIP3    H237905   5.064   1.887   0.401 -0.2601  1.4546 -1.1158
 5472TIP3   OH237906   6.061   5.863   6.474  0.0771  0.4024 -0.1016
 5472TIP3    H137907   5.967   5.875   6.488 -0.0661 -0.0490 -0.6510
 5472TIP3    H237908   6.082   5.919   6.399 -0.0757 -0.6898 -0.9885
 5473TIP3   OH237909   2.747   3.445  16.661  0.7558 -0.1828 -0.4434
 5473TIP3    H137910   2.725   3.382  16.592  0.2890  0.1707 -0.6262
 5473TIP3    H237911   2.685   3.427  16.731  0.7577 -0.0645 -0.4115
 5474TIP3   OH237912   0.793   1.723  17.059  0.2638 -0.2639 -0.5927
 5474TIP3    H137913   0.810   1.747  16.968  1.0479 -2.0107 -0.9590
 5474TIP3    H237914   0.880   1.716  17.099 -0.0501 -0.0563  0.1345
 5475TIP3   OH237915   6.216   1.739   5.798  0.7313 -0.6857 -0.2083
 5475TIP3    H137916   6.211   1.667   5.735  1.3838 -2.0064  1.1701
 5475TIP3    H237917   6.199   1.697   5.883  0.6275  0.8892  0.5804
 5476TIP3   OH237918   0.823   3.374   1.802 -0.1396 -0.3000  0.3819
 5476TIP3    H137919   0.816   3.405   1.892 -1.6148 -0.1130  0.2267
 5476TIP3    H237920   0.734   3.381   1.767  0.5206  0.1937 -1.2842
 5477TIP3   OH237921   1.294   4.337  15.727  0.1016 -0.8624 -0.2063
 5477TIP3    H137922   1.344   4.258  15.706 -0.3661 -1.3700  0.5486
 5477TIP3    H237923   1.317   4.356  15.818 -1.0617 -1.1055  0.1559
 5478TIP3   OH237924   4.700   6.577  10.673  0.0452  0.3233 -0.0574
 5478TIP3    H137925   4.774   6.544  10.724  0.5435 -0.1235 -1.0584
 5478TIP3    H237926   4.712   6.672  10.674  0.4250  0.2777  0.0988
 5479TIP3   OH237927   1.923   5.987   2.141  0.0930  0.5413  0.3958
 5479TIP3    H137928   1.844   6.040   2.150 -0.6871 -0.6032  0.4321
 5479TIP3    H237929   1.946   5.993   2.048 -1.0426 -0.4905  0.0217
 5480TIP3   OH237930   6.125   5.636  12.336 -0.3657 -0.0670  1.0361
 5480TIP3    H137931   6.130   5.541  12.330 -0.4807 -0.2632  3.2429
 5480TIP3    H237932   6.214   5.663  12.357 -0.2985  0.3395  0.2507
 5481TIP3   OH237933   1.616   3.240   5.963  0.4054 -0.1291 -0.3831
 5481TIP3    H137934   1.614   3.315   6.022  0.9052  0.6752 -1.3734
 5481TIP3    H237935   1.524   3.228   5.937  0.3536  0.2673 -0.3888
 5482TIP3   OH237936   5.536   3.880  12.057 -0.0931  0.1004 -0.0795
 5482TIP3    H137937   5.511   3.947  11.994 -1.6745  0.8068  1.2297
 5482TIP3    H237938   5.495   3.800  12.024  0.4161  0.1099 -0.7634
 5483TIP3   OH237939   6.118   2.568  15.983  0.3587 -0.0416 -0.0505
 5483TIP3    H137940   6.053   2.499  15.968 -0.4064  0.5844  0.3093
 5483TIP3    H237941   6.187   2.550  15.920  0.5375 -1.5860  0.5437
 5484TIP3   OH237942   5.353   5.702  11.324  0.4516  0.2594  0.2342
 5484TIP3    H137943   5.378   5.759  11.252  1.6182  0.5033  0.8088
 5484TIP3    H237944   5.339   5.616  11.283 -1.4244  0.9356 -0.6475
 5485TIP3   OH237945   5.635   3.047  16.903  0.1933 -0.3536 -0.0155
 5485TIP3    H137946   5.615   2.981  16.969  2.5837 -1.2461 -0.1101
 5485TIP3    H237947   5.612   3.006  16.820  2.1505 -1.3572 -0.1203
 5486TIP3   OH237948   6.185   3.196  13.989  0.7095 -0.1487  0.1656
 5486TIP3    H137949   6.165   3.207  14.082 -1.4303 -0.1879 -0.2309
 5486TIP3    H237950   6.281   3.193  13.985  1.0098  2.6986  2.0483
 5487TIP3   OH237951   2.897   0.945   0.663  0.1017 -0.0370 -0.1526
 5487TIP3    H137952   2.885   0.950   0.568  1.5994 -1.1442 -0.4394
 5487TIP3    H237953   2.875   0.855   0.685 -2.4546  0.7877  0.9505
 5488TIP3   OH237954   4.552   1.010   3.948  0.4713 -0.6501 -0.1323
 5488TIP3    H137955   4.577   0.923   3.978 -0.2473 -1.6049 -2.1327
 5488TIP3    H237956   4.618   1.032   3.882 -0.3380 -0.4678 -0.8994
 5489TIP3   OH237957   2.881   6.757  11.641  0.5383 -0.3357 -0.3131
 5489TIP3    H137958   2.913   6.718  11.559 -0.5568  1.8853 -1.9004
 5489TIP3    H237959   2.958   6.799  11.680  0.9464 -0.9030 -0.4967
 5490TIP3   OH237960   0.900   6.372  13.061  0.1374 -0.5316  0.8106
 5490TIP3    H137961   0.891   6.347  13.153  0.2332 -0.2259  0.9034
 5490TIP3    H237962   0.836   6.317  13.015  0.5157 -1.1203  0.9784
 5491TIP3   OH237963   1.351   6.799   1.313 -0.4844  0.2842  0.1290
 5491TIP3    H137964   1.305   6.847   1.382  1.2894 -0.8275  2.2149
 5491TIP3    H237965   1.440   6.835   1.315  0.3769 -1.7619  0.4811
 5492TIP3   OH237966   4.591   6.752   6.399  0.6081 -0.7270  0.1712
 5492TIP3    H137967   4.498   6.732   6.416  1.0532 -2.5512  0.7340
 5492TIP3    H237968   4.616   6.692   6.329  1.6852 -1.1934  0.9260
 5493TIP3   OH237969   4.647   2.713  16.236 -0.2565 -0.0010  0.2187
 5493TIP3    H137970   4.733   2.753  16.223 -0.7671  0.7775 -0.9150
 5493TIP3    H237971   4.653   2.670  16.322  1.1951  0.1845  0.2309
 5494TIP3   OH237972   3.385   2.675  13.162 -0.1989 -0.0918 -0.3766
 5494TIP3    H137973   3.442   2.635  13.228 -2.1892  0.0529  1.5662
 5494TIP3    H237974   3.440   2.684  13.085  2.2098 -0.4931  1.1811
 5495TIP3   OH237975   2.112   5.373  17.083  0.3215  0.1555  1.1163
 5495TIP3    H137976   2.177   5.438  17.056 -1.1438  1.8684  1.5369
 5495TIP3    H237977   2.054   5.365  17.008 -0.9358  1.2453  1.9370
 5496TIP3   OH237978   5.030   0.309  12.862 -0.1282  0.9442 -0.4239
 5496TIP3    H137979   5.122   0.324  12.844  0.2618  1.5547  1.7812
 5496TIP3    H237980   4.986   0.391  12.837 -0.4678 -0.0143 -3.3696
 5497TIP3   OH237981   1.822   3.787   2.923 -0.7508  0.1404 -0.1552
 5497TIP3    H137982   1.764   3.733   2.870 -1.5573  0.4617  0.3760
 5497TIP3    H237983   1.857   3.728   2.989  2.4024 -0.9580 -2.5368
 5498TIP3   OH237984   4.168   0.233  11.197 -0.0004  0.6448 -0.0590
 5498TIP3    H137985   4.182   0.303  11.133 -1.7148  2.4912  1.4348
 5498TIP3    H237986   4.180   0.276  11.282  1.1943 -1.4836  0.9046
 5499TIP3   OH237987   4.480   6.296   0.966  0.8328  0.0759  0.4026
 5499TIP3    H137988   4.392   6.282   0.930  0.8842 -1.6641  0.8740
 5499TIP3    H237989   4.468   6.363   1.033  0.0952  0.7164 -0.3371
 5500TIP3   OH237990   6.242   2.708   5.784  0.1211 -0.3866 -0.0492
 5500TIP3    H137991   6.324   2.669   5.754  0.0037  0.4095 -1.4920
 5500TIP3    H237992   6.268   2.792   5.822  0.0175 -0.3234 -0.1161
 5501TIP3   OH237993   3.483   5.465  11.381  0.2660  1.2577 -0.1188
 5501TIP3    H137994   3.526   5.551  11.381  1.3044  0.8645 -3.3988
 5501TIP3    H237995   3.422   5.468  11.308 -0.3866 -0.4738  0.3113
 5502TIP3   OH237996   2.405   0.036   0.557 -0.2549  0.4441  0.4848
 5502TIP3    H137997   2.422  -0.059   0.553  0.8091  0.6208  0.6873
 5502TIP3    H237998   2.458   0.067   0.630 -1.5921  1.0115  1.2576
 5503TIP3   OH237999   0.274   0.203  16.641 -0.2638  0.0358  0.0776
 5503TIP3    H138000   0.329   0.255  16.700 -1.3919  0.9891  0.3201
 5503TIP3    H238001   0.225   0.145  16.699  1.0228 -1.4005 -0.1937
 5504TIP3   OH238002   1.692   4.054   1.823 -0.1030  0.5306 -0.2971
 5504TIP3    H138003   1.604   4.085   1.804 -0.3582 -0.0116 -0.0108
 5504TIP3    H238004   1.697   4.051   1.919 -0.1218 -0.4066 -0.3173
 5505TIP3   OH238005   3.608   5.528  15.188 -0.1273  0.1355 -0.5236
 5505TIP3    H138006   3.541   5.512  15.121 -3.5453 -0.8027  2.7830
 5505TIP3    H238007   3.593   5.619  15.215  1.9313  0.8614 -1.5804
 5506TIP3   OH238008   1.552   5.396   6.668 -0.0747  0.1921  0.2078
 5506TIP3    H138009   1.462   5.400   6.699 -0.9955  0.0101 -2.2742
 5506TIP3    H238010   1.560   5.311   6.624  0.5834  1.1038 -1.5459
 5507TIP3   OH238011   5.938   3.550  12.211  0.0619 -0.3931 -0.1800
 5507TIP3    H138012   5.865   3.521  12.265  0.3743  0.7360  0.8860
 5507TIP3    H238013   5.897   3.592  12.135 -0.4744  1.8157  1.2494
 5508TIP3   OH238014   0.044   2.057  14.548 -0.0436 -0.4979 -0.4738
 5508TIP3    H138015   0.073   2.103  14.470  0.5440  0.3073  0.2068
 5508TIP3    H238016   0.015   1.971  14.516 -0.4483  0.0597 -1.6492
 5509TIP3   OH238017   6.155   4.018  12.144 -0.4676  0.3064  0.0764
 5509TIP3    H138018   6.188   4.091  12.092 -1.9194  1.5712  0.8307
 5509TIP3    H238019   6.151   3.944  12.083 -1.4628  1.5626 -1.4314
 5510TIP3   OH238020   1.785   1.233   0.843  0.1173  0.1162  0.1842
 5510TIP3    H138021   1.867   1.244   0.795 -0.2868 -0.0369 -0.5729
 5510TIP3    H238022   1.768   1.139   0.839 -0.2343  0.1828  0.0845
 5511TIP3   OH238023   3.035   5.554   3.452 -0.1051 -0.3563 -0.4710
 5511TIP3    H138024   2.999   5.526   3.367 -0.5717  1.8815 -1.0845
 5511TIP3    H238025   3.044   5.649   3.443  2.3286 -0.3633  1.0754
 5512TIP3   OH238026   4.007   0.581  16.433  0.2467  0.2008 -0.5185
 5512TIP3    H138027   4.003   0.672  16.459 -3.5638  0.0729 -0.1950
 5512TIP3    H238028   4.002   0.532  16.515  4.4712 -0.5406 -0.4504
 5513TIP3   OH238029   1.370   0.350   1.158  0.0145 -0.1177 -0.0669
 5513TIP3    H138030   1.280   0.373   1.135 -0.1390 -0.8472 -0.2175
 5513TIP3    H238031   1.424   0.403   1.100 -0.3134  0.3965  0.0912
 5514TIP3   OH238032   1.151   5.963  14.906 -0.2871  0.0905 -0.2448
 5514TIP3    H138033   1.187   5.952  14.818 -0.9796  0.2844 -0.5662
 5514TIP3    H238034   1.107   6.048  14.903  1.4973  1.1273  0.9478
 5515TIP3   OH238035   4.720   0.412   5.891 -0.5378  0.1363 -0.2798
 5515TIP3    H138036   4.690   0.472   5.960 -0.8791 -0.9099  0.5114
 5515TIP3    H238037   4.780   0.353   5.936 -1.2342 -0.9479 -0.7234
 5516TIP3   OH238038   2.292   6.011   0.585  0.5327  0.4751 -0.2915
 5516TIP3    H138039   2.250   5.969   0.510 -1.5678  0.8006  0.6362
 5516TIP3    H238040   2.316   6.098   0.554  0.4090  0.3228 -0.8145
 5517TIP3   OH238041   4.231   1.134  15.698 -0.7502 -0.4368 -0.1811
 5517TIP3    H138042   4.315   1.148  15.654 -0.6243 -1.4291 -0.2743
 5517TIP3    H238043   4.173   1.201  15.661 -0.7802 -1.5055 -2.2162
 5518TIP3   OH238044   0.327   6.609  14.596  0.8012 -0.3176 -0.2411
 5518TIP3    H138045   0.364   6.689  14.633  0.4805  0.8470 -2.3272
 5518TIP3    H238046   0.246   6.596  14.645  0.2554  1.3200 -0.6478
 5519TIP3   OH238047   6.604   0.356   4.483  0.0300 -0.3747  0.3174
 5519TIP3    H138048   6.623   0.443   4.448 -0.8107 -0.5424 -0.6384
 5519TIP3    H238049   6.688   0.310   4.481  0.4622  0.3739  0.7395
 5520TIP3   OH238050   3.205   6.177  15.806  0.0982 -0.1038 -0.3431
 5520TIP3    H138051   3.137   6.119  15.839 -0.6538  1.0256  0.1777
 5520TIP3    H238052   3.170   6.209  15.722  0.4444 -0.3126 -0.5649
 5521TIP3   OH238053   3.638   2.491   4.752  0.2817 -0.5238 -0.1855
 5521TIP3    H138054   3.571   2.428   4.777  0.9892 -2.4336 -2.6543
 5521TIP3    H238055   3.659   2.469   4.661  0.4880  3.4180 -1.2770
 5522TIP3   OH238056   3.108   2.226   2.026  1.0279  0.0035  0.4685
 5522TIP3    H138057   3.152   2.229   2.111 -0.0326  0.3561  1.0229
 5522TIP3    H238058   3.168   2.177   1.970  0.4760 -2.8867  2.1938
 5523TIP3   OH238059   3.614   2.075   5.637  0.7679 -0.0059 -0.0687
 5523TIP3    H138060   3.533   2.039   5.675  2.1462 -2.7146  0.5728
 5523TIP3    H238061   3.627   2.158   5.683 -0.0501 -0.9866  2.0491
 5524TIP3   OH238062   3.889   0.217  11.162  0.0644 -0.0034  0.9051
 5524TIP3    H138063   3.977   0.203  11.198  0.3941  0.7396  0.4217
 5524TIP3    H238064   3.855   0.291  11.213 -1.1211 -1.5767  2.5180
 5525TIP3   OH238065   6.041   3.644  11.736 -0.0683  0.2456  0.0445
 5525TIP3    H138066   6.086   3.628  11.654  0.9142 -0.4983  0.7044
 5525TIP3    H238067   5.982   3.569  11.745  0.6859 -0.2991  0.5743
 5526TIP3   OH238068   4.210   2.541   3.785 -0.0188  0.2088  0.4759
 5526TIP3    H138069   4.160   2.547   3.866 -2.4804  1.1829 -0.9998
 5526TIP3    H238070   4.187   2.620   3.736  0.1876 -1.0410 -1.7946
 5527TIP3   OH238071   4.928   2.926   1.674 -0.5110  0.3640  0.2757
 5527TIP3    H138072   5.015   2.891   1.655 -0.1656  0.8398  0.9325
 5527TIP3    H238073   4.904   2.886   1.758 -1.8382 -1.3924 -0.8685
 5528TIP3   OH238074   0.019   0.162  10.573 -0.4246  0.2113 -0.1358
 5528TIP3    H138075  -0.025   0.111  10.504 -0.4154  1.8871 -1.4576
 5528TIP3    H238076   0.109   0.171  10.543  0.2140 -1.0271  1.3009
 5529TIP3   OH238077   3.896   2.869   0.969  0.4186  0.3795 -1.1071
 5529TIP3    H138078   3.821   2.896   0.916  0.5076  0.8753 -0.9831
 5529TIP3    H238079   3.967   2.857   0.906  0.5196  0.9482 -1.1022
 5530TIP3   OH238080   4.379   1.761   2.949  0.3108 -0.0459 -0.9019
 5530TIP3    H138081   4.414   1.677   2.918  1.8481  0.0226  0.5407
 5530TIP3    H238082   4.416   1.826   2.889  1.3985 -0.1421 -0.3619
 5531TIP3   OH238083   0.872   3.480  15.424 -0.3411 -0.0653  0.6306
 5531TIP3    H138084   0.845   3.569  15.403  3.1851  1.5346  2.0760
 5531TIP3    H238085   0.848   3.469  15.517 -0.8314 -0.7019  0.4410
 5532TIP3   OH238086   5.465   3.605   0.097  0.2744 -0.7139 -0.2648
 5532TIP3    H138087   5.400   3.540   0.070 -0.5557 -0.5264  1.1787
 5532TIP3    H238088   5.533   3.554   0.141 -0.3766 -0.6372  0.8654
 5533TIP3   OH238089   2.937   2.342  10.340 -0.0048 -0.0083  0.0632
 5533TIP3    H138090   2.917   2.429  10.306  2.4760  2.6402  4.4440
 5533TIP3    H238091   2.863   2.322  10.398 -0.2206 -0.4938 -0.3763
 5534TIP3   OH238092   4.030   5.229  13.178 -0.4036  0.1548  0.8959
 5534TIP3    H138093   4.091   5.197  13.245 -0.9166  0.2744  1.4286
 5534TIP3    H238094   4.007   5.317  13.207 -0.5468  0.2477  0.5037
 5535TIP3   OH238095   5.146   6.245   0.587 -0.0114  0.1433  0.4155
 5535TIP3    H138096   5.093   6.286   0.518 -0.1972 -1.1568 -0.2382
 5535TIP3    H238097   5.134   6.151   0.574 -0.0228 -0.1382  2.2120
 5536TIP3   OH238098   4.287   3.181   1.864 -0.4617  0.0427 -0.1328
 5536TIP3    H138099   4.368   3.178   1.814 -0.5766 -1.9946 -0.2617
 5536TIP3    H238100   4.222   3.217   1.803  0.1966  1.1827 -0.1905
 5537TIP3   OH238101   2.578   3.617  14.888 -0.2140 -0.3723  0.1450
 5537TIP3    H138102   2.664   3.658  14.888 -0.5747  0.3971  0.4373
 5537TIP3    H238103   2.516   3.690  14.886 -0.8712 -0.9178 -1.8717
 5538TIP3   OH238104   0.264   2.245  15.832  0.0327  0.8751  0.0835
 5538TIP3    H138105   0.206   2.221  15.760  0.6291  2.1432 -0.8480
 5538TIP3    H238106   0.347   2.202  15.811 -0.6963 -1.6365  1.8388
 5539TIP3   OH238107   1.984   0.791  12.062 -0.1542  0.0713 -0.5433
 5539TIP3    H138108   1.974   0.813  12.154  0.8610 -0.9342 -0.1734
 5539TIP3    H238109   2.035   0.710  12.062 -1.2726 -0.6870 -1.9385
 5540TIP3   OH238110   3.695   0.620   3.832  1.2217  0.0857  0.4561
 5540TIP3    H138111   3.700   0.658   3.744 -3.5011 -0.1540 -0.1662
 5540TIP3    H238112   3.682   0.695   3.890 -0.2638 -0.0198  0.2825
 5541TIP3   OH238113   4.074   5.063  15.537 -0.4655 -0.3937 -0.1205
 5541TIP3    H138114   4.162   5.078  15.571 -0.5367  2.1084 -0.8880
 5541TIP3    H238115   4.015   5.091  15.607 -0.5949  2.4077 -1.2282
 5542TIP3   OH238116   4.131   1.211  14.271 -0.3065 -0.1634 -0.1437
 5542TIP3    H138117   4.198   1.181  14.333 -0.4500 -1.0174 -0.3973
 5542TIP3    H238118   4.161   1.179  14.186 -0.6268  0.1488 -0.3750
 5543TIP3   OH238119   4.830   2.804  13.689  0.1936  0.0134 -0.9632
 5543TIP3    H138120   4.761   2.871  13.688 -0.5649 -0.7495 -0.7387
 5543TIP3    H238121   4.786   2.725  13.721  1.5885 -0.0459  0.9299
 5544TIP3   OH238122   2.769   0.798  12.727  0.2876  0.3086 -0.1847
 5544TIP3    H138123   2.721   0.857  12.669  1.6886  2.9303  1.1238
 5544TIP3    H238124   2.718   0.798  12.808  0.2107 -0.4392 -0.2300
 5545TIP3   OH238125   2.253   0.763   3.950 -0.3965  0.1333  0.4448
 5545TIP3    H138126   2.296   0.769   4.035 -1.9701  0.3619  1.2708
 5545TIP3    H238127   2.182   0.827   3.955 -2.0408 -1.5642 -0.1010
 5546TIP3   OH238128   2.511   4.479   6.152  0.4342 -0.4225 -0.3359
 5546TIP3    H138129   2.474   4.529   6.079  1.2931 -1.4703 -1.5301
 5546TIP3    H238130   2.444   4.485   6.220 -1.0888 -0.6450 -1.7322
 5547TIP3   OH238131   3.581   0.079   3.554  0.0503 -0.3812  0.6329
 5547TIP3    H138132   3.551   0.151   3.609  0.4395  1.3871 -1.3784
 5547TIP3    H238133   3.514   0.070   3.487  1.3152 -0.0638 -0.7081
 5548TIP3   OH238134   3.917   0.631  12.398  0.3097  0.2663  0.3603
 5548TIP3    H138135   3.938   0.548  12.354  0.2230 -0.4354  1.5745
 5548TIP3    H238136   3.825   0.646  12.379  0.3734  0.1873 -0.0215
 5549TIP3   OH238137   1.606   4.515  13.683 -0.5116 -0.1708 -0.1910
 5549TIP3    H138138   1.699   4.502  13.665 -0.2589 -0.5739  1.2600
 5549TIP3    H238139   1.594   4.610  13.683 -0.0929 -0.1189 -0.3377
 5550TIP3   OH238140   5.465   0.855  15.168  0.6071  0.0934  0.3449
 5550TIP3    H138141   5.560   0.850  15.153  0.6564 -0.6574  0.8624
 5550TIP3    H238142   5.450   0.946  15.192  1.4414 -0.1269  1.8074
 5551TIP3   OH238143   1.023   3.296   2.075  0.0783 -0.1023  0.1387
 5551TIP3    H138144   1.087   3.349   2.027  0.0951 -1.0745 -0.9565
 5551TIP3    H238145   0.963   3.360   2.112  1.0147  0.7672  0.2051
 5552TIP3   OH238146   1.659   6.594  11.647 -0.1465 -0.2119  0.5349
 5552TIP3    H138147   1.656   6.499  11.640  0.2002 -0.1432 -0.7248
 5552TIP3    H238148   1.590   6.615  11.710 -0.3462 -1.2794  0.6950
 5553TIP3   OH238149   4.887   0.994  12.636 -0.1512  0.1745  0.0473
 5553TIP3    H138150   4.972   1.022  12.670 -0.0988 -1.5494  1.4590
 5553TIP3    H238151   4.908   0.923  12.576 -0.4559  1.3989 -1.5745
 5554TIP3   OH238152   3.354   5.871   0.942 -0.2411 -0.0956  0.2167
 5554TIP3    H138153   3.318   5.891   1.028  0.6136 -1.2326  0.8641
 5554TIP3    H238154   3.440   5.912   0.941 -0.1647 -0.2582 -0.0215
 5555TIP3   OH238155   3.464   3.638  14.003  0.3040  0.0287  0.3388
 5555TIP3    H138156   3.481   3.656  13.910 -0.4869  0.6599  0.3004
 5555TIP3    H238157   3.533   3.683  14.050  1.4199 -1.2737  0.0317
 5556TIP3   OH238158   2.418   3.520   3.727 -0.4523  0.1269 -0.2152
 5556TIP3    H138159   2.361   3.527   3.651 -2.0908 -1.0069  0.8349
 5556TIP3    H238160   2.358   3.512   3.801  1.0850 -0.1434  1.0606
 5557TIP3   OH238161   2.197   2.943  15.988 -0.5998  0.5531 -0.1111
 5557TIP3    H138162   2.195   3.008  16.058 -0.2056  0.7676 -0.2958
 5557TIP3    H238163   2.258   2.979  15.924 -0.0368 -0.2024 -0.0140
 5558TIP3   OH238164   6.207   1.369   1.282 -0.9634 -0.5170  0.4446
 5558TIP3    H138165   6.281   1.411   1.325 -0.3760 -2.1424  1.0898
 5558TIP3    H238166   6.135   1.432   1.291  0.2728  1.0353 -0.0913
 5559TIP3   OH238167   5.596   2.469  15.960  0.1724 -0.0843  0.1242
 5559TIP3    H138168   5.559   2.524  15.891 -0.0564 -1.7462 -1.1306
 5559TIP3    H238169   5.528   2.405  15.980  0.3743  0.1281  1.6592
 5560TIP3   OH238170   2.621   3.297   4.456 -0.3278 -0.4812 -0.2444
 5560TIP3    H138171   2.606   3.391   4.464  0.3316 -0.3249 -0.8024
 5560TIP3    H238172   2.708   3.289   4.417  0.2215 -1.3416  1.0903
 5561TIP3   OH238173   4.348   3.610  11.529  0.4188 -0.7449  0.5349
 5561TIP3    H138174   4.312   3.551  11.595 -1.0931 -0.4248  0.0384
 5561TIP3    H238175   4.298   3.591  11.449 -0.3544  1.3579  0.4343
 5562TIP3   OH238176   3.786   0.015   4.432  0.1267  0.5008  0.4228
 5562TIP3    H138177   3.707   0.062   4.405 -0.6235 -0.1233  1.4362
 5562TIP3    H238178   3.810  -0.038   4.356 -1.6988 -0.9272  0.7702
 5563TIP3   OH238179   0.777   1.889  14.405 -0.2029  0.5621  0.3107
 5563TIP3    H138180   0.768   1.894  14.310 -1.0387  0.9297  0.4028
 5563TIP3    H238181   0.689   1.907  14.439  0.5256  2.7634  1.2196
 5564TIP3   OH238182   3.507   2.746   4.501 -0.0692  0.5760  0.0584
 5564TIP3    H138183   3.582   2.783   4.548  1.2764 -0.5348 -1.1320
 5564TIP3    H238184   3.534   2.658   4.476 -1.4029  0.4953 -1.2686
 5565TIP3   OH238185   0.767   4.443   1.295  0.1066 -0.9677 -0.3858
 5565TIP3    H138186   0.861   4.428   1.284  0.0223 -2.3452  0.4531
 5565TIP3    H238187   0.726   4.393   1.225 -0.0029  0.2020 -1.1858
 5566TIP3   OH238188   3.022   1.596  11.436  0.1413 -0.5817 -0.1499
 5566TIP3    H138189   3.028   1.691  11.429 -0.0172 -0.4232  1.4064
 5566TIP3    H238190   3.039   1.563  11.347 -0.6868  0.9259 -0.8938
 5567TIP3   OH238191   0.422   0.668  16.567 -0.1535 -0.2835 -0.0775
 5567TIP3    H138192   0.346   0.627  16.524  0.2250 -1.3007  0.1978
 5567TIP3    H238193   0.386   0.747  16.608 -1.6024 -1.9255  2.0263
 5568TIP3   OH238194   0.626   4.113  13.631  0.3204  0.0815  0.0458
 5568TIP3    H138195   0.549   4.115  13.574  1.5399 -0.0325 -1.7003
 5568TIP3    H238196   0.651   4.205  13.641 -1.5513  0.4229  2.9299
 5569TIP3   OH238197   0.517   2.055  10.712  0.0216  0.1466 -0.2987
 5569TIP3    H138198   0.426   2.058  10.742  0.1112  1.0881 -0.0892
 5569TIP3    H238199   0.526   2.131  10.655  0.9983  0.7780  0.6512
 5570TIP3   OH238200   4.967   4.368  13.543 -0.2023  0.2975  0.1290
 5570TIP3    H138201   4.983   4.365  13.638 -0.9987 -0.7219  0.2514
 5570TIP3    H238202   4.875   4.342  13.534  0.2380 -0.9562 -1.0044
 5571TIP3   OH238203   2.371   1.727   0.901 -0.2536  0.1223 -0.2178
 5571TIP3    H138204   2.367   1.798   0.965 -1.7931 -0.0735 -0.0691
 5571TIP3    H238205   2.463   1.700   0.901  0.1242  1.3346  0.5655
 5572TIP3   OH238206   3.466   4.017   0.343 -0.1506  0.2671 -0.4002
 5572TIP3    H138207   3.477   4.112   0.334 -2.8383  0.6189 -1.0659
 5572TIP3    H238208   3.472   3.984   0.254  1.9599 -0.4205 -0.0513
 5573TIP3   OH238209   3.534   2.044   1.966 -0.4135  0.0608 -0.6803
 5573TIP3    H138210   3.441   2.032   1.945 -0.6755 -2.5357  1.5148
 5573TIP3    H238211   3.536   2.122   2.022 -1.1538  0.4987 -1.2401
 5574TIP3   OH238212   5.343   2.316   5.401  0.0937 -0.5825  0.1582
 5574TIP3    H138213   5.371   2.224   5.403  0.1233 -0.6851 -2.3384
 5574TIP3    H238214   5.395   2.356   5.332 -1.2317  0.8511 -0.0802
 5575TIP3   OH238215   5.286   5.211  11.961  0.5090  0.1104  0.2475
 5575TIP3    H138216   5.348   5.227  12.032  0.0799  1.5033  0.3305
 5575TIP3    H238217   5.314   5.270  11.891  0.1405 -0.2977 -0.2517
 5576TIP3   OH238218   5.525   1.920   5.568  0.0727 -0.4931 -0.0788
 5576TIP3    H138219   5.490   1.955   5.486 -1.7225 -3.4870 -0.7365
 5576TIP3    H238220   5.448   1.905   5.623  0.9308 -1.5849  0.8738
 5577TIP3   OH238221   2.764   6.797   5.652 -0.3610 -0.7086 -0.1171
 5577TIP3    H138222   2.816   6.864   5.610 -1.2746  1.3663  1.8498
 5577TIP3    H238223   2.826   6.725   5.668  0.3402 -0.9964 -3.4024
 5578TIP3   OH238224   3.631   2.337  14.313  0.2650  0.4578  0.4571
 5578TIP3    H138225   3.687   2.310  14.386  0.5101  0.2368  0.1892
 5578TIP3    H238226   3.555   2.377  14.355  0.7724  1.0625  0.8219
 5579TIP3   OH238227   3.996   3.120  15.782 -0.1061  0.1360  0.1315
 5579TIP3    H138228   4.043   3.117  15.699 -1.2713 -0.5495 -0.5284
 5579TIP3    H238229   4.029   3.045  15.832  0.6394  0.5852  0.3257
 5580TIP3   OH238230   3.521   1.080   3.334 -0.7551  0.0384 -0.1610
 5580TIP3    H138231   3.589   1.051   3.395  1.0704  1.5024 -1.3786
 5580TIP3    H238232   3.439   1.063   3.380  0.5072  1.1045  2.7816
 5581TIP3   OH238233   6.612   3.534   2.564  0.4046  0.0738 -0.2703
 5581TIP3    H138234   6.669   3.511   2.638  0.2919  1.6806  0.3569
 5581TIP3    H238235   6.664   3.596   2.513 -0.0348  0.0033 -0.8105
 5582TIP3   OH238236   2.643   1.667  10.555  0.1943  0.7792 -0.2039
 5582TIP3    H138237   2.547   1.671  10.547  0.1679  0.1809 -0.2396
 5582TIP3    H238238   2.671   1.758  10.545 -0.4291  1.0794  0.6307
 5583TIP3   OH238239   3.953   0.856  15.053 -0.2323 -0.1198 -0.2442
 5583TIP3    H138240   3.980   0.947  15.042  0.9155 -0.4125  0.0068
 5583TIP3    H238241   3.867   0.861  15.095 -0.3494  0.8450 -0.5759
 5584TIP3   OH238242   3.187   1.597  15.175 -1.0779  0.4015  0.0802
 5584TIP3    H138243   3.268   1.647  15.171 -1.0963  0.3373 -1.9630
 5584TIP3    H238244   3.119   1.662  15.189 -0.7785  0.5457  0.9215
 5585TIP3   OH238245   1.288   4.252  11.146  0.1207  0.2910 -0.3747
 5585TIP3    H138246   1.249   4.223  11.229 -0.7262 -0.3075 -0.9635
 5585TIP3    H238247   1.381   4.234  11.156 -0.0408 -0.2527  0.2550
 5586TIP3   OH238248   2.313   5.744  12.488  0.4215  0.0479  0.6976
 5586TIP3    H138249   2.268   5.810  12.540 -0.2263 -0.9660  1.4802
 5586TIP3    H238250   2.406   5.756  12.507  0.3982  1.3781  0.0265
 5587TIP3   OH238251   3.375   6.381  15.160 -0.7168  0.6899 -0.0158
 5587TIP3    H138252   3.342   6.326  15.231 -0.5471 -1.4618 -1.5310
 5587TIP3    H238253   3.470   6.380  15.171 -0.6673  0.0620 -0.4583
 5588TIP3   OH238254   5.178   4.764   0.554  0.0351  0.2331  0.2362
 5588TIP3    H138255   5.239   4.695   0.529 -0.5551 -0.0591 -0.4278
 5588TIP3    H238256   5.146   4.800   0.471 -2.9783 -1.6547  0.4226
 5589TIP3   OH238257   0.959   5.507  13.814 -0.2683 -0.1367 -0.3179
 5589TIP3    H138258   0.907   5.588  13.813 -1.0585 -0.6349 -0.9649
 5589TIP3    H238259   1.013   5.513  13.735  1.1200  0.6535  0.6603
 5590TIP3   OH238260   1.177   2.645   5.540  0.1294  0.1587  0.1757
 5590TIP3    H138261   1.266   2.670   5.565  1.1034 -0.7161 -2.1352
 5590TIP3    H238262   1.175   2.550   5.552 -0.4378  0.1580  0.0719
 5591TIP3   OH238263   0.293   6.035   5.308  0.1512 -0.3814 -0.5339
 5591TIP3    H138264   0.256   6.123   5.303  0.2774 -0.2680  0.3516
 5591TIP3    H238265   0.331   6.030   5.396 -0.0795 -1.4064 -0.4839
 5592TIP3   OH238266   4.297   6.425   3.629  0.2428  0.1826  0.0265
 5592TIP3    H138267   4.210   6.448   3.598  0.6787  1.6547 -0.1664
 5592TIP3    H238268   4.297   6.329   3.631 -0.7805  0.1027 -1.6838
 5593TIP3   OH238269   2.682   5.277  12.743 -0.5152 -0.2042  0.0492
 5593TIP3    H138270   2.762   5.237  12.709  2.0651  3.0911  1.6522
 5593TIP3    H238271   2.629   5.293  12.665  0.6614 -1.8399 -1.1593
 5594TIP3   OH238272   4.313   0.631  11.157  0.1340  0.8527  0.0440
 5594TIP3    H138273   4.236   0.618  11.212  0.0234  0.6977 -0.1474
 5594TIP3    H238274   4.330   0.546  11.119  0.4001  0.8882  0.0819
 5595TIP3   OH238275   4.585   3.619   5.020  0.1537  0.5895 -0.5789
 5595TIP3    H138276   4.568   3.704   5.061  0.5179  0.2451  0.2864
 5595TIP3    H238277   4.665   3.588   5.060 -1.5236 -1.5515  1.3775
 5596TIP3   OH238278   6.532   4.756   3.617  0.5011  0.2986  0.5616
 5596TIP3    H138279   6.509   4.669   3.649 -0.6708  0.4544  0.1526
 5596TIP3    H238280   6.457   4.811   3.640  0.3643  0.7737 -0.9533
 5597TIP3   OH238281   5.475   4.310  12.517  0.2014 -0.1674 -0.5667
 5597TIP3    H138282   5.396   4.364  12.525  1.9092  2.9996 -2.7594
 5597TIP3    H238283   5.545   4.364  12.555  1.7245 -1.8194 -0.8827
 5598TIP3   OH238284   4.283   4.337   5.245  0.0520  0.3121 -0.4319
 5598TIP3    H138285   4.216   4.373   5.186  1.8072  1.9519 -1.5581
 5598TIP3    H238286   4.366   4.369   5.209  1.2965  0.3758  2.2674
 5599TIP3   OH238287   1.422   1.956   5.991 -0.4196  0.1085 -0.0513
 5599TIP3    H138288   1.352   1.975   5.930  0.0094 -0.2813 -0.6849
 5599TIP3    H238289   1.453   1.869   5.966  1.9233  1.2463 -1.4118
 5600TIP3   OH238290   5.913   5.531   3.375  0.3594 -0.5132  0.7220
 5600TIP3    H138291   5.874   5.466   3.433 -0.3013 -0.9503 -0.1993
 5600TIP3    H238292   5.926   5.485   3.292  1.4464  0.0551  0.5608
 5601TIP3   OH238293   6.578   5.683   2.949 -0.5524 -0.0754  0.3316
 5601TIP3    H138294   6.570   5.764   2.899 -0.9072  0.3302  1.0388
 5601TIP3    H238295   6.625   5.623   2.890  0.3563  0.8629  0.0685
 5602TIP3   OH238296   6.338   4.460   6.046  0.0639 -0.3594 -0.1411
 5602TIP3    H138297   6.330   4.368   6.073 -1.4060 -0.0540  0.5701
 5602TIP3    H238298   6.417   4.491   6.091 -0.1225 -0.9480  0.6235
 5603TIP3   OH238299   4.799   5.851   0.345  0.2886  0.1498 -0.5637
 5603TIP3    H138300   4.728   5.884   0.290 -0.4644  0.3892  0.5298
 5603TIP3    H238301   4.773   5.761   0.367  0.1226  0.3712  0.1637
 5604TIP3   OH238302   6.589   4.089  11.414  0.0063 -0.0241 -0.3098
 5604TIP3    H138303   6.598   4.141  11.335  0.2438  0.1376 -0.1792
 5604TIP3    H238304   6.679   4.068  11.439 -0.0140  0.8101  0.4977
 5605TIP3   OH238305   3.998   1.147  14.515 -0.1119 -0.2285  0.4348
 5605TIP3    H138306   3.997   1.234  14.474  1.3464 -0.6088 -0.4780
 5605TIP3    H238307   4.089   1.134  14.539  0.1911 -2.4411 -1.5600
 5606TIP3   OH238308   0.002   1.366  11.477  0.2081 -0.4468  0.2231
 5606TIP3    H138309  -0.060   1.295  11.460  0.5802 -0.7713  0.2086
 5606TIP3    H238310   0.017   1.364  11.571 -1.3464  0.9294  0.5306
 5607TIP3   OH238311   4.493   4.633   2.925 -0.4856  0.0030  0.0329
 5607TIP3    H138312   4.456   4.721   2.933  0.7394  0.5606 -0.1605
 5607TIP3    H238313   4.417   4.575   2.921 -1.3026  0.9392  1.3641
 5608TIP3   OH238314   0.733   4.977  15.441 -0.6947 -0.2565  0.1024
 5608TIP3    H138315   0.749   4.992  15.534 -1.0041  1.7139 -0.1191
 5608TIP3    H238316   0.789   4.903  15.419 -0.5350 -0.6913  1.8207
 5609TIP3   OH238317   6.605   1.432   4.264 -0.4792  0.7854  0.0228
 5609TIP3    H138318   6.547   1.436   4.341  0.4514 -0.3614  0.8033
 5609TIP3    H238319   6.690   1.405   4.299 -0.5030 -1.7453 -1.6232
 5610TIP3   OH238320   4.543   3.136   4.406 -0.3213 -0.3025 -0.1199
 5610TIP3    H138321   4.616   3.136   4.469 -0.6095  0.0524  0.2189
 5610TIP3    H238322   4.585   3.130   4.321  0.2200  1.8758 -0.0551
 5611TIP3   OH238323   1.417   1.153  15.141  0.6007 -0.0089 -0.6230
 5611TIP3    H138324   1.488   1.126  15.199  1.9150 -0.6338 -2.4343
 5611TIP3    H238325   1.337   1.130  15.189  1.5642  0.7876  1.5019
 5612TIP3   OH238326   2.517   0.895   5.587 -0.1459 -0.0911  0.5007
 5612TIP3    H138327   2.444   0.950   5.558 -0.7316  0.5370  2.8829
 5612TIP3    H238328   2.595   0.945   5.563 -0.6047  0.6552  0.5265
 5613TIP3   OH238329   1.831   6.751   5.569 -0.5417 -0.1222  0.3806
 5613TIP3    H138330   1.802   6.724   5.656  0.8802 -2.6960  0.1605
 5613TIP3    H238331   1.887   6.827   5.586 -0.4334 -0.4612  1.7172
 5614TIP3   OH238332   2.381   3.535   4.531 -0.1332 -0.3859  0.0937
 5614TIP3    H138333   2.455   3.593   4.510 -0.6400 -0.4659 -2.1226
 5614TIP3    H238334   2.415   3.479   4.601  0.0674  3.1131  3.0789
 5615TIP3   OH238335   1.538   1.652  12.585  0.3947 -0.1751 -0.3871
 5615TIP3    H138336   1.558   1.737  12.547  1.5491 -0.5426 -0.6184
 5615TIP3    H238337   1.548   1.665  12.680  2.1455 -0.4236 -0.5034
 5616TIP3   OH238338   6.652   1.161  14.215 -0.2359  0.4509 -0.5033
 5616TIP3    H138339   6.614   1.074  14.210  0.1457  0.2908 -0.6479
 5616TIP3    H238340   6.743   1.147  14.242 -0.3478  0.8485  0.0866
 5617TIP3   OH238341   6.611   2.242   3.697 -0.2803 -0.5675  0.5121
 5617TIP3    H138342   6.619   2.328   3.656  0.5569 -0.0678  1.6678
 5617TIP3    H238343   6.693   2.230   3.745 -0.7543 -1.6250  1.0979
 5618TIP3   OH238344   1.168   5.024   6.186 -0.0072  0.3800 -0.1971
 5618TIP3    H138345   1.145   5.009   6.278  1.5837 -0.9960  0.0292
 5618TIP3    H238346   1.088   5.005   6.138 -0.3710 -0.7662  0.7869
 5619TIP3   OH238347   2.483   0.309   2.840 -0.7178 -0.6602  0.1309
 5619TIP3    H138348   2.566   0.354   2.822  0.0232 -1.7264  0.7415
 5619TIP3    H238349   2.480   0.239   2.775 -0.5537 -1.3403  0.8423
 5620TIP3   OH238350   1.991   1.491  14.484  0.1313  0.0231  0.4646
 5620TIP3    H138351   1.918   1.543  14.517 -0.1162 -1.9244  3.2972
 5620TIP3    H238352   2.068   1.546  14.499 -0.3316  0.4260  1.4582
 5621TIP3   OH238353   6.219   4.939  12.582  0.1251  0.1533 -0.0185
 5621TIP3    H138354   6.295   4.975  12.629  0.0829  0.8600 -0.4789
 5621TIP3    H238355   6.170   4.891  12.649  0.2356  0.8764  0.5937
 5622TIP3   OH238356   4.377   5.945  14.659  0.6474 -0.1901 -0.6216
 5622TIP3    H138357   4.462   5.962  14.618  0.5675  1.5639 -0.1332
 5622TIP3    H238358   4.313   5.953  14.588  0.7021  0.7626 -0.5786
 5623TIP3   OH238359   2.224   2.026   4.984 -0.1298 -0.1449 -0.5211
 5623TIP3    H138360   2.201   2.104   5.034  0.4866  0.2578 -0.8465
 5623TIP3    H238361   2.233   1.957   5.050 -1.0536 -0.0378 -0.2750
 5624TIP3   OH238362   0.638   4.041  16.444  0.1398  0.3046  0.1763
 5624TIP3    H138363   0.682   3.971  16.397 -0.3932 -0.4128  0.7056
 5624TIP3    H238364   0.647   4.118  16.388  0.7288 -0.1879 -0.4192
 5625TIP3   OH238365   0.878   2.995  16.516 -0.0086  0.0733  0.2074
 5625TIP3    H138366   0.828   3.066  16.475 -1.3275 -2.0162 -2.0912
 5625TIP3    H238367   0.965   3.002  16.478 -0.5647 -0.3960 -1.2214
 5626TIP3   OH238368   6.341   6.102   2.596  0.3151 -0.5216  0.3540
 5626TIP3    H138369   6.348   6.078   2.688 -0.3302  1.7609  1.0820
 5626TIP3    H238370   6.262   6.156   2.592 -0.8227 -2.2119 -1.9591
 5627TIP3   OH238371   2.322   6.450  15.254  0.3583  0.0842 -0.1499
 5627TIP3    H138372   2.239   6.498  15.260  0.3139  0.0078 -0.1468
 5627TIP3    H238373   2.375   6.501  15.193 -0.6149 -1.1639 -2.1669
 5628TIP3   OH238374   5.792   4.059   1.544  0.3966  0.5192 -0.1361
 5628TIP3    H138375   5.706   4.033   1.509  1.6679 -2.2469 -1.5868
 5628TIP3    H238376   5.787   4.154   1.552 -2.6627  0.4971 -0.4908
 5629TIP3   OH238377   0.045   1.495  14.633 -0.3644 -0.1348 -0.7235
 5629TIP3    H138378  -0.030   1.546  14.663 -0.8741 -0.7601 -0.9175
 5629TIP3    H238379   0.116   1.559  14.625 -0.7348  0.3663 -0.0333
 5630TIP3   OH238380   3.668   2.806  16.091  0.0114 -0.1038 -0.6216
 5630TIP3    H138381   3.677   2.838  16.002 -0.2896 -0.8698 -0.9365
 5630TIP3    H238382   3.757   2.787  16.120  0.3067  1.8627 -0.0822
 5631TIP3   OH238383   6.215   2.992  15.693 -0.0321  0.3887 -0.0529
 5631TIP3    H138384   6.275   2.920  15.673  0.0167  0.1568  0.8863
 5631TIP3    H238385   6.129   2.950  15.695 -0.2156  0.6771 -1.1661
 5632TIP3   OH238386   5.891   4.070  16.525 -0.1761 -0.3808 -0.1743
 5632TIP3    H138387   5.926   3.999  16.471 -1.0965 -1.4035  0.5130
 5632TIP3    H238388   5.805   4.037  16.554 -1.2967  1.6232 -1.0276
 5633TIP3   OH238389   5.660   3.368  13.154  0.9365 -0.9493  0.0149
 5633TIP3    H138390   5.705   3.445  13.120 -0.2349 -1.6606 -3.5540
 5633TIP3    H238391   5.720   3.333  13.221  4.1346 -0.0328 -2.1509
 5634TIP3   OH238392   2.318   0.091  14.652  0.3325  0.7362 -0.3055
 5634TIP3    H138393   2.363   0.045  14.582 -0.9910 -1.3331  0.1283
 5634TIP3    H238394   2.246   0.137  14.608 -0.4388 -0.4817 -0.3415
 5635TIP3   OH238395   2.059   4.559  16.791  0.0126 -0.1728  0.9637
 5635TIP3    H138396   2.090   4.478  16.832 -0.8179  0.2706  2.5487
 5635TIP3    H238397   2.123   4.625  16.815  1.7860 -0.6519 -1.9738
 5636TIP3   OH238398   4.524   3.100   4.746  0.6615 -0.3339  0.2216
 5636TIP3    H138399   4.541   3.090   4.839 -1.0030  0.9249  0.7132
 5636TIP3    H238400   4.539   3.193   4.729 -3.2228  0.4682  0.2894
 5637TIP3   OH238401   0.447   1.419  14.901 -0.5893 -0.3177  0.4590
 5637TIP3    H138402   0.359   1.414  14.940 -0.3151  2.5395  1.6772
 5637TIP3    H238403   0.506   1.414  14.976  0.1761  0.4746 -0.0862
 5638TIP3   OH238404   5.210   4.126  16.821 -0.5501 -0.3097 -0.3001
 5638TIP3    H138405   5.213   4.221  16.811  1.0173 -0.2573  0.4332
 5638TIP3    H238406   5.140   4.111  16.885 -0.6241  0.3731 -0.2144
 5639TIP3   OH238407   3.526   3.456   1.702  0.4689  0.5066  0.2624
 5639TIP3    H138408   3.540   3.402   1.780 -1.4054 -1.3519 -0.5766
 5639TIP3    H238409   3.436   3.487   1.711  0.2281  0.2695 -1.1298
 5640TIP3   OH238410   6.372   4.232  15.753 -0.5729  0.1446 -0.1014
 5640TIP3    H138411   6.363   4.172  15.678  1.1401 -0.4283  0.1214
 5640TIP3    H238412   6.453   4.206  15.795 -2.4085 -0.8845  3.1857
 5641TIP3   OH238413   2.104   1.056  17.209 -0.2790  0.0881 -0.6876
 5641TIP3    H138414   2.078   1.144  17.185 -0.4298  0.4304  0.6283
 5641TIP3    H238415   2.021   1.009  17.223 -0.2334  0.3680  0.7011
 5642TIP3   OH238416   4.120   5.439  12.988 -0.4395 -0.0403 -0.2105
 5642TIP3    H138417   4.123   5.374  13.058 -2.1639 -1.1141 -1.0693
 5642TIP3    H238418   4.146   5.391  12.910 -0.6623  0.5814 -0.6729
 5643TIP3   OH238419   0.345   6.648  17.253 -0.7825  0.0954 -0.2089
 5643TIP3    H138420   0.347   6.554  17.239 -0.4292  0.2848 -1.6689
 5643TIP3    H238421   0.437   6.672  17.265 -0.9249  0.1849  0.7494
 5644TIP3   OH238422   6.221   5.535  16.376  0.1413 -0.1197 -0.7331
 5644TIP3    H138423   6.182   5.573  16.297  0.2579  2.8869  0.4937
 5644TIP3    H238424   6.272   5.460  16.345 -3.1199 -1.6412 -2.9212
 5645TIP3   OH238425   4.005   5.659   5.826  0.3763  0.6307  0.3356
 5645TIP3    H138426   3.986   5.752   5.840 -2.3271  0.3274 -0.6268
 5645TIP3    H238427   3.988   5.619   5.911  2.6260  1.0754  1.0642
 5646TIP3   OH238428   6.196   4.241   4.456  0.1191 -0.0362  0.0333
 5646TIP3    H138429   6.107   4.234   4.490  0.2913 -0.5673  0.4021
 5646TIP3    H238430   6.186   4.262   4.364 -0.3941 -0.2911  0.0300
 5647TIP3   OH238431   1.391   3.505   3.621 -0.4443  0.4501 -0.0126
 5647TIP3    H138432   1.419   3.417   3.596 -0.0068  0.5628  0.0736
 5647TIP3    H238433   1.376   3.499   3.716  0.2839  0.6486  0.1198
 5648TIP3   OH238434   4.166   5.761   1.223  0.1887  0.4670  0.1709
 5648TIP3    H138435   4.214   5.694   1.175 -1.4355  1.3425 -2.9592
 5648TIP3    H238436   4.222   5.839   1.219  0.3388  0.3648  0.2783
 5649TIP3   OH238437   3.134   2.345  16.487  0.0718 -0.2919 -0.3542
 5649TIP3    H138438   3.193   2.394  16.544  0.6939 -0.4039 -0.8860
 5649TIP3    H238439   3.082   2.292  16.547 -0.0858  0.4490  0.1774
 5650TIP3   OH238440   0.225   5.183   2.666 -0.1515 -0.1419 -0.1670
 5650TIP3    H138441   0.300   5.242   2.668 -0.5524  0.3629  0.3695
 5650TIP3    H238442   0.208   5.167   2.573  1.4579 -1.3597 -0.2921
 5651TIP3   OH238443   0.069   6.804   0.491  0.0238 -0.7019 -1.2817
 5651TIP3    H138444   0.100   6.851   0.414 -0.7001  0.3568 -0.9482
 5651TIP3    H238445  -0.023   6.828   0.499  0.3380  0.1078  0.5387
 5652TIP3   OH238446   5.705   1.121   2.602 -0.2936  0.0737  0.0495
 5652TIP3    H138447   5.622   1.074   2.599 -0.2632 -0.1024 -4.0676
 5652TIP3    H238448   5.703   1.179   2.526  2.7939  1.0936  0.5848
 5653TIP3   OH238449   1.328   1.964   1.018  0.2783  0.1124  0.4990
 5653TIP3    H138450   1.257   1.905   1.039 -2.4612  2.4330 -1.4417
 5653TIP3    H238451   1.375   1.920   0.947 -1.6671  0.1361 -0.8810
 5654TIP3   OH238452   1.744   6.149  14.083 -0.1187 -0.4497  0.3658
 5654TIP3    H138453   1.780   6.192  14.005 -0.7858 -0.0730  0.2534
 5654TIP3    H238454   1.794   6.187  14.156  0.0488 -0.3064  0.1791
 5655TIP3   OH238455   2.499   0.314   0.645 -0.1792 -0.5098  0.6837
 5655TIP3    H138456   2.411   0.298   0.682 -0.0747 -2.6151  0.1844
 5655TIP3    H238457   2.489   0.296   0.551  0.6645 -0.2702  0.5419
 5656TIP3   OH238458   2.425   4.599  16.877  0.2020  0.3049 -0.4121
 5656TIP3    H138459   2.447   4.688  16.847  0.0367  0.7426  0.7019
 5656TIP3    H238460   2.472   4.591  16.960 -2.2953  0.5693  1.1262
 5657TIP3   OH238461   6.396   3.390  15.258  0.3369  0.6222 -0.6695
 5657TIP3    H138462   6.368   3.408  15.168  1.9148 -1.1131 -1.5711
 5657TIP3    H238463   6.384   3.474  15.303 -1.2051  1.3423 -2.2744
 5658TIP3   OH238464   3.801   1.756  17.226  0.9795  0.6319 -0.5574
 5658TIP3    H138465   3.866   1.811  17.269  1.4773 -1.1552  1.1093
 5658TIP3    H238466   3.729   1.750  17.289  0.1811  0.7778 -1.4440
 5659TIP3   OH238467   6.355   2.700  11.892 -0.3903  0.4772  0.2802
 5659TIP3    H138468   6.321   2.776  11.845  0.5177 -0.1361 -1.4826
 5659TIP3    H238469   6.444   2.725  11.917  0.2598 -0.2829 -1.1404
 5660TIP3   OH238470   0.506   3.944   3.740 -0.1120 -1.0556 -0.2898
 5660TIP3    H138471   0.565   3.962   3.812 -0.4565  1.0576 -0.4766
 5660TIP3    H238472   0.564   3.930   3.664  0.2121  1.0051 -0.4755
 5661TIP3   OH238473   2.280   4.688   2.675  0.0988  0.2239 -0.3860
 5661TIP3    H138474   2.305   4.743   2.601  0.1590  0.6929 -0.0169
 5661TIP3    H238475   2.215   4.739   2.722 -0.0868 -0.1585 -0.2238
 5662TIP3   OH238476   5.171   1.436  12.740 -0.4463 -0.3285 -0.0296
 5662TIP3    H138477   5.205   1.522  12.765 -0.3128 -0.1884 -0.6791
 5662TIP3    H238478   5.120   1.408  12.815  0.4938 -0.2149  0.6725
 5663TIP3   OH238479   0.962   0.647   1.240 -0.2909  0.3273 -0.2900
 5663TIP3    H138480   1.033   0.706   1.265 -1.6530  1.5313  0.9309
 5663TIP3    H238481   0.994   0.560   1.262  0.4842  0.9258  1.0963
 5664TIP3   OH238482   3.472   1.521   1.698  0.1318 -1.2016 -0.2180
 5664TIP3    H138483   3.537   1.590   1.687  0.4284 -1.6658 -1.5598
 5664TIP3    H238484   3.521   1.450   1.742 -0.1467 -0.6380  1.0615
 5665TIP3   OH238485   6.270   3.477   0.035  0.6482  0.1793  0.7691
 5665TIP3    H138486   6.274   3.551  -0.025 -0.8497  0.5018  1.0230
 5665TIP3    H238487   6.349   3.426   0.017  1.3953  1.5188  0.1824
 5666TIP3   OH238488   6.192   1.801   1.632 -0.3378 -0.5067  0.3563
 5666TIP3    H138489   6.104   1.830   1.610  0.2859  1.8477  0.6444
 5666TIP3    H238490   6.244   1.819   1.553  0.1119 -0.8528  0.5654
 5667TIP3   OH238491   0.848   0.170   0.516 -0.8585 -0.2068 -0.2948
 5667TIP3    H138492   0.792   0.134   0.585 -0.8996 -0.8003 -0.6315
 5667TIP3    H238493   0.913   0.222   0.563 -0.6551 -0.9218  0.2260
 5668TIP3   OH238494   5.292   4.255  14.341  0.6735  0.7933 -0.1394
 5668TIP3    H138495   5.220   4.251  14.278  2.0141 -0.6701 -1.7138
 5668TIP3    H238496   5.370   4.269  14.287  2.0844 -2.0481  0.9315
 5669TIP3   OH238497   6.429   5.770   4.192 -0.1861 -0.6658  0.0789
 5669TIP3    H138498   6.335   5.768   4.173 -0.2348 -0.4944  0.2981
 5669TIP3    H238499   6.470   5.743   4.110 -0.3539  1.1054 -0.6253
 5670TIP3   OH238500   0.517   4.060   1.334 -0.6074  0.3978 -0.0435
 5670TIP3    H138501   0.502   4.126   1.267 -0.1677  2.0404  1.4188
 5670TIP3    H238502   0.441   4.003   1.328 -1.1737  1.2189 -1.1042
 5671TIP3   OH238503   6.483   0.611  14.254 -0.1291  0.5341  0.5956
 5671TIP3    H138504   6.573   0.591  14.230  0.0270 -0.0351  1.6106
 5671TIP3    H238505   6.483   0.614  14.350 -1.5047 -1.1267  0.7118
 5672TIP3   OH238506   1.131   6.228   1.811 -0.3798 -0.4719 -0.6695
 5672TIP3    H138507   1.166   6.177   1.738  0.8167  0.7596 -0.9920
 5672TIP3    H238508   1.158   6.318   1.793 -1.6966  0.1628  0.3306
 5673TIP3   OH238509   4.006   1.616   1.027 -0.6838  0.2853 -0.1700
 5673TIP3    H138510   4.011   1.634   0.933 -3.1712  0.4765 -0.3331
 5673TIP3    H238511   3.922   1.572   1.039 -1.0423  1.4187  2.1200
 5674TIP3   OH238512   0.670   5.987   2.180  0.3081  0.0552 -0.2483
 5674TIP3    H138513   0.629   6.073   2.171 -1.1141 -0.5430  0.1008
 5674TIP3    H238514   0.708   5.988   2.268  0.6240  0.4460 -0.3859
 5675TIP3   OH238515   3.155   4.493  17.116 -0.2502 -0.1230 -0.1859
 5675TIP3    H138516   3.223   4.559  17.104 -0.4853  0.5989  1.9984
 5675TIP3    H238517   3.110   4.519  17.197 -1.6609 -1.8382 -0.3578
 5676TIP3   OH238518   5.127   6.707  13.226  0.4630  0.1209  0.1281
 5676TIP3    H138519   5.162   6.671  13.144  0.4642 -1.1559  0.6653
 5676TIP3    H238520   5.083   6.633  13.268  0.3290  0.7941  1.2201
 5677TIP3   OH238521   3.402   6.231  13.061  0.2259 -0.2555  0.0404
 5677TIP3    H138522   3.376   6.255  13.150 -0.3368  1.3935 -0.5176
 5677TIP3    H238523   3.380   6.308  13.009  3.5014  0.1350 -1.0051
 5678TIP3   OH238524   5.562   3.030  11.642  0.0993 -0.3108  0.2982
 5678TIP3    H138525   5.641   2.989  11.606 -0.3661  0.4225 -1.7028
 5678TIP3    H238526   5.492   3.003  11.584 -0.4823  1.9932 -0.1793
 5679TIP3   OH238527   5.754   2.987   1.586 -0.2987  0.7295  0.0238
 5679TIP3    H138528   5.693   3.032   1.644 -0.3933 -0.4608  0.8919
 5679TIP3    H238529   5.805   2.930   1.643  0.0302 -0.0244 -0.9757
 5680TIP3   OH238530   5.348   0.433   0.044  0.3582 -0.3163  0.1280
 5680TIP3    H138531   5.371   0.524   0.024 -0.1881  0.2333  1.8321
 5680TIP3    H238532   5.432   0.389   0.058  0.5953  0.1235  0.0897
 5681TIP3   OH238533   3.334   2.852  16.172 -0.0970 -0.2035 -0.3644
 5681TIP3    H138534   3.266   2.837  16.106 -1.3034  0.3805  0.6921
 5681TIP3    H238535   3.403   2.789  16.150 -1.1067 -1.0286 -1.3138
 5682TIP3   OH238536   3.969   5.768   2.312 -0.8386 -0.1395  0.2488
 5682TIP3    H138537   3.940   5.825   2.383 -0.9210  0.6605 -0.4190
 5682TIP3    H238538   4.056   5.740   2.338  0.0723  1.9546 -0.3646
 5683TIP3   OH238539   3.111   0.031   0.933  0.1971  0.4838 -0.2681
 5683TIP3    H138540   3.136   0.116   0.967  1.3772  0.6897 -1.5634
 5683TIP3    H238541   3.125  -0.029   1.006  0.0970  1.2831  0.4172
 5684TIP3   OH238542   1.394   2.790   5.917  0.1229  0.0178  0.0979
 5684TIP3    H138543   1.412   2.704   5.956  0.5030 -0.1177 -0.3540
 5684TIP3    H238544   1.415   2.853   5.986 -0.0006 -0.2467  0.3795
 5685TIP3   OH238545   6.203   5.787  15.051 -0.9039 -0.4295  0.1014
 5685TIP3    H138546   6.245   5.804  15.135 -1.9548  0.5036  0.4535
 5685TIP3    H238547   6.276   5.773  14.990 -0.1037  0.2800  0.8699
 5686TIP3   OH238548   4.072   3.093  14.663  0.6646  0.0249 -0.3358
 5686TIP3    H138549   4.160   3.055  14.669  0.1242 -1.1196  0.7986
 5686TIP3    H238550   4.082   3.181  14.701  1.3512 -0.0432 -0.3411
 5687TIP3   OH238551   5.401   0.764  16.898  0.0143 -0.4411  0.0595
 5687TIP3    H138552   5.423   0.825  16.827 -0.0661 -0.3214  0.1393
 5687TIP3    H238553   5.486   0.737  16.933  0.1061 -1.3799 -0.8309
 5688TIP3   OH238554   1.599   1.228   6.215 -0.0763 -0.0216  0.2469
 5688TIP3    H138555   1.536   1.171   6.171  1.6851 -1.6271 -0.3018
 5688TIP3    H238556   1.564   1.237   6.304 -1.1097 -0.8040 -0.0623
 5689TIP3   OH238557   1.514   1.564   1.748  0.3822 -0.2532 -0.2267
 5689TIP3    H138558   1.528   1.612   1.666  0.1150 -1.8726 -1.2630
 5689TIP3    H238559   1.422   1.578   1.769  0.2641 -0.4482 -0.6128
 5690TIP3   OH238560   1.016   5.527  15.994  0.2357 -0.0379 -0.1320
 5690TIP3    H138561   0.924   5.525  15.971 -0.2488  0.1157  1.6149
 5690TIP3    H238562   1.032   5.442  16.037  0.4866  0.5220  0.9296
 5691TIP3   OH238563   4.779   2.532  12.578 -0.6597  0.3022  0.5655
 5691TIP3    H138564   4.745   2.502  12.663  3.2445 -1.6843  1.7049
 5691TIP3    H238565   4.745   2.468  12.515 -0.4422 -0.6214  1.3520
 5692TIP3   OH238566   2.040   6.088  14.752 -0.5271 -0.1487 -0.1911
 5692TIP3    H138567   2.043   6.167  14.806 -0.3936  2.1446 -3.3045
 5692TIP3    H238568   2.131   6.076  14.723 -0.0817 -2.8177  1.8275
 5693TIP3   OH238569   5.792   4.995  16.837  0.4832 -0.1457  0.2767
 5693TIP3    H138570   5.826   4.906  16.846  0.0228 -0.5105 -1.2625
 5693TIP3    H238571   5.734   5.006  16.912  0.0905 -1.3764  0.1822
 5694TIP3   OH238572   3.195   1.108  11.855  0.3060  0.5306 -0.4324
 5694TIP3    H138573   3.284   1.135  11.831 -0.0991  1.3777 -1.0596
 5694TIP3    H238574   3.143   1.189  11.847 -0.4882  0.0737  0.0549
 5695TIP3   OH238575   3.850   6.329   1.708 -0.6771  0.3446 -0.2373
 5695TIP3    H138576   3.823   6.420   1.710 -1.3754  0.1423  1.6724
 5695TIP3    H238577   3.943   6.332   1.686 -0.3359  1.6321  1.2223
 5696TIP3   OH238578   5.343   4.407  17.206 -0.1719 -0.0622 -0.1756
 5696TIP3    H138579   5.251   4.381  17.203  0.3743 -2.1125 -1.3665
 5696TIP3    H238580   5.389   4.327  17.231  1.3903  0.5803 -0.8620
 5697TIP3   OH238581   1.063   0.183  12.069  0.2103  0.6182 -0.7361
 5697TIP3    H138582   0.987   0.150  12.118  0.0463 -0.2286 -1.5273
 5697TIP3    H238583   1.123   0.216  12.136 -0.4887  0.5197 -0.0476
 5698TIP3   OH238584   2.844   1.342  12.951  0.7635  0.2902 -0.0121
 5698TIP3    H138585   2.854   1.353  12.856  1.0084  1.6274  0.1564
 5698TIP3    H238586   2.920   1.289  12.977  0.7669  0.0279 -0.5334
 5699TIP3   OH238587   4.196   2.908   3.689 -0.1375  0.5719  1.0028
 5699TIP3    H138588   4.170   2.908   3.781  0.6212 -3.2388  1.4091
 5699TIP3    H238589   4.284   2.947   3.689 -0.7708  2.0506  1.6028
 5700TIP3   OH238590   1.394   0.605  16.632  0.3945 -0.4316  0.7386
 5700TIP3    H138591   1.438   0.619  16.548 -2.1070 -1.1623 -0.7944
 5700TIP3    H238592   1.399   0.511  16.646  0.3829 -0.3684  1.1821
 5701TIP3   OH238593   4.030   6.617   1.486  0.6369 -0.2704  0.0127
 5701TIP3    H138594   4.091   6.581   1.421  0.0591  1.7784 -1.7705
 5701TIP3    H238595   4.087   6.650   1.555  1.2652 -2.5395  0.6736
 5702TIP3   OH238596   4.443   1.866  11.775  0.6277  0.4154 -0.3288
 5702TIP3    H138597   4.373   1.802  11.788  1.1009 -0.0247  0.1177
 5702TIP3    H238598   4.514   1.836  11.833  0.2819  2.2321  1.1229
 5703TIP3   OH238599   6.152   2.025   3.252  0.3925 -0.5368 -0.7683
 5703TIP3    H138600   6.097   1.949   3.267  1.0504 -0.8855 -0.0609
 5703TIP3    H238601   6.100   2.081   3.194 -0.7113 -0.8400 -0.1035
 5704TIP3   OH238602   3.328   3.723  15.487 -0.2376 -0.1989  0.1043
 5704TIP3    H138603   3.257   3.681  15.438  0.2366 -1.7613  0.6887
 5704TIP3    H238604   3.377   3.773  15.421 -0.1395 -1.5163 -0.8689
 5705TIP3   OH238605   5.463   0.668   6.468  1.0536  0.1272  0.3742
 5705TIP3    H138606   5.452   0.587   6.418  1.9351 -0.0991  0.5303
 5705TIP3    H238607   5.374   0.697   6.486  0.7208 -0.9143  0.4809
 5706TIP3   OH238608   3.094   4.093   3.089  0.3941  0.0555 -0.3647
 5706TIP3    H138609   3.044   4.012   3.103 -0.3236  0.3337 -1.1790
 5706TIP3    H238610   3.045   4.138   3.020  1.3654  0.7033 -0.6351
 5707TIP3   OH238611   4.526   5.395   2.544  0.7955  0.5059  0.0356
 5707TIP3    H138612   4.449   5.393   2.601  1.3213 -1.2342  0.7690
 5707TIP3    H238613   4.526   5.309   2.502  2.6838  0.2047  0.5650
 5708TIP3   OH238614   0.640   0.428   4.987  0.3149 -0.1672  0.2505
 5708TIP3    H138615   0.627   0.439   5.081  2.6978  0.7865  0.5460
 5708TIP3    H238616   0.734   0.444   4.974 -0.1082  0.6366 -2.4233
 5709TIP3   OH238617   5.570   4.384  13.811 -0.3350  0.1781  0.2537
 5709TIP3    H138618   5.612   4.423  13.734  0.4857 -0.1842  0.5042
 5709TIP3    H238619   5.532   4.303  13.780 -0.2616  0.1783  0.1625
 5710TIP3   OH238620   5.580   6.063   5.741 -0.0153 -0.2783  0.7781
 5710TIP3    H138621   5.575   5.973   5.709  1.6983 -1.7651  4.2265
 5710TIP3    H238622   5.650   6.103   5.688  1.3912 -2.0045  1.2310
 5711TIP3   OH238623   4.386   2.886   1.544  0.2146  0.3327  0.4317
 5711TIP3    H138624   4.304   2.933   1.529  0.9501  1.9686  1.2196
 5711TIP3    H238625   4.389   2.819   1.476 -1.3406  0.8381 -0.1663
 5712TIP3   OH238626   5.662   3.767  11.600  0.0192  0.1860  0.1892
 5712TIP3    H138627   5.601   3.695  11.614  0.6227 -1.0474 -2.8359
 5712TIP3    H238628   5.734   3.728  11.552 -0.0620  2.9279 -2.4267
 5713TIP3   OH238629   6.024   5.190  14.956  0.2222 -0.1268  0.6833
 5713TIP3    H138630   6.042   5.159  15.045  0.7854 -1.7923  0.0377
 5713TIP3    H238631   6.077   5.133  14.900 -1.2037 -0.0772 -0.8085
 5714TIP3   OH238632   3.052   4.531  15.493 -0.4631 -0.4971  0.1349
 5714TIP3    H138633   2.957   4.543  15.490 -0.4994  0.4841  2.6879
 5714TIP3    H238634   3.064   4.447  15.537 -0.1445 -0.1532  0.7047
 5715TIP3   OH238635   0.682   3.856   3.531  0.0002 -0.1874 -0.7346
 5715TIP3    H138636   0.749   3.912   3.493 -0.1225  1.2420  1.0126
 5715TIP3    H238637   0.732   3.793   3.584  0.0310  0.0452 -0.4832
 5716TIP3   OH238638   4.028   4.021   4.526  0.3689 -0.5759  0.1818
 5716TIP3    H138639   3.949   4.073   4.544  0.9783  0.4687 -0.0921
 5716TIP3    H238640   4.055   4.048   4.439  0.8681 -1.1490  0.1552
 5717TIP3   OH238641   0.925   6.161   5.919 -0.2658 -0.7641 -0.4912
 5717TIP3    H138642   0.965   6.248   5.907 -1.7237 -0.1793 -1.3804
 5717TIP3    H238643   0.868   6.171   5.995 -1.7705 -0.3880 -1.6112
 5718TIP3   OH238644   5.376   3.358  14.745  0.1367  0.2184  0.6892
 5718TIP3    H138645   5.465   3.389  14.760  0.8101 -1.4858  0.4218
 5718TIP3    H238646   5.322   3.411  14.804  1.2241  1.7247  0.3833
 5719TIP3   OH238647   0.200   0.454   3.937 -0.2231 -0.1257 -0.0386
 5719TIP3    H138648   0.188   0.514   3.863  0.2226  0.0125  0.0001
 5719TIP3    H238649   0.117   0.407   3.943 -0.0152 -0.6576 -1.0848
 5720TIP3   OH238650   4.222   3.025  17.034  0.3997  0.2692  0.1899
 5720TIP3    H138651   4.297   3.082  17.017  0.4116  0.6818  1.4946
 5720TIP3    H238652   4.151   3.085  17.056 -0.3680 -0.1147 -1.1682
 5721TIP3   OH238653   0.823   3.844   0.127  0.3406  0.6648 -0.2011
 5721TIP3    H138654   0.763   3.811   0.195  1.5187 -0.9371  0.1220
 5721TIP3    H238655   0.770   3.848   0.048 -0.9409  2.1193  0.6715
 5722TIP3   OH238656   2.754   4.919   0.695 -0.2473 -0.3938 -0.5329
 5722TIP3    H138657   2.774   4.835   0.653 -3.2824 -0.7317 -1.4952
 5722TIP3    H238658   2.664   4.910   0.726  0.5289  1.2569  2.6774
 5723TIP3   OH238659   4.697   0.666   6.026 -0.6054  0.0753 -0.2876
 5723TIP3    H138660   4.698   0.660   6.122 -1.8578 -1.5519 -0.3336
 5723TIP3    H238661   4.619   0.719   6.007  0.0295  0.9911 -0.4195
 5724TIP3   OH238662   2.181   3.026  12.459  0.8973  0.4183  0.0487
 5724TIP3    H138663   2.208   2.934  12.462  1.4689  0.5483 -0.9249
 5724TIP3    H238664   2.093   3.024  12.421  0.4407  0.1922  1.0778
 5725TIP3   OH238665   2.960   1.355   4.507 -0.0695 -0.3983  0.1534
 5725TIP3    H138666   3.056   1.358   4.506 -0.0087 -1.7337 -0.7696
 5725TIP3    H238667   2.937   1.367   4.599  1.0028 -0.3390  0.4266
 5726TIP3   OH238668   0.010   3.627  11.844 -0.4969  0.3866  0.2396
 5726TIP3    H138669   0.040   3.703  11.793  0.4776  0.4444  0.8780
 5726TIP3    H238670  -0.085   3.629  11.836 -0.3858 -0.6229 -3.0781
 5727TIP3   OH238671   5.086   4.246  17.157 -0.4774 -0.6037 -0.4939
 5727TIP3    H138672   4.995   4.255  17.184  0.0711  0.0637  1.3162
 5727TIP3    H238673   5.108   4.155  17.178 -0.4940 -0.5169 -0.0857
 5728TIP3   OH238674   3.028   3.072  14.082 -0.0693  0.0436  0.2233
 5728TIP3    H138675   2.941   3.095  14.113 -0.1922 -0.4271  0.2428
 5728TIP3    H238676   3.079   3.153  14.088 -0.3805  0.2082  0.6435
 5729TIP3   OH238677   4.761   6.505   0.917 -0.0228 -0.6930  0.0003
 5729TIP3    H138678   4.724   6.458   0.843 -0.9122 -0.9782  0.6021
 5729TIP3    H238679   4.720   6.592   0.913 -0.5811 -0.9225  0.5169
 5730TIP3   OH238680   5.717   3.927   3.762  0.0162  0.0446  0.0606
 5730TIP3    H138681   5.622   3.944   3.764  0.1324  1.5020 -2.6038
 5730TIP3    H238682   5.730   3.875   3.683  1.4901  0.2226  0.1616
 5731TIP3   OH238683   3.059   4.745   3.181 -0.1894 -0.2321  1.0092
 5731TIP3    H138684   3.048   4.836   3.207  1.5467  0.0793  0.7505
 5731TIP3    H238685   3.136   4.715   3.229  0.1694 -1.0917 -0.0500
 5732TIP3   OH238686   3.925   5.938   4.360 -0.2191 -0.2321  0.5342
 5732TIP3    H138687   3.919   6.030   4.336  1.6104 -0.1099  0.3859
 5732TIP3    H238688   3.896   5.890   4.282 -0.2875  0.2132  0.2861
 5733TIP3   OH238689   3.138   2.023   4.793 -0.7271 -0.1630 -0.4975
 5733TIP3    H138690   3.138   2.028   4.697 -0.1214 -0.7092 -0.5357
 5733TIP3    H238691   3.231   2.023   4.817 -0.8761  0.0923  0.0980
 5734TIP3   OH238692   0.626   2.877   4.801 -0.5774 -0.3690  0.4064
 5734TIP3    H138693   0.589   2.821   4.732  0.7597  1.4030 -1.9068
 5734TIP3    H238694   0.717   2.848   4.808 -0.4391  0.1373  0.7179
 5735TIP3   OH238695   6.062   1.200  14.183  0.0419  0.0335 -0.4749
 5735TIP3    H138696   6.047   1.209  14.089 -1.7709  1.0234 -0.1483
 5735TIP3    H238697   6.138   1.255  14.201  0.0524  0.3009 -1.2901
 5736TIP3   OH238698   5.195   5.998  16.781 -0.4393 -0.0784 -0.1900
 5736TIP3    H138699   5.225   6.009  16.871 -3.5457 -2.1550  1.2629
 5736TIP3    H238700   5.258   5.937  16.742  1.7202  1.8936  0.0257
 5737TIP3   OH238701   4.949   1.748  13.692 -0.0813  0.4758 -0.0580
 5737TIP3    H138702   4.886   1.718  13.757 -0.6865  1.3591 -0.2122
 5737TIP3    H238703   5.032   1.706  13.716 -0.7400 -0.7714  0.0924
 5738TIP3   OH238704   1.984   6.079   3.623 -0.3057 -0.5515  0.4253
 5738TIP3    H138705   2.028   6.008   3.577  3.7677  3.2334 -2.2805
 5738TIP3    H238706   2.039   6.096   3.699 -0.5124  0.4191  0.3715
 5739TIP3   OH238707   0.274   0.841   4.564  1.1962 -0.2924  0.2469
 5739TIP3    H138708   0.185   0.850   4.599  1.1178  0.4250 -0.1117
 5739TIP3    H238709   0.272   0.759   4.515  0.1323  0.6672 -1.4237
 5740TIP3   OH238710   0.682   0.759  17.048 -0.6100 -0.0881 -0.9565
 5740TIP3    H138711   0.771   0.754  17.085 -1.0995 -1.6150  0.1114
 5740TIP3    H238712   0.687   0.708  16.968 -0.8033 -1.3208 -0.2160
 5741TIP3   OH238713   0.893   1.558  16.494 -0.5706 -0.5988  0.3734
 5741TIP3    H138714   0.891   1.478  16.548  0.2993 -0.7727  0.1626
 5741TIP3    H238715   0.971   1.605  16.525 -0.5614 -0.2796 -0.1373
 5742TIP3   OH238716   1.176   5.675  14.146 -0.0257 -0.0386 -0.0788
 5742TIP3    H138717   1.096   5.629  14.122 -0.4793  0.9091 -0.4386
 5742TIP3    H238718   1.204   5.634  14.228  0.4988 -2.0439 -1.1935
 5743TIP3   OH238719   2.697   4.151  13.851 -0.3955  0.3585 -0.0665
 5743TIP3    H138720   2.785   4.176  13.877 -0.8760  1.5719  0.4522
 5743TIP3    H238721   2.710   4.095  13.775  0.7689  2.2306 -1.3343
 5744TIP3   OH238722   3.285   2.517   3.672  0.5858 -0.6418 -0.2229
 5744TIP3    H138723   3.204   2.551   3.634  1.6636  1.8834 -0.4228
 5744TIP3    H238724   3.337   2.489   3.597  2.0954  2.9591 -0.7326
 5745TIP3   OH238725   3.138   0.170   3.434 -0.6557 -0.4251 -0.0684
 5745TIP3    H138726   3.164   0.253   3.474 -1.1479 -0.2659 -0.0643
 5745TIP3    H238727   3.055   0.148   3.477 -0.4242 -1.0249  0.0747
 5746TIP3   OH238728   4.964   1.130   1.478 -0.2134 -0.1476 -0.0319
 5746TIP3    H138729   4.951   1.053   1.422  2.5801 -0.6380 -0.1374
 5746TIP3    H238730   5.059   1.138   1.487 -0.4739  2.0404  1.7611
 5747TIP3   OH238731   2.257   1.121   0.123  0.1522 -0.7413  0.4118
 5747TIP3    H138732   2.350   1.103   0.122  0.8046  2.1216 -0.5149
 5747TIP3    H238733   2.228   1.107   0.033 -0.3341 -1.5900  0.6891
 5748TIP3   OH238734   0.683   5.053   5.850 -0.1996 -0.4824  0.0362
 5748TIP3    H138735   0.666   5.042   5.756 -0.9157  1.7544 -0.1511
 5748TIP3    H238736   0.599   5.030   5.891 -0.5225  0.4619 -0.0624
 5749TIP3   OH238737   4.846   3.225  13.349  0.9026  0.8629  0.4540
 5749TIP3    H138738   4.937   3.226  13.381  1.4083  0.9931 -0.9154
 5749TIP3    H238739   4.846   3.288  13.276  0.3632 -1.0101 -1.2335
 5750TIP3   OH238740   4.418   2.325   1.137 -0.1220 -0.0998  0.8035
 5750TIP3    H138741   4.438   2.334   1.230 -0.9839  0.9975  0.9114
 5750TIP3    H238742   4.412   2.415   1.104 -0.5051 -0.4531 -0.1561
 5751TIP3   OH238743   2.545   5.638   2.747  0.1797 -0.0641 -0.3110
 5751TIP3    H138744   2.609   5.567   2.747  1.3610  0.9763 -0.0083
 5751TIP3    H238745   2.597   5.718   2.739 -1.1643  0.7515 -1.2750
 5752TIP3   OH238746   5.074   2.950  13.644 -1.0692 -0.3916 -0.2019
 5752TIP3    H138747   5.100   2.989  13.561 -0.9576 -1.2533 -0.5782
 5752TIP3    H238748   4.983   2.923  13.632 -0.5802 -1.9359 -0.5881
 5753TIP3   OH238749   0.847   5.902   3.032  0.2274 -0.1946  0.1025
 5753TIP3    H138750   0.778   5.917   3.097 -0.9310 -4.4529  0.1570
 5753TIP3    H238751   0.926   5.939   3.071 -1.1237  0.5879  2.2535
 5754TIP3   OH238752   1.842   2.957  15.934  0.1323  0.6056 -0.2604
 5754TIP3    H138753   1.858   2.876  15.982 -0.0041  0.6169 -0.1955
 5754TIP3    H238754   1.773   3.001  15.984 -1.5664 -0.3736 -1.6405
 5755TIP3   OH238755   4.482   0.250  15.463  0.0999  0.2888 -0.1759
 5755TIP3    H138756   4.559   0.226  15.412  1.5957  1.6452  1.3194
 5755TIP3    H238757   4.415   0.270  15.398  1.9626  2.1082 -1.6632
 5756TIP3   OH238758   3.917   1.237   3.606  0.2247 -0.4573  0.2046
 5756TIP3    H138759   3.945   1.193   3.686 -1.4322 -0.3720  0.8794
 5756TIP3    H238760   3.952   1.183   3.536  0.6582 -1.2398  0.9924
 5757TIP3   OH238761   5.283   3.488   4.499 -0.3634 -0.1208  0.0860
 5757TIP3    H138762   5.348   3.499   4.429 -0.0339  0.6801  0.4994
 5757TIP3    H238763   5.225   3.564   4.490  2.0234  2.3422  3.0844
 5758TIP3   OH238764   3.366   5.717  15.683 -0.7448  0.0277 -0.7010
 5758TIP3    H138765   3.343   5.627  15.663 -2.0143  0.4357 -1.1351
 5758TIP3    H238766   3.299   5.747  15.744  0.5047  0.2332  0.6362
 5759TIP3   OH238767   6.153   1.500   0.207  0.0593 -0.1559  0.7327
 5759TIP3    H138768   6.208   1.576   0.227  1.1542 -0.8277  0.4049
 5759TIP3    H238769   6.089   1.496   0.278  0.6479  0.4678  1.3078
 5760TIP3   OH238770   1.898   5.625   3.413 -0.9303 -0.1807 -0.5375
 5760TIP3    H138771   1.923   5.536   3.439 -0.5692  0.2843  0.8039
 5760TIP3    H238772   1.976   5.678   3.433 -1.8101  0.7492  0.5236
 5761TIP3   OH238773   6.005   3.297   1.030  0.7334  0.8897 -0.1826
 5761TIP3    H138774   6.002   3.387   0.998 -0.0851  0.8109 -0.3271
 5761TIP3    H238775   6.020   3.243   0.952  1.1969  0.8932 -0.0996
 5762TIP3   OH238776   0.413   6.489  13.785  0.4293  0.4085 -0.0360
 5762TIP3    H138777   0.352   6.421  13.814 -1.5207  1.7501 -0.8293
 5762TIP3    H238778   0.434   6.538  13.864  1.2037 -0.5525  0.3902
 5763TIP3   OH238779   0.013   3.897  10.680  0.1319  0.1956  0.1380
 5763TIP3    H138780   0.104   3.900  10.712 -0.0167 -0.1921  0.6167
 5763TIP3    H238781   0.006   3.811  10.639 -0.1149  0.0819  0.4137
 5764TIP3   OH238782   2.940   4.643   2.037  0.8435 -0.4493  0.0825
 5764TIP3    H138783   2.901   4.718   2.082  2.1097 -1.2423  2.6252
 5764TIP3    H238784   2.920   4.568   2.093  2.2893 -1.5351 -0.8010
 5765TIP3   OH238785   0.036   3.907   2.952  0.0997  0.1610 -0.3457
 5765TIP3    H138786   0.054   3.866   3.037  1.6277 -0.2617 -0.8288
 5765TIP3    H238787   0.107   3.970   2.941 -0.8678  1.2236 -0.7117
 5766TIP3   OH238788   6.193   0.515  16.196 -0.1141 -0.3717 -0.2015
 5766TIP3    H138789   6.225   0.598  16.159  2.1839 -1.4137 -0.7521
 5766TIP3    H238790   6.223   0.516  16.287 -1.4747  0.0666  0.2539
 5767TIP3   OH238791   3.868   1.972   5.617  0.4658 -0.2130  0.6631
 5767TIP3    H138792   3.781   2.011   5.628  0.3634 -0.7935  2.2347
 5767TIP3    H238793   3.898   2.003   5.532 -1.4792 -0.3648 -0.1311
 5768TIP3   OH238794   2.105   5.443   1.800 -0.2241  0.1231  0.3434
 5768TIP3    H138795   2.020   5.415   1.765 -0.2344  0.4360  0.1118
 5768TIP3    H238796   2.098   5.427   1.894 -1.0141  1.3245  0.5042
 5769TIP3   OH238797   6.560   1.366  16.995 -0.7014  0.4060  0.0578
 5769TIP3    H138798   6.505   1.368  17.073 -1.3219  1.4321 -0.3901
 5769TIP3    H238799   6.502   1.393  16.924 -0.2244 -0.7831 -0.8304
 5770TIP3   OH238800   5.897   2.522   5.665  0.4620 -0.2614 -0.2643
 5770TIP3    H138801   5.905   2.439   5.619  0.2896 -1.0549  1.0794
 5770TIP3    H238802   5.819   2.513   5.719  1.2949  0.1519  1.0844
 5771TIP3   OH238803   0.202   3.786   4.578 -0.0649 -0.3253 -0.0789
 5771TIP3    H138804   0.141   3.717   4.604 -0.4555 -0.0814 -0.3306
 5771TIP3    H238805   0.253   3.747   4.507  1.8252 -1.4150  1.7700
 5772TIP3   OH238806   2.824   1.064  16.539 -0.2980 -0.1027 -0.1548
 5772TIP3    H138807   2.823   1.155  16.509  0.2592  0.0770  0.3634
 5772TIP3    H238808   2.788   1.014  16.465 -1.1762  0.6001 -0.2176
 5773TIP3   OH238809   6.310   0.967  15.370 -0.4287  0.3054  0.0947
 5773TIP3    H138810   6.356   0.885  15.389  0.0534  0.7178  0.7192
 5773TIP3    H238811   6.218   0.946  15.384 -0.7675 -1.1910 -3.4044
 5774TIP3   OH238812   3.825   1.997  14.892  0.3322  0.1214 -0.3020
 5774TIP3    H138813   3.874   1.986  14.974 -0.0500  1.0826  0.0702
 5774TIP3    H238814   3.740   2.031  14.919  0.3439  0.8463 -1.1185
 5775TIP3   OH238815   5.918   2.827   1.730  0.1573 -0.0538 -0.1842
 5775TIP3    H138816   5.995   2.808   1.784  1.4838  1.7303 -1.3353
 5775TIP3    H238817   5.893   2.742   1.694  1.2596 -0.7540  0.6433
 5776TIP3   OH238818   0.428   6.118  12.837 -0.2323  0.0233  0.1854
 5776TIP3    H138819   0.407   6.106  12.929 -0.4383 -0.4279  0.0818
 5776TIP3    H238820   0.414   6.212  12.821 -0.1918  0.1005  0.6121
 5777TIP3   OH238821   0.068   3.470   5.064 -0.0654  0.5633  0.0051
 5777TIP3    H138822   0.004   3.541   5.060  1.0407  1.5585 -0.7626
 5777TIP3    H238823   0.015   3.390   5.059 -1.3267  1.3175  0.8230
 5778TIP3   OH238824   4.482   5.714   4.976  0.3756  0.1986  0.4915
 5778TIP3    H138825   4.478   5.809   4.988 -0.7321  0.2562 -0.2104
 5778TIP3    H238826   4.408   5.680   5.026  0.9453 -0.3383  0.9906
 5779TIP3   OH238827   1.460   0.062   0.365 -0.0116  0.5147  0.1757
 5779TIP3    H138828   1.402   0.028   0.297  0.6986 -1.0718  0.3196
 5779TIP3    H238829   1.463  -0.007   0.431  2.4963  0.2453 -0.1236
 5780TIP3   OH238830   6.409   0.450  13.204  0.0887  0.2984  0.0319
 5780TIP3    H138831   6.464   0.437  13.127 -1.5790 -2.2892 -0.8407
 5780TIP3    H238832   6.327   0.486  13.169 -0.3655 -0.0514  0.7112
 5781TIP3   OH238833   0.491   0.654  12.854 -0.5105 -0.7994  0.5942
 5781TIP3    H138834   0.474   0.744  12.879 -1.4052 -0.6530 -0.4446
 5781TIP3    H238835   0.405   0.612  12.857  0.0361 -1.8853  2.0389
 5782TIP3   OH238836   5.416   2.449  14.586  0.5240 -0.4473 -0.3464
 5782TIP3    H138837   5.402   2.543  14.585  0.9226 -0.3780  0.2315
 5782TIP3    H238838   5.358   2.415  14.517  0.5513  0.2376 -0.7122
 5783TIP3   OH238839   4.170   4.932  12.965 -0.6367 -0.2471 -0.7757
 5783TIP3    H138840   4.227   5.005  12.943  1.1931 -0.9678  1.2599
 5783TIP3    H238841   4.137   4.952  13.052 -1.2715 -1.1825 -0.7808
 5784TIP3   OH238842   1.216   0.390   6.001  0.5199  0.1106  0.4549
 5784TIP3    H138843   1.132   0.346   6.014 -0.0984  1.1582  0.0756
 5784TIP3    H238844   1.275   0.320   5.973 -0.5356 -0.4296 -0.5148
 5785TIP3   OH238845   4.854   5.155  12.949 -0.3452 -0.3608 -0.0083
 5785TIP3    H138846   4.770   5.189  12.917  0.5990 -1.4470 -4.2150
 5785TIP3    H238847   4.918   5.222  12.926  0.2203 -0.1017  2.0482
 5786TIP3   OH238848   2.970   6.259  15.535 -0.2697 -0.1588 -0.0246
 5786TIP3    H138849   2.923   6.189  15.579  0.0728 -0.8124 -0.6789
 5786TIP3    H238850   2.910   6.288  15.466 -0.4457  0.2585  0.2976
 5787TIP3   OH238851   0.033   5.250  16.638 -0.0361  0.0095 -0.8326
 5787TIP3    H138852   0.072   5.273  16.553 -1.3269 -0.5890 -1.6147
 5787TIP3    H238853   0.104   5.207  16.686  0.7032  0.3388 -1.6132
 5788TIP3   OH238854   5.943   1.852   1.558 -0.2015  0.4257  0.6407
 5788TIP3    H138855   5.861   1.843   1.607 -0.7596  0.1683 -0.3218
 5788TIP3    H238856   5.934   1.792   1.484  0.0495  1.8072 -0.5573
 5789TIP3   OH238857   3.495   1.412  12.078  0.3224 -0.0654 -0.2506
 5789TIP3    H138858   3.578   1.419  12.031 -1.0450  2.2635 -2.5688
 5789TIP3    H238859   3.498   1.481  12.144  1.3218 -1.8730  1.6912
 5790TIP3   OH238860   6.432   5.654   3.903 -0.0907  0.1817  0.2663
 5790TIP3    H138861   6.348   5.651   3.949  0.4640  1.0689  1.3861
 5790TIP3    H238862   6.426   5.733   3.848  0.0932  0.3780  0.5258
 5791TIP3   OH238863   1.872   0.648  16.492 -0.4177 -0.1404  0.2613
 5791TIP3    H138864   1.905   0.646  16.582  1.3635 -1.9270 -0.3549
 5791TIP3    H238865   1.784   0.611  16.497  0.3509 -1.9588  1.0700
 5792TIP3   OH238866   0.368   2.107   2.941  0.3808 -0.0543  0.0112
 5792TIP3    H138867   0.399   2.144   3.023  1.6172 -1.1994  0.1031
 5792TIP3    H238868   0.286   2.153   2.923  1.1152  1.6676  0.8177
 5793TIP3   OH238869   3.429   0.223   1.566  0.3663 -0.0893  0.1708
 5793TIP3    H138870   3.498   0.175   1.520  0.5824 -1.9440  2.2640
 5793TIP3    H238871   3.399   0.287   1.502  0.8442 -2.2564 -2.4468
 5794TIP3   OH238872   5.518   1.038   4.571 -0.0858  0.1157 -0.3381
 5794TIP3    H138873   5.522   1.129   4.602 -3.5588 -0.0425  0.9746
 5794TIP3    H238874   5.552   0.987   4.644  1.6669  0.2693 -0.9957
 5795TIP3   OH238875   6.635   4.474   3.927  0.6623 -0.2539 -0.5170
 5795TIP3    H138876   6.639   4.406   3.994 -0.2584 -0.4625 -0.6582
 5795TIP3    H238877   6.702   4.538   3.952  0.9393 -0.7789  0.0923
 5796TIP3   OH238878   5.744   2.906  11.504  0.3856  0.1648  0.1044
 5796TIP3    H138879   5.733   2.946  11.417 -0.5236 -1.1569 -0.4276
 5796TIP3    H238880   5.762   2.814  11.485  1.2435  0.0651  1.3139
 5797TIP3   OH238881   6.523   5.728   5.905 -0.4330  0.2591  0.0480
 5797TIP3    H138882   6.602   5.735   5.850 -0.7991  1.7686 -0.3397
 5797TIP3    H238883   6.456   5.693   5.847 -0.3671  0.1561  0.0337
 5798TIP3   OH238884   3.479   1.865  13.337  0.1095 -0.5876 -0.0621
 5798TIP3    H138885   3.517   1.889  13.421  0.2125 -0.7767 -0.0548
 5798TIP3    H238886   3.489   1.770  13.332 -0.6748 -0.6828  0.0937
 5799TIP3   OH238887   5.231   4.115   2.674 -0.2530  0.4367 -0.4420
 5799TIP3    H138888   5.225   4.198   2.628 -1.6246  1.4415  1.4078
 5799TIP3    H238889   5.251   4.138   2.765 -1.2962 -1.1607  0.2608
 5800TIP3   OH238890   5.852   2.470  13.370  0.3628 -0.4497  0.1004
 5800TIP3    H138891   5.928   2.417  13.348 -0.3698 -1.8705  0.8774
 5800TIP3    H238892   5.777   2.415  13.350 -0.4232  0.2641  0.9600
 5801TIP3   OH238893   4.323   5.676  13.068  0.1143 -0.2634 -0.1970
 5801TIP3    H138894   4.348   5.649  12.980 -2.5730  0.1725 -1.1825
 5801TIP3    H238895   4.306   5.593  13.114  0.0645 -0.4629 -0.5716
 5802TIP3   OH238896   3.518   6.674  11.330 -0.0742 -0.8631 -0.0672
 5802TIP3    H138897   3.438   6.678  11.279  0.3901  0.9783 -0.7429
 5802TIP3    H238898   3.585   6.712  11.273  0.5694  0.7560  1.6662
 5803TIP3   OH238899   1.947   6.625  16.590  0.1433 -0.0857  0.2446
 5803TIP3    H138900   1.928   6.698  16.649  0.3742  0.4556 -0.3412
 5803TIP3    H238901   2.032   6.592  16.618  0.0506 -0.1088  0.4942
 5804TIP3   OH238902   0.354   3.264  13.933  0.1566  0.1401 -0.0778
 5804TIP3    H138903   0.435   3.258  13.883 -0.8147  0.2523 -1.7587
 5804TIP3    H238904   0.355   3.189  13.992  1.5099  0.2043 -0.0011
 5805TIP3   OH238905   2.664   3.149   4.058  0.0093  0.1468  0.0624
 5805TIP3    H138906   2.748   3.157   4.103 -1.7551  0.4961  3.6028
 5805TIP3    H238907   2.674   3.072   4.002  2.5163 -0.0974  0.7351
 5806TIP3   OH238908   2.309   2.482  14.547 -0.1994 -0.5501 -0.0304
 5806TIP3    H138909   2.338   2.511  14.633  1.6603  0.4130 -0.9309
 5806TIP3    H238910   2.269   2.559  14.507 -1.7865 -1.1989  0.2209
 5807TIP3   OH238911   6.383   4.743   5.407  0.5386 -0.2083 -0.0760
 5807TIP3    H138912   6.464   4.743   5.458  1.7088  0.0972 -1.8461
 5807TIP3    H238913   6.364   4.835   5.391 -0.7512 -0.2183  1.1371
 5808TIP3   OH238914   2.030   3.951  11.407 -0.4218  0.6113  0.1520
 5808TIP3    H138915   1.942   3.947  11.369 -1.0016  0.1844  1.5039
 5808TIP3    H238916   2.024   4.017  11.476  0.6907  1.5744 -0.6225
 5809TIP3   OH238917   5.557   2.707   1.660 -0.5292  0.0353  0.2646
 5809TIP3    H138918   5.511   2.770   1.716  0.5306  0.3722  0.7751
 5809TIP3    H238919   5.574   2.756   1.579 -2.0713 -0.4552 -0.3925
 5810TIP3   OH238920   3.895   3.882   0.757  0.0127 -0.1251 -0.3442
 5810TIP3    H138921   3.822   3.908   0.701  0.1275 -1.0341 -0.9469
 5810TIP3    H238922   3.943   3.817   0.704  0.8424 -0.0709  0.3214
 5811TIP3   OH238923   2.249   2.945   2.485 -0.4857 -0.3855 -0.4347
 5811TIP3    H138924   2.208   3.030   2.502  2.5999  1.0401  0.5198
 5811TIP3    H238925   2.286   2.953   2.397  0.4761 -0.4129 -0.0447
 5812TIP3   OH238926   3.226   0.063   5.914 -0.2880  0.9331  0.0029
 5812TIP3    H138927   3.278   0.138   5.885  1.0011 -0.4356 -1.4659
 5812TIP3    H238928   3.262  -0.011   5.865 -1.9084 -0.5531  0.9378
 5813TIP3   OH238929   0.123   1.914  14.767 -0.4133 -0.1858 -0.1949
 5813TIP3    H138930   0.073   1.954  14.838  0.1533 -1.0467  0.7194
 5813TIP3    H238931   0.128   1.981  14.699  0.5951  1.3412  1.3173
 5814TIP3   OH238932   2.672   4.145  11.682  0.1325  0.2875  0.1513
 5814TIP3    H138933   2.687   4.163  11.589 -0.9704 -1.7906 -0.4807
 5814TIP3    H238934   2.606   4.210  11.709  0.1179  0.6047 -0.6283
 5815TIP3   OH238935   1.459   1.722  15.438 -0.1448 -0.1122 -0.3372
 5815TIP3    H138936   1.525   1.731  15.369  0.6038 -0.4398  0.3296
 5815TIP3    H238937   1.396   1.660  15.402 -1.0539  1.5153 -1.6915
 5816TIP3   OH238938   1.534   2.178   1.520  0.0624  0.0124 -0.0797
 5816TIP3    H138939   1.509   2.168   1.428  1.8749  1.1603 -0.7326
 5816TIP3    H238940   1.472   2.242   1.555  0.6115  1.0917 -1.0503
 5817TIP3   OH238941   6.101   4.839   2.048  0.2254  0.6281 -0.0799
 5817TIP3    H138942   6.152   4.879   2.119  3.2761 -1.3252 -0.9481
 5817TIP3    H238943   6.061   4.762   2.089 -1.8927  1.9916  0.5270
 5818TIP3   OH238944   0.533   3.919   0.268  0.1730  0.1415  0.2866
 5818TIP3    H138945   0.496   3.948   0.351 -1.6105  1.0434 -0.7690
 5818TIP3    H238946   0.603   3.981   0.249  0.1352  0.3345  0.7751
 5819TIP3   OH238947   0.019   1.710   1.282 -0.3263  0.9308 -0.1168
 5819TIP3    H138948   0.020   1.647   1.210 -0.5126  1.4812 -0.6134
 5819TIP3    H238949   0.008   1.658   1.361 -1.6145  0.4348 -0.6129
 5820TIP3   OH238950   3.668   2.260  13.107 -0.4210 -0.1742  0.3673
 5820TIP3    H138951   3.681   2.170  13.136  4.4218 -0.5784 -2.0133
 5820TIP3    H238952   3.732   2.311  13.157  0.5275  0.9312 -1.8239
 5821TIP3   OH238953   1.891   0.895   3.725 -0.3811 -0.4307 -0.1101
 5821TIP3    H138954   1.913   0.804   3.705 -0.2073 -1.1460  2.8105
 5821TIP3    H238955   1.822   0.889   3.791 -0.1058  1.5263  0.4217
 5822TIP3   OH238956   1.327   3.558  15.240 -0.0400  0.4413  0.6424
 5822TIP3    H138957   1.317   3.651  15.259 -1.1567  0.2819  0.9015
 5822TIP3    H238958   1.256   3.516  15.289 -1.0550 -0.3052 -1.3410
 5823TIP3   OH238959   5.811   4.959   5.848  0.3658  0.3964  0.5568
 5823TIP3    H138960   5.882   5.010   5.810  0.7004 -0.4615 -0.0113
 5823TIP3    H238961   5.734   5.016   5.843  0.9391  1.2099  0.8849
 5824TIP3   OH238962   6.763   1.184   5.045  0.3414 -0.2855  0.1377
 5824TIP3    H138963   6.811   1.205   4.965  0.9703 -0.8045  0.3682
 5824TIP3    H238964   6.790   1.252   5.107  0.7893 -0.5685  0.2631
 5825TIP3   OH238965   4.366   1.858   3.763 -0.5914  0.8812 -0.1218
 5825TIP3    H138966   4.416   1.785   3.726  0.3199  0.8228  1.1629
 5825TIP3    H238967   4.323   1.822   3.840 -1.8476  1.1909 -0.6570
 5826TIP3   OH238968   5.048   5.293   5.505 -0.1982  0.5428 -0.5534
 5826TIP3    H138969   5.081   5.207   5.477 -1.0258  0.0759 -0.1246
 5826TIP3    H238970   4.971   5.273   5.557  0.0351  1.5228  0.1850
 5827TIP3   OH238971   6.784   3.546  13.478 -0.4402  0.7810 -0.3710
 5827TIP3    H138972   6.701   3.502  13.496 -1.1370  1.7202 -1.1355
 5827TIP3    H238973   6.802   3.596  13.557  0.1607 -0.5456  0.3543
 5828TIP3   OH238974   3.456   0.970   6.839  0.5826  1.2038 -0.0146
 5828TIP3    H138975   3.528   0.965   6.902 -0.5263 -1.9779  1.2091
 5828TIP3    H238976   3.482   0.911   6.769 -0.9297 -0.3524  0.6633
 5829TIP3   OH238977   5.868   4.378   4.559  0.3911 -0.4782 -0.0730
 5829TIP3    H138978   5.807   4.392   4.485 -1.3534 -0.2583  1.3375
 5829TIP3    H238979   5.899   4.466   4.580  0.3753 -0.4626 -0.1130
 5830TIP3   OH238980   2.332   5.079  11.838 -0.3610 -0.0554  0.1604
 5830TIP3    H138981   2.378   5.163  11.832  0.5119 -0.4834  0.6874
 5830TIP3    H238982   2.268   5.091  11.908 -2.0995  0.9997 -1.4953
 5831TIP3   OH238983   5.503   2.611  11.323  0.6673  0.7764 -0.0240
 5831TIP3    H138984   5.460   2.535  11.362  0.5515 -0.9650 -3.1771
 5831TIP3    H238985   5.437   2.680  11.324  0.0181  0.1566  0.9566
 5832TIP3   OH238986   3.830   5.248   6.300 -0.0500 -0.0191  0.0431
 5832TIP3    H138987   3.755   5.273   6.354 -0.4833 -0.0660 -0.5230
 5832TIP3    H238988   3.856   5.162   6.334 -0.6879 -0.3123 -0.2006
 5833TIP3   OH238989   3.058   6.104   3.735  0.2757 -0.3096  0.6244
 5833TIP3    H138990   3.104   6.170   3.787 -0.3136  0.4428  0.2113
 5833TIP3    H238991   3.070   6.132   3.644 -0.3948 -0.4874  0.4736
 5834TIP3   OH238992   1.871   2.463  14.532  0.4639  0.2555 -0.1984
 5834TIP3    H138993   1.905   2.523  14.599  0.7894  0.4756 -0.5605
 5834TIP3    H238994   1.938   2.394  14.526 -0.3473 -0.6633  0.8940
 5835TIP3   OH238995   5.803   0.081  15.711 -0.1362  0.3138  0.1466
 5835TIP3    H138996   5.798   0.171  15.679 -0.9069  0.9471  1.9331
 5835TIP3    H238997   5.712   0.055  15.723  0.1087 -0.3757  0.5167
 5836TIP3   OH238998   3.668   1.334   6.221  0.7379 -0.0643  1.0032
 5836TIP3    H138999   3.686   1.394   6.293 -0.4937  0.3288  1.0103
 5836TIP3    H239000   3.574   1.345   6.204  1.2428  0.9865 -1.6499
 5837TIP3   OH239001   6.481   2.337  15.835 -0.3695  0.9489 -0.4901
 5837TIP3    H139002   6.516   2.345  15.746 -0.0831  2.9033 -0.2529
 5837TIP3    H239003   6.551   2.369  15.891 -1.1858  1.4407  0.2747
 5838TIP3   OH239004   1.592   5.237  14.518  0.6316 -0.1627  0.4523
 5838TIP3    H139005   1.539   5.303  14.473 -1.0925 -1.1565  0.9603
 5838TIP3    H239006   1.662   5.217  14.456  0.8742  1.7007  0.0508
 5839TIP3   OH239007   1.955   4.219   4.697  0.1410 -0.1571  0.2002
 5839TIP3    H139008   1.874   4.168   4.693  1.3217 -2.2628  1.1457
 5839TIP3    H239009   1.946   4.285   4.629 -2.3627 -0.2920  0.3052
 5840TIP3   OH239010   5.032   1.776  11.783 -0.5687 -0.6633 -0.0597
 5840TIP3    H139011   5.040   1.711  11.852 -3.5971 -0.6086  0.4818
 5840TIP3    H239012   5.104   1.837  11.798 -0.0843 -1.6711  1.9279
 5841TIP3   OH239013   1.154   4.879  12.104  0.0295 -0.3409  0.3710
 5841TIP3    H139014   1.190   4.924  12.180  1.3391 -0.3411 -0.2344
 5841TIP3    H239015   1.061   4.868  12.125 -0.0495  1.4123  1.1168
 5842TIP3   OH239016   5.270   5.462   4.512  0.2781 -0.0402  0.0304
 5842TIP3    H139017   5.218   5.432   4.437  0.1449 -1.3642  0.6410
 5842TIP3    H239018   5.278   5.386   4.568  2.9104  0.0964 -0.0275
 5843TIP3   OH239019   3.773   4.583   5.749  0.3508  0.2438 -0.9780
 5843TIP3    H139020   3.859   4.558   5.783 -0.6149 -0.5579  1.0523
 5843TIP3    H239021   3.763   4.532   5.669  0.9558 -1.1733 -0.1771
 5844TIP3   OH239022   3.927   4.572   2.626  0.3459  0.1876 -0.3413
 5844TIP3    H139023   3.998   4.633   2.649 -0.8984  0.6333  2.8792
 5844TIP3    H239024   3.847   4.623   2.641 -0.7181 -0.9052 -2.0262
 5845TIP3   OH239025   6.769   4.288   3.382  0.0813  0.1960  0.9341
 5845TIP3    H139026   6.797   4.230   3.453 -1.0668  0.9145  2.0181
 5845TIP3    H239027   6.690   4.247   3.347  0.2260  0.2298  0.5705
 5846TIP3   OH239028   6.449   2.573  13.833  0.4989 -0.2530  0.0823
 5846TIP3    H139029   6.416   2.587  13.744 -2.2018  1.1055  1.1845
 5846TIP3    H239030   6.373   2.544  13.883  1.6240  0.2895  2.2436
 5847TIP3   OH239031   0.968   0.433  16.424 -0.4990 -0.2818 -0.4174
 5847TIP3    H139032   0.971   0.354  16.370  1.6415  0.6320 -1.7663
 5847TIP3    H239033   0.908   0.492  16.377 -0.7215 -0.4588 -0.3558
 5848TIP3   OH239034   6.307   3.589  15.773 -0.6554 -0.0302 -1.0076
 5848TIP3    H139035   6.254   3.639  15.711  0.7733  1.2388 -1.2458
 5848TIP3    H239036   6.397   3.616  15.756 -0.0662 -0.8709  0.5354
 5849TIP3   OH239037   5.468   0.176  13.112  0.8975 -0.0483 -0.7008
 5849TIP3    H139038   5.541   0.123  13.081  1.7030  0.7726 -0.2468
 5849TIP3    H239039   5.492   0.202  13.201  0.4282  0.8760 -0.8231
 5850TIP3   OH239040   4.366   0.791   4.228 -0.2935 -0.7324  0.0392
 5850TIP3    H139041   4.295   0.731   4.250 -1.8958  1.1941  0.4507
 5850TIP3    H239042   4.446   0.743   4.248 -1.4926 -2.6887  0.3530
 5851TIP3   OH239043   2.492   0.939   0.868 -0.7293 -0.3182 -0.1575
 5851TIP3    H139044   2.451   1.002   0.928  1.0824  1.8718 -1.0593
 5851TIP3    H239045   2.581   0.929   0.903  0.7095  1.7488 -2.8098
 5852TIP3   OH239046   1.012   4.504   0.608 -0.6508  0.2526  0.4001
 5852TIP3    H139047   0.933   4.505   0.662 -1.9546  0.7343 -1.4335
 5852TIP3    H239048   0.990   4.559   0.532  1.6899  0.9686  0.1647
 5853TIP3   OH239049   4.803   1.706  14.861  0.0815 -0.0091 -0.2383
 5853TIP3    H139050   4.859   1.629  14.852  0.1013  0.1031 -1.2697
 5853TIP3    H239051   4.859   1.771  14.904 -0.1473 -0.7621  1.2580
 5854TIP3   OH239052   6.682   0.390   4.824  0.0725  0.5569  0.7328
 5854TIP3    H139053   6.726   0.378   4.908  0.3726  0.9361  0.6312
 5854TIP3    H239054   6.750   0.421   4.765 -0.0008 -0.2925  0.1906
 5855TIP3   OH239055   4.112   6.055   2.118 -0.6160 -0.3848  0.0831
 5855TIP3    H139056   4.092   6.088   2.030 -1.4751 -0.7093  0.1481
 5855TIP3    H239057   4.033   6.072   2.169  0.7803  2.2779  1.5691
 5856TIP3   OH239058   2.790   2.656   0.510 -0.5318 -0.1065  0.0438
 5856TIP3    H139059   2.739   2.632   0.587 -1.1560 -2.4742 -1.0099
 5856TIP3    H239060   2.752   2.603   0.439  0.1208  1.8348 -1.8724
 5857TIP3   OH239061   0.705   2.550  10.761 -0.3072 -0.0790 -0.6348
 5857TIP3    H139062   0.654   2.487  10.710 -0.4945 -0.2181 -0.2844
 5857TIP3    H239063   0.743   2.608  10.696 -1.3672  0.3682 -0.8866
 5858TIP3   OH239064   4.409   5.961   5.663 -0.2961  0.7941  0.4329
 5858TIP3    H139065   4.402   5.921   5.750 -0.6060  1.7116  0.8367
 5858TIP3    H239066   4.483   6.021   5.669  0.9809 -0.6045 -0.5471
 5859TIP3   OH239067   5.948   3.282   5.924 -0.1367  0.0975 -0.1488
 5859TIP3    H139068   6.030   3.247   5.888 -0.7907 -0.6966 -0.9113
 5859TIP3    H239069   5.882   3.219   5.897 -1.3983  1.9499 -1.6946
 5860TIP3   OH239070   1.418   5.716  16.857 -0.0009 -0.0080 -0.3825
 5860TIP3    H139071   1.509   5.723  16.826  0.3250 -1.4813  0.1720
 5860TIP3    H239072   1.423   5.661  16.935 -0.9385  2.7416  1.7719
 5861TIP3   OH239073   0.833   6.323   4.520 -0.0869  0.4751  0.1232
 5861TIP3    H139074   0.847   6.248   4.579 -1.6121  0.2589  0.2654
 5861TIP3    H239075   0.767   6.292   4.458  1.1149  0.8734 -1.4217
 5862TIP3   OH239076   4.627   1.830  17.148 -0.4676 -0.6229  0.5989
 5862TIP3    H139077   4.615   1.736  17.152 -2.4833 -0.4287  0.1497
 5862TIP3    H239078   4.586   1.856  17.066  1.0515  0.5391  0.1589
 5863TIP3   OH239079   1.186   5.816  17.017  0.0975  0.1548  0.0867
 5863TIP3    H139080   1.169   5.900  16.974 -0.3216  0.5567  1.0046
 5863TIP3    H239081   1.270   5.788  16.982 -0.6968 -0.0555 -1.7819
 5864TIP3   OH239082   2.571   0.516  15.890 -0.2647 -0.3037 -0.9742
 5864TIP3    H139083   2.588   0.432  15.933  2.2850  0.8150  0.4083
 5864TIP3    H239084   2.589   0.582  15.957 -0.1412  1.4229 -2.6171
 5865TIP3   OH239085   1.900   5.251   2.059 -0.0172 -0.1311  0.4273
 5865TIP3    H139086   1.980   5.303   2.073 -0.8523  0.7762  2.0754
 5865TIP3    H239087   1.843   5.275   2.132 -1.8737 -0.6443 -0.7998
 5866TIP3   OH239088   6.396   1.491  12.699  0.5362 -0.7682  0.0017
 5866TIP3    H139089   6.457   1.489  12.772  2.4257  1.8134 -1.3348
 5866TIP3    H239090   6.402   1.405  12.659 -0.4470 -2.2012  2.7043
 5867TIP3   OH239091   3.768   0.903   5.683 -0.2878 -0.6368 -0.5910
 5867TIP3    H139092   3.792   0.845   5.611  0.3232 -1.1346 -0.0025
 5867TIP3    H239093   3.791   0.854   5.762  0.3973  0.4696 -0.0810
 5868TIP3   OH239094   4.569   6.023  11.048  0.4416 -0.0741  0.0005
 5868TIP3    H139095   4.504   6.069  10.995  0.9725  1.9185  0.9650
 5868TIP3    H239096   4.651   6.071  11.032  0.2489  2.0188  4.0901
 5869TIP3   OH239097   2.335   1.358   4.770  0.7749 -0.1630 -0.4257
 5869TIP3    H139098   2.373   1.443   4.749  2.0637 -0.7947 -0.7477
 5869TIP3    H239099   2.409   1.298   4.772 -0.0360 -1.1811  0.3875
 5870TIP3   OH239100   6.435   5.775   0.817  0.0655  0.3302  0.6575
 5870TIP3    H139101   6.420   5.801   0.726  0.0018  1.1486  0.8994
 5870TIP3    H239102   6.372   5.704   0.832  0.7330 -0.4623 -0.2180
 5871TIP3   OH239103   3.471   4.661  13.472 -0.0397 -0.5402 -0.3126
 5871TIP3    H139104   3.482   4.735  13.413 -1.4350 -0.0617 -0.0195
 5871TIP3    H239105   3.427   4.698  13.549 -1.1554 -1.7310 -0.3395
 5872TIP3   OH239106   4.521   6.277  13.114  0.2392 -0.4163 -0.0971
 5872TIP3    H139107   4.542   6.284  13.021 -0.3596 -1.3579 -0.3182
 5872TIP3    H239108   4.427   6.289  13.118  0.4352  1.1062  0.5779
 5873TIP3   OH239109   4.432   4.153  15.888  0.1896 -0.0232  0.5100
 5873TIP3    H139110   4.426   4.248  15.877 -0.7401  0.2386  2.7252
 5873TIP3    H239111   4.526   4.135  15.892  0.4818  0.4140 -2.3234
 5874TIP3   OH239112   5.905   1.514   5.597  0.2642  0.0510  0.0400
 5874TIP3    H139113   5.956   1.468   5.664 -0.9368 -0.0702  0.9224
 5874TIP3    H239114   5.862   1.585   5.645  0.8553  1.1318 -0.9948
 5875TIP3   OH239115   2.383   4.243  15.135  0.6850  0.3152 -0.2591
 5875TIP3    H139116   2.348   4.258  15.222  0.8178  2.2829 -0.5164
 5875TIP3    H239117   2.371   4.326  15.089  1.9580 -0.2199 -1.6485
 5876TIP3   OH239118   0.492   3.409   4.015 -0.3314 -0.0582  0.0542
 5876TIP3    H139119   0.472   3.332   3.961 -1.5517 -0.6138  1.2449
 5876TIP3    H239120   0.547   3.464   3.959  0.2546 -1.6150 -0.9678
 5877TIP3   OH239121   5.629   3.994  13.697 -0.2695  0.7731 -0.3077
 5877TIP3    H139122   5.724   3.998  13.700 -0.1590 -1.2186  0.0266
 5877TIP3    H239123   5.605   3.921  13.755 -1.7400 -1.0888 -3.0083
 5878TIP3   OH239124   5.719   5.416   4.382 -0.5323 -0.1941  0.3493
 5878TIP3    H139125   5.727   5.443   4.290 -0.1517 -1.1013  0.1051
 5878TIP3    H239126   5.726   5.497   4.432  0.0623  0.2117 -0.3848
 5879TIP3   OH239127   5.624   1.036   1.046  0.2638 -0.0506 -0.1091
 5879TIP3    H139128   5.715   1.028   1.015  0.7601  1.3080  0.9048
 5879TIP3    H239129   5.618   0.972   1.117  0.7903  0.6811  0.6003
 5880TIP3   OH239130   3.987   0.687  14.842  0.1776  0.0044  0.5387
 5880TIP3    H139131   3.959   0.751  14.777  0.0935 -0.0795  0.4918
 5880TIP3    H239132   3.963   0.726  14.926  0.6104  0.2751  0.5410
 5881TIP3   OH239133   5.129   3.153  16.134 -0.1602  0.5697  0.3550
 5881TIP3    H139134   5.039   3.120  16.130 -1.4192  3.4664  1.7864
 5881TIP3    H239135   5.144   3.190  16.047 -0.3566  0.1423  0.1315
 5882TIP3   OH239136   4.179   6.307   4.915 -0.4085 -0.0273 -0.1116
 5882TIP3    H139137   4.177   6.400   4.890 -1.0941 -0.1722 -0.6167
 5882TIP3    H239138   4.101   6.270   4.876 -0.0243 -0.8771 -0.0961
 5883TIP3   OH239139   2.872   4.546   3.481  0.9683 -0.1351  0.5138
 5883TIP3    H139140   2.900   4.454   3.478  0.0380 -0.4209 -2.0343
 5883TIP3    H239141   2.925   4.585   3.550  1.8811 -2.4299  1.2105
 5884TIP3   OH239142   0.584   0.312   6.082 -0.0972 -0.4665  0.2204
 5884TIP3    H139143   0.530   0.389   6.098 -0.8984 -0.8797 -0.3852
 5884TIP3    H239144   0.621   0.289   6.167  0.0318  0.4909  0.4311
 5885TIP3   OH239145   0.937   3.030  14.138 -0.5546  0.4356 -0.1957
 5885TIP3    H139146   0.876   3.101  14.160 -0.5335  0.1060  1.0026
 5885TIP3    H239147   0.952   2.985  14.221  0.2600 -0.3306 -0.7415
 5886TIP3   OH239148   6.181   0.873  15.100 -0.5223  0.1487  0.0366
 5886TIP3    H139149   6.254   0.868  15.039 -0.5375  0.6690 -0.0215
 5886TIP3    H239150   6.171   0.966  15.119 -1.6741  0.1574 -0.5555
 5887TIP3   OH239151   3.062   0.175  16.222  0.5893  0.3159  0.1662
 5887TIP3    H139152   3.031   0.208  16.307  1.2927 -1.2260  1.0694
 5887TIP3    H239153   3.103   0.091  16.243 -0.7588 -0.9471 -1.9498
 5888TIP3   OH239154   5.664   2.798   4.271  0.5117  0.2511  0.1775
 5888TIP3    H139155   5.615   2.860   4.326  2.2485  2.6106 -0.7422
 5888TIP3    H239156   5.715   2.746   4.334 -1.5450 -0.8708  1.0180
 5889TIP3   OH239157   2.283   4.696   3.905  0.5664 -0.1121  0.8922
 5889TIP3    H139158   2.350   4.641   3.946 -0.5284 -0.8750  1.7236
 5889TIP3    H239159   2.204   4.681   3.958 -0.3023  0.6312 -0.1505
 5890TIP3   OH239160   3.242   0.020  15.291  0.4395  0.2856  0.0152
 5890TIP3    H139161   3.251   0.009  15.386  1.9974 -2.6355 -0.3405
 5890TIP3    H239162   3.186  -0.053  15.264  0.5645  0.6817 -1.3820
 5891TIP3   OH239163   3.132   3.937  14.590  0.2582 -0.2435 -0.4705
 5891TIP3    H139164   3.225   3.961  14.582  0.1895  0.8885  1.4381
 5891TIP3    H239165   3.103   3.983  14.669 -2.0305 -0.2971 -1.2243
 5892TIP3   OH239166   5.206   3.051   5.648  0.4291  0.0829  0.1705
 5892TIP3    H139167   5.138   3.093   5.700  0.1360  0.8928 -0.8355
 5892TIP3    H239168   5.214   3.106   5.570  2.3030  0.0539  0.3098
 5893TIP3   OH239169   6.596   3.738   5.774 -0.6514 -0.4005 -0.0203
 5893TIP3    H139170   6.615   3.832   5.784 -0.2453 -0.4345 -0.4418
 5893TIP3    H239171   6.589   3.706   5.863  0.8890 -0.3018  0.1729
 5894TIP3   OH239172   0.130   4.529   2.621  0.5474  0.0615  0.1409
 5894TIP3    H139173   0.102   4.591   2.688 -2.5335  0.2940 -1.2047
 5894TIP3    H239174   0.142   4.446   2.668 -0.1960  0.5392  1.1979
 5895TIP3   OH239175   4.107   0.541   1.477  0.3301  0.8691  0.2280
 5895TIP3    H139176   4.197   0.529   1.509  0.2778  0.8088  0.3529
 5895TIP3    H239177   4.116   0.601   1.403  0.3205  2.0250  1.1191
 5896TIP3   OH239178   6.691   1.198   0.026  0.4247 -0.3362  0.6222
 5896TIP3    H139179   6.778   1.159   0.021  0.9457  0.9319 -1.9208
 5896TIP3    H239180   6.701   1.276   0.080  0.4773 -1.0318  1.6390
 5897TIP3   OH239181   6.312   1.563  14.633 -0.3874  0.0322 -0.2945
 5897TIP3    H139182   6.278   1.492  14.578 -1.1138 -0.1451  0.3648
 5897TIP3    H239183   6.236   1.592  14.684 -0.0357  1.1076 -0.3631
 5898TIP3   OH239184   0.386   5.134   5.328  0.4200 -0.2502  0.7513
 5898TIP3    H139185   0.456   5.197   5.344  1.0271 -0.6019 -0.3859
 5898TIP3    H239186   0.411   5.090   5.247  0.5748 -2.7227  2.0342
 5899TIP3   OH239187   4.416   2.585   1.061  0.0657 -0.1114  0.3494
 5899TIP3    H139188   4.487   2.649   1.071  0.8224 -0.4715 -1.9833
 5899TIP3    H239189   4.356   2.603   1.134  0.1873  3.3265 -0.2291
 5900TIP3   OH239190   6.727   4.594   5.841 -0.0331 -0.4831 -0.1330
 5900TIP3    H139191   6.687   4.612   5.756 -0.6412  0.5891  0.3581
 5900TIP3    H239192   6.816   4.565   5.820  0.3510  1.2512 -1.0797
 5901TIP3   OH239193   2.959   4.079  17.176 -0.0256 -0.5911  0.5627
 5901TIP3    H139194   3.024   4.083  17.106  0.0704  1.5467  0.6896
 5901TIP3    H239195   2.971   3.993  17.216  1.1546 -1.1293 -0.8729
 5902TIP3   OH239196   5.107   0.198   4.057 -0.1681 -0.5618 -0.0657
 5902TIP3    H139197   5.131   0.198   4.150  1.5329  0.9441 -0.4518
 5902TIP3    H239198   5.013   0.217   4.057  0.0389  0.6848  1.3252
 5903TIP3   OH239199   0.701   4.016   2.764 -0.1620 -0.0749 -0.4269
 5903TIP3    H139200   0.795   4.001   2.771 -0.2150 -1.1277 -1.5479
 5903TIP3    H239201   0.694   4.102   2.721  0.2887  0.0012 -0.3577
 5904TIP3   OH239202   5.587   2.747   5.965  0.0062 -0.3576 -0.3546
 5904TIP3    H139203   5.598   2.658   5.930 -1.3211 -1.0900  0.9665
 5904TIP3    H239204   5.538   2.793   5.898 -2.1031 -1.6040  0.2413
 5905TIP3   OH239205   2.586   2.057   5.117  0.0396 -0.5607 -0.5082
 5905TIP3    H139206   2.560   1.975   5.075 -1.2490 -1.3841  1.7398
 5905TIP3    H239207   2.659   2.033   5.173 -0.7829 -0.3478  0.6844
 5906TIP3   OH239208   6.045   4.339  14.647 -0.4163 -0.5004 -0.3321
 5906TIP3    H139209   5.975   4.392  14.685 -1.1700 -1.3290 -0.5092
 5906TIP3    H239210   6.029   4.344  14.552 -0.3964 -0.9100 -0.3580
 5907TIP3   OH239211   1.093   2.825   0.477  0.1452  0.8950 -0.5653
 5907TIP3    H139212   1.074   2.897   0.537  2.0354  0.0262  1.2044
 5907TIP3    H239213   1.022   2.763   0.492  0.4154  0.8406  0.5750
 5908TIP3   OH239214   2.936   0.815  13.931 -0.5359  0.2217  0.4822
 5908TIP3    H139215   3.001   0.770  13.878 -0.6910  0.0165  0.4624
 5908TIP3    H239216   2.975   0.821  14.018 -0.2374  0.6516  0.3236
 5909TIP3   OH239217   0.756   3.202   4.874 -0.4286  1.0807 -0.3244
 5909TIP3    H139218   0.712   3.169   4.953 -0.1063 -0.1838 -0.6460
 5909TIP3    H239219   0.733   3.294   4.871 -0.9634  1.0153  0.9118
 5910TIP3   OH239220   5.179   4.524   4.983  0.3127 -0.0304 -0.4697
 5910TIP3    H139221   5.257   4.496   4.935  0.8022  2.2203 -1.1499
 5910TIP3    H239222   5.117   4.451   4.974  2.8422 -2.6285  1.5312
 5911TIP3   OH239223   3.891   4.923   4.922  0.0643 -0.2172 -0.2505
 5911TIP3    H139224   3.803   4.955   4.903 -0.1859 -0.6152  0.2239
 5911TIP3    H239225   3.892   4.834   4.887  0.0282 -0.4837  0.4110
 5912TIP3   OH239226   4.663   6.254  15.128  0.3005 -0.0481 -0.1099
 5912TIP3    H139227   4.572   6.254  15.098  0.2219 -0.2124  0.1317
 5912TIP3    H239228   4.697   6.340  15.101 -0.8043  1.3230  2.5178
 5913TIP3   OH239229   0.022   2.807   1.638 -0.2992 -0.0230  0.1659
 5913TIP3    H139230   0.017   2.821   1.544 -1.3516  0.3872  0.2699
 5913TIP3    H239231  -0.029   2.879   1.676  0.9242  0.3873  1.0973
 5914TIP3   OH239232   0.035   6.411  15.904  0.4594 -0.8555 -0.5039
 5914TIP3    H139233   0.092   6.360  15.962  0.2024  0.8612  1.3395
 5914TIP3    H239234   0.072   6.499  15.904 -1.6537  0.1216  0.1131
 5915TIP3   OH239235   3.303   2.552   0.954  0.4017  0.1898 -0.3700
 5915TIP3    H139236   3.308   2.644   0.928  1.1201  0.1068 -0.5737
 5915TIP3    H239237   3.391   2.518   0.937 -0.0826 -0.7493 -1.1158
 5916TIP3   OH239238   3.968   0.812  13.731 -0.6883 -0.3382  0.4871
 5916TIP3    H139239   3.931   0.772  13.653  0.6186 -3.1175  1.1818
 5916TIP3    H239240   3.900   0.802  13.798 -1.1860  0.6006  0.1398
 5917TIP3   OH239241   1.206   3.434  16.138 -0.2293 -0.4437  0.6931
 5917TIP3    H139242   1.121   3.469  16.110 -0.5256  0.3703  2.4639
 5917TIP3    H239243   1.259   3.511  16.158  1.7797 -0.8277 -2.4339
 5918TIP3   OH239244   2.317   3.490   1.232 -0.1862  0.2626 -0.0361
 5918TIP3    H139245   2.311   3.580   1.266 -1.6452 -0.0331  0.5442
 5918TIP3    H239246   2.344   3.438   1.307  2.3299  0.3846 -0.7434
 5919TIP3   OH239247   5.705   2.073  13.402  0.6644  0.0785  0.8331
 5919TIP3    H139248   5.793   2.042  13.379  1.2276  2.2137 -0.0769
 5919TIP3    H239249   5.715   2.111  13.489  0.8515  1.0627  0.3911
 5920TIP3   OH239250   2.033   4.380   3.473  0.1401  0.2773 -0.8627
 5920TIP3    H139251   2.037   4.331   3.555 -1.8008 -1.2553 -1.6134
 5920TIP3    H239252   2.122   4.372   3.437  1.0750  1.1284  1.1076
 5921TIP3   OH239253   0.330   1.458   4.665 -0.0195  0.4678 -0.0094
 5921TIP3    H139254   0.371   1.431   4.747  0.5049  1.2765  0.0080
 5921TIP3    H239255   0.280   1.381   4.637  0.5688 -0.1422  0.5710
 5922TIP3   OH239256   6.283   2.761   4.952 -0.0065  0.4137 -0.1872
 5922TIP3    H139257   6.288   2.683   5.006 -2.3964  1.4770  1.7579
 5922TIP3    H239258   6.276   2.728   4.862 -0.6684 -1.5916  0.5576
 5923TIP3   OH239259   6.061   3.265  13.006 -0.2679  0.2888 -0.1815
 5923TIP3    H139260   6.046   3.170  13.008 -1.5697  0.4760  1.3033
 5923TIP3    H239261   6.156   3.275  13.001 -0.1410 -1.0741 -1.0642
 5924TIP3   OH239262   3.229   1.478  13.810 -0.1361 -0.1197  0.2128
 5924TIP3    H139263   3.201   1.568  13.789  2.0693  0.2141 -1.7244
 5924TIP3    H239264   3.309   1.490  13.860 -0.0981 -1.0404  0.3770
 5925TIP3   OH239265   3.159   0.928  11.436 -0.6561 -0.1747  0.0432
 5925TIP3    H139266   3.229   0.910  11.373 -0.5495  1.7954 -0.4622
 5925TIP3    H239267   3.090   0.865  11.413  0.2223 -0.9392 -0.6166
 5926TIP3   OH239268   4.136   4.769   5.699 -0.3013  0.0873 -0.3306
 5926TIP3    H139269   4.214   4.768   5.643  1.4863 -0.9991  1.9907
 5926TIP3    H239270   4.063   4.774   5.638  1.5258 -0.0927 -2.6937
 5927TIP3   OH239271   5.436   1.487  17.063  0.2901 -0.0966 -0.6889
 5927TIP3    H139272   5.388   1.555  17.016  1.3520  0.5924 -0.8123
 5927TIP3    H239273   5.520   1.527  17.085  1.5666 -1.8183 -2.0632
 5928TIP3   OH239274   3.475   0.637  13.615 -0.6933  0.0724  0.4626
 5928TIP3    H139275   3.500   0.620  13.525 -2.1136  0.4014 -0.0116
 5928TIP3    H239276   3.475   0.733  13.623 -0.3047  0.0443  0.9053
 5929TIP3   OH239277   0.770   1.770  10.980  0.4123 -0.1508  0.1295
 5929TIP3    H139278   0.792   1.861  10.999  0.6311 -0.3736  0.9669
 5929TIP3    H239279   0.708   1.746  11.049  0.7672 -0.7941  0.2284
 5930TIP3   OH239280   6.043   0.993   3.273 -0.3008 -0.1721  0.0312
 5930TIP3    H139281   6.007   1.004   3.361 -0.0790  1.2743 -0.0469
 5930TIP3    H239282   6.001   0.913   3.240 -0.0559 -1.0004  1.5991
 5931TIP3   OH239283   5.718   2.012   3.942 -0.3422  0.1208  0.1456
 5931TIP3    H139284   5.745   2.104   3.939 -0.1091  0.0550  0.1610
 5931TIP3    H239285   5.766   1.976   4.016 -0.9389  0.1421  0.5414
 5932TIP3   OH239286   5.974   4.941   0.729  0.4088  1.0586  0.0388
 5932TIP3    H139287   5.976   4.981   0.815 -2.6690 -0.2964  0.8863
 5932TIP3    H239288   5.882   4.945   0.703  0.4414 -2.5506 -1.1580
 5933TIP3   OH239289   6.110   4.374   6.333 -0.3969  0.3310  0.2243
 5933TIP3    H139290   6.120   4.338   6.421 -0.5349 -0.1536  0.0418
 5933TIP3    H239291   6.083   4.465   6.348  0.0112  0.3820  0.6835
 5934TIP3   OH239292   4.061   1.185  10.357  0.0959  0.2095 -0.1913
 5934TIP3    H139293   4.016   1.110  10.396  1.6581 -0.3437  0.6228
 5934TIP3    H239294   3.990   1.239  10.322 -1.1713 -0.8255  0.6535
 5935TIP3   OH239295   2.656   2.200   0.871  0.7463 -0.5447 -0.1962
 5935TIP3    H139296   2.639   2.285   0.830  1.2068  0.2503  1.1901
 5935TIP3    H239297   2.748   2.182   0.850  0.8943 -0.2815  0.2043
 5936TIP3   OH239298   6.341   3.854  14.346 -0.8327  0.2958 -0.2634
 5936TIP3    H139299   6.347   3.763  14.375  1.5974  0.0038 -1.4635
 5936TIP3    H239300   6.373   3.905  14.420  2.2271 -0.2307 -1.0778
 5937TIP3   OH239301   6.524   3.978  12.681  0.1329 -0.1257 -0.0242
 5937TIP3    H139302   6.497   3.928  12.604 -1.5830 -0.4088  0.7175
 5937TIP3    H239303   6.466   3.948  12.751  1.4770  0.3144  1.3323
 5938TIP3   OH239304   0.848   4.703   6.127 -0.4818  0.0867 -0.4052
 5938TIP3    H139305   0.789   4.728   6.056  2.5109  2.1387 -2.4083
 5938TIP3    H239306   0.823   4.759   6.201 -2.1196 -0.3931 -0.5631
 5939TIP3   OH239307   3.250   2.393   3.434  0.2123  0.0074  0.2417
 5939TIP3    H139308   3.183   2.420   3.371  1.8462 -1.2619 -2.1859
 5939TIP3    H239309   3.202   2.343   3.500 -1.2765 -0.7565 -1.3390
 5940TIP3   OH239310   6.168   4.553  12.591  0.2548 -0.0485 -0.1551
 5940TIP3    H139311   6.084   4.595  12.607  1.0842  2.2733 -1.3843
 5940TIP3    H239312   6.173   4.544  12.495  1.2596 -0.4558 -0.0811
 5941TIP3   OH239313   4.991   0.524   1.221  0.4345  0.4439 -0.3305
 5941TIP3    H139314   5.041   0.523   1.139  1.9345  2.1052  0.4868
 5941TIP3    H239315   5.055   0.552   1.287 -0.3575 -2.1546  1.6919
 5942TIP3   OH239316   5.291   2.206  12.809 -0.0358  0.2650  0.1913
 5942TIP3    H139317   5.256   2.145  12.744  1.3111  0.6502 -0.9300
 5942TIP3    H239318   5.266   2.292  12.777  0.3967  0.4456  0.3318
 5943TIP3   OH239319   1.135   3.800  13.126 -0.3330 -0.1366 -0.8287
 5943TIP3    H139320   1.073   3.815  13.055  0.3881  0.1188 -1.4209
 5943TIP3    H239321   1.171   3.713  13.110 -0.2911 -0.1468 -0.6836
 5944TIP3   OH239322   2.861   6.240  14.779 -0.0717 -0.1113  0.0426
 5944TIP3    H139323   2.940   6.295  14.773 -0.7235  0.9680  0.9227
 5944TIP3    H239324   2.789   6.300  14.761 -0.7459 -0.9163  0.0097
 5945TIP3   OH239325   1.562   3.788   4.972 -0.5458  0.1186  0.8787
 5945TIP3    H139326   1.477   3.830   4.984 -0.8417  0.2463 -1.2570
 5945TIP3    H239327   1.545   3.694   4.983 -0.6055  0.2583  2.0854
 5946TIP3   OH239328   0.055   4.430   4.386  0.1942  0.0053 -0.0364
 5946TIP3    H139329   0.038   4.339   4.408 -0.2727  0.3661  1.1993
 5946TIP3    H239330  -0.029   4.474   4.400  0.2420  0.5301 -1.2275
 5947TIP3   OH239331   5.852   0.192   4.485 -0.0331 -0.1222  0.3986
 5947TIP3    H139332   5.866   0.104   4.450 -0.5753 -0.1026  0.1299
 5947TIP3    H239333   5.897   0.191   4.569 -0.2629 -0.7457  0.5229
 5948TIP3   OH239334   4.580   0.460   5.191 -0.1798 -0.5710 -0.0659
 5948TIP3    H139335   4.649   0.420   5.138 -0.1896  0.5369 -0.9401
 5948TIP3    H239336   4.625   0.525   5.244 -0.1044 -1.9472  1.6452
 5949TIP3   OH239337   5.620   2.007   3.092  0.3677  0.1575  0.3067
 5949TIP3    H139338   5.561   2.069   3.135  0.3053  1.0729 -1.0269
 5949TIP3    H239339   5.707   2.031   3.124  0.1823 -0.2294  1.1362
 5950TIP3   OH239340   6.554   1.859   4.848 -0.1057  0.5968 -0.0519
 5950TIP3    H139341   6.530   1.949   4.871 -0.2752  0.5259  0.0532
 5950TIP3    H239342   6.609   1.868   4.770  0.7620  0.8665  0.5704
 5951TIP3   OH239343   5.090   3.686  15.639 -0.6953 -0.3380 -0.1103
 5951TIP3    H139344   5.169   3.739  15.631 -0.3875 -0.6878  0.5339
 5951TIP3    H239345   5.040   3.705  15.560 -0.8936  1.3805  0.4004
 5952TIP3   OH239346   2.666   5.847   1.598  0.0687 -0.0610  0.2524
 5952TIP3    H139347   2.570   5.840   1.601 -0.0180  0.8600 -0.0301
 5952TIP3    H239348   2.683   5.941   1.599  0.9478 -0.2013 -0.6241
 5953TIP3   OH239349   2.865   6.063   0.979 -0.7995 -0.5004 -0.0052
 5953TIP3    H139350   2.822   6.107   0.906 -0.3649  0.2837  0.2023
 5953TIP3    H239351   2.889   5.977   0.945 -0.7675 -0.2090 -0.7335
 5954TIP3   OH239352   0.772   0.448  13.601  0.0857  0.3025 -0.1591
 5954TIP3    H139353   0.854   0.397  13.604  0.1960  0.4210 -0.9772
 5954TIP3    H239354   0.801   0.538  13.585 -0.1787  0.4282  0.0735
 5955TIP3   OH239355   1.305   3.405   4.381 -0.0203 -0.0958  0.0711
 5955TIP3    H139356   1.237   3.415   4.314 -0.4700 -0.9228  0.3945
 5955TIP3    H239357   1.268   3.343   4.444  0.6734  0.1497  0.7299
 5956TIP3   OH239358   1.781   1.720   0.696 -0.5655 -0.0813 -0.1513
 5956TIP3    H139359   1.743   1.791   0.747 -0.2078 -0.0917  0.1328
 5956TIP3    H239360   1.712   1.696   0.634 -0.8720  0.1712  0.0860
 5957TIP3   OH239361   1.155   2.503   1.109  0.6688  0.1082  0.1491
 5957TIP3    H139362   1.142   2.590   1.146 -0.0763  0.2225 -0.3589
 5957TIP3    H239363   1.250   2.497   1.094  0.9284  0.2178  1.6464
 5958TIP3   OH239364   6.096   3.395  16.121 -0.1374 -0.3342  0.0233
 5958TIP3    H139365   6.077   3.383  16.028 -0.9402  0.2490  0.1037
 5958TIP3    H239366   6.126   3.309  16.151  1.0626 -0.2906 -0.9782
 5959TIP3   OH239367   6.313   3.360  12.960 -1.0729 -0.0291 -0.0190
 5959TIP3    H139368   6.304   3.399  12.873  0.0610 -0.7580 -0.4872
 5959TIP3    H239369   6.310   3.434  13.020  2.4871  1.0515 -0.9664
 5960TIP3   OH239370   1.784   5.704  11.529 -0.0351 -0.2209  0.2007
 5960TIP3    H139371   1.841   5.752  11.468  0.6490 -1.6010 -0.2949
 5960TIP3    H239372   1.743   5.637  11.475  0.0767 -1.0545  1.1255
 5961TIP3   OH239373   3.082   1.749  13.768  0.0523 -0.3099  0.0842
 5961TIP3    H139374   3.018   1.820  13.758  0.2540 -0.1174  0.1599
 5961TIP3    H239375   3.034   1.670  13.741  0.1851  0.0074 -1.1263
 5962TIP3   OH239376   0.761   2.048   3.801 -0.5401 -0.1275 -0.5819
 5962TIP3    H139377   0.821   2.117   3.831 -0.7883  0.5807 -1.6660
 5962TIP3    H239378   0.752   1.990   3.877 -2.4547  2.4659  1.3729
 5963TIP3   OH239379   5.307   3.279   3.762 -0.5405  0.5395 -0.5368
 5963TIP3    H139380   5.246   3.346   3.792 -0.1886 -0.0332  1.6014
 5963TIP3    H239381   5.382   3.288   3.821  1.1007  0.6447 -2.5417
 5964TIP3   OH239382   6.569   5.815  13.756  0.2485 -0.1379 -0.4694
 5964TIP3    H139383   6.571   5.789  13.848  1.0486  0.6073 -0.2607
 5964TIP3    H239384   6.510   5.752  13.715 -1.2162  0.3385  0.7950
 5965TIP3   OH239385   4.734   1.366  14.852 -0.1991 -0.8414 -0.0939
 5965TIP3    H139386   4.701   1.408  14.772 -0.2951 -0.8350 -0.0515
 5965TIP3    H239387   4.829   1.374  14.846 -0.1879 -1.1828 -0.3936
 5966TIP3   OH239388   3.494   5.367   1.002 -0.7127  0.2453 -0.0829
 5966TIP3    H139389   3.590   5.362   1.005 -0.7723 -1.2911  0.1154
 5966TIP3    H239390   3.473   5.450   1.046  0.5832  1.6010 -1.8516
 5967TIP3   OH239391   1.380   5.964   4.786  0.1313 -0.0105 -0.3136
 5967TIP3    H139392   1.450   6.029   4.790  0.2852 -0.1116 -1.0724
 5967TIP3    H239393   1.300   6.016   4.779  0.1877  0.1015 -0.1422
 5968TIP3   OH239394   3.809   2.389   1.382 -0.2451  0.0855  0.0178
 5968TIP3    H139395   3.732   2.353   1.426  0.3233  0.3520  1.2852
 5968TIP3    H239396   3.883   2.341   1.419  0.2714  0.4201 -0.5534
 5969TIP3   OH239397   5.237   5.568   6.057 -0.4804  0.4317 -0.7961
 5969TIP3    H139398   5.276   5.531   6.136 -0.7662 -0.5109 -1.0736
 5969TIP3    H239399   5.144   5.544   6.063 -0.6105  0.8370 -1.1478
 5970TIP3   OH239400   5.376   6.058  16.395  0.3389 -0.1405  0.1037
 5970TIP3    H139401   5.407   6.005  16.469 -1.4168 -3.2574 -1.1540
 5970TIP3    H239402   5.289   6.087  16.421  0.7417  0.9583  0.2394
 5971TIP3   OH239403   0.317   4.313  17.171  0.5087 -0.4590  0.1958
 5971TIP3    H139404   0.299   4.395  17.125  0.9104 -0.2301  0.4330
 5971TIP3    H239405   0.232   4.270  17.179 -0.1462  1.0557  2.1758
 5972TIP3   OH239406   1.912   6.076   0.633  0.6078 -0.3695 -0.1946
 5972TIP3    H139407   1.844   6.096   0.697  0.4408 -1.6622  0.0459
 5972TIP3    H239408   1.894   6.136   0.560  0.5498  0.8186  0.7617
 5973TIP3   OH239409   4.744   3.856   2.426 -0.1006  0.0033  0.5416
 5973TIP3    H139410   4.832   3.892   2.438  0.1017  0.5572 -2.0200
 5973TIP3    H239411   4.685   3.926   2.453  0.2312 -0.0640  1.4658
 5974TIP3   OH239412   1.218   5.906  11.960  0.2131  0.3788 -0.2304
 5974TIP3    H139413   1.301   5.936  11.998 -0.3808  1.9797 -0.0935
 5974TIP3    H239414   1.243   5.872  11.874  1.0280  0.8691 -0.2036
 5975TIP3   OH239415   3.095   2.407   5.502  0.4075  0.2211 -0.8119
 5975TIP3    H139416   3.156   2.411   5.575  0.3911 -0.0150 -0.7856
 5975TIP3    H239417   3.113   2.323   5.460 -1.5612 -1.0167  0.6494
 5976TIP3   OH239418   6.433   2.882  16.404  0.2290 -0.0141  0.1335
 5976TIP3    H139419   6.401   2.809  16.350  0.6687  0.5216 -0.8923
 5976TIP3    H239420   6.454   2.950  16.340 -0.5929  1.1793  1.1058
 5977TIP3   OH239421   0.614   2.612   1.493  0.8049 -0.1118  0.4052
 5977TIP3    H139422   0.674   2.579   1.559  2.5934 -0.4294 -1.2990
 5977TIP3    H239423   0.543   2.652   1.543  2.4936  0.4188  2.5099
 5978TIP3   OH239424   6.521   4.274  14.563 -0.5013  0.0555  0.7129
 5978TIP3    H139425   6.578   4.242  14.493 -1.5963  0.8925 -0.6078
 5978TIP3    H239426   6.581   4.311  14.628  0.6163 -1.9455  0.8999
 5979TIP3   OH239427   2.272   1.125   1.000 -0.2204  0.0999 -0.0966
 5979TIP3    H139428   2.244   1.063   1.067 -0.9525  1.3664  0.8307
 5979TIP3    H239429   2.227   1.097   0.920 -1.8303  0.3457  0.6843
 5980TIP3   OH239430   4.116   1.771  14.909  0.2663 -0.6851 -0.5797
 5980TIP3    H139431   4.057   1.715  14.958 -0.3542  0.8169  0.4768
 5980TIP3    H239432   4.171   1.711  14.858  0.9139 -2.3238  1.8979
 5981TIP3   OH239433   5.731   3.700  16.362  0.2247  0.4334  0.5076
 5981TIP3    H139434   5.762   3.745  16.441 -0.2752 -0.6826  1.3556
 5981TIP3    H239435   5.777   3.616  16.362  0.3429  0.4875 -0.4907
 5982TIP3   OH239436   2.767   2.154   2.134 -0.3075 -0.0115  0.2167
 5982TIP3    H139437   2.784   2.184   2.224 -0.5328  1.1849 -0.1305
 5982TIP3    H239438   2.854   2.132   2.099  0.5144  4.1332 -0.8692
 5983TIP3   OH239439   5.794   4.206   2.233  0.0999  0.5480  0.8055
 5983TIP3    H139440   5.847   4.160   2.167  1.9801  0.2051  2.4840
 5983TIP3    H239441   5.704   4.198   2.200  0.9220  0.0889 -1.5260
 5984TIP3   OH239442   5.109   0.316   5.199 -0.0265 -0.0009  0.0674
 5984TIP3    H139443   5.070   0.402   5.189  1.6496  0.6528 -1.2221
 5984TIP3    H239444   5.142   0.315   5.289 -0.3100  0.5741  0.1799
 5985TIP3   OH239445   3.710   1.394  11.862  0.1553 -0.1091 -0.2434
 5985TIP3    H139446   3.770   1.452  11.908 -1.7487  2.1311 -0.4084
 5985TIP3    H239447   3.756   1.371  11.781  0.5161  2.2291 -0.7643
 5986TIP3   OH239448   4.416   4.835  15.680  0.1492 -0.2629 -0.0046
 5986TIP3    H139449   4.407   4.930  15.677 -2.5744 -0.4087  0.5960
 5986TIP3    H239450   4.510   4.819  15.674  0.5861  2.3782 -1.7720
 5987TIP3   OH239451   6.658   2.954   0.984  0.0307  0.1122 -0.3505
 5987TIP3    H139452   6.749   2.930   1.003 -0.4729 -2.1535 -0.4441
 5987TIP3    H239453   6.617   2.964   1.070 -0.5186 -2.9118 -0.1484
 5988TIP3   OH239454   1.843   3.348  16.991  0.2090  0.1463 -0.1499
 5988TIP3    H139455   1.886   3.360  16.906  2.4937 -0.1298  0.8823
 5988TIP3    H239456   1.874   3.421  17.045  1.9565 -1.7181  1.5520
 5989TIP3   OH239457   5.765   0.884  16.170  0.2990  0.2402  0.2514
 5989TIP3    H139458   5.792   0.976  16.172 -0.3132  0.4284 -0.0360
 5989TIP3    H239459   5.841   0.837  16.205  0.9953  0.7617 -0.5107
 5990TIP3   OH239460   4.320   3.367  11.661  0.1484 -0.1260 -0.0275
 5990TIP3    H139461   4.231   3.395  11.642  0.8227  0.1854 -3.3520
 5990TIP3    H239462   4.319   3.272  11.648  0.1922 -0.2265  0.6347
 5991TIP3   OH239463   2.790   5.515   4.013 -0.4048 -0.0738 -0.1661
 5991TIP3    H139464   2.865   5.552   3.967 -1.2684 -0.0290 -1.5872
 5991TIP3    H239465   2.780   5.570   4.090  2.0598 -1.1377  1.0183
 5992TIP3   OH239466   4.309   0.019   5.090  0.6486 -0.0441 -0.0037
 5992TIP3    H139467   4.329   0.029   5.183  0.5450 -0.7975  0.1105
 5992TIP3    H239468   4.216   0.041   5.083  0.7699  0.4787 -0.0154
 5993TIP3   OH239469   2.470   3.081   6.000 -0.7509  0.2411 -0.2168
 5993TIP3    H139470   2.518   2.998   5.999 -0.9278  0.1317 -1.4237
 5993TIP3    H239471   2.539   3.148   6.000 -0.5812  0.1549  2.0806
 5994TIP3   OH239472   2.470   0.493  15.306  0.0281  0.2184 -0.3638
 5994TIP3    H139473   2.474   0.570  15.249 -0.8637 -0.7274 -1.7614
 5994TIP3    H239474   2.412   0.519  15.378 -0.6134  0.7114 -1.0467
 5995TIP3   OH239475   4.259   2.871   4.948  0.4144 -0.5600  0.1439
 5995TIP3    H139476   4.247   2.931   5.021  1.1353 -0.5672  0.2714
 5995TIP3    H239477   4.254   2.927   4.870 -0.0632 -0.5118  0.2038
 5996TIP3   OH239478   3.213   1.855   2.682  0.1002  0.2191  0.0779
 5996TIP3    H139479   3.307   1.862   2.669 -0.0731 -0.9159 -2.6153
 5996TIP3    H239480   3.201   1.773   2.731  0.5147 -0.4952 -0.9581
 5997TIP3   OH239481   2.725   4.854   1.340 -0.1763  0.3461 -0.2315
 5997TIP3    H139482   2.802   4.866   1.395  0.6732  1.9259 -1.6525
 5997TIP3    H239483   2.657   4.908   1.381 -0.4144 -0.6485  0.7379
 5998TIP3   OH239484   1.114   0.500  12.884  0.4975  0.2194 -0.6832
 5998TIP3    H139485   1.099   0.470  12.795  0.6458 -1.7170 -0.1153
 5998TIP3    H239486   1.184   0.565  12.877  0.0653  0.5637 -2.0260
 5999TIP3   OH239487   5.135   3.645   1.913 -0.3867  0.4959  0.7454
 5999TIP3    H139488   5.214   3.615   1.867  0.3319 -1.3657  3.0494
 5999TIP3    H239489   5.090   3.700   1.848  2.4263  1.1058 -0.8830
 6000TIP3   OH239490   1.138   3.271  10.875  0.4942 -0.3608 -0.3077
 6000TIP3    H139491   1.074   3.200  10.863  0.4612 -0.2886 -0.5642
 6000TIP3    H239492   1.087   3.351  10.870  0.5494 -0.3162 -0.1378
 6001TIP3   OH239493   0.009   6.147   5.079  0.2136 -0.3151  0.1774
 6001TIP3    H139494   0.064   6.167   5.003 -1.0216  2.1221 -0.1627
 6001TIP3    H239495   0.066   6.160   5.155  0.8493 -0.5697 -0.2515
 6002TIP3   OH239496   0.177   2.071   3.193  0.2904 -0.4601 -0.1526
 6002TIP3    H139497   0.235   2.007   3.233 -0.1214 -0.4961  0.3949
 6002TIP3    H239498   0.234   2.146   3.174  0.4369 -0.3173  0.7921
 6003TIP3   OH239499   5.547   1.903  11.170  0.6739  0.2504 -0.1132
 6003TIP3    H139500   5.524   1.867  11.084 -1.2530  1.0641 -0.0049
 6003TIP3    H239501   5.540   1.828  11.229 -2.5034  0.4671 -0.0182
 6004TIP3   OH239502   1.489   3.960  16.180  0.3488 -0.4391  0.2543
 6004TIP3    H139503   1.547   4.031  16.210 -0.8096 -0.0953  1.8163
 6004TIP3    H239504   1.548   3.888  16.158  1.4947  0.6698 -0.4270
 6005TIP3   OH239505   2.932   4.387   1.357 -0.0540 -0.4576 -0.1446
 6005TIP3    H139506   2.968   4.439   1.286 -0.4481 -1.3482 -1.0321
 6005TIP3    H239507   2.864   4.442   1.396 -1.6039 -0.8425 -2.1132
 6006TIP3   OH239508   2.700   2.207   3.901  0.2322 -0.1036 -0.0477
 6006TIP3    H139509   2.678   2.134   3.958  1.0591 -0.2012  0.1582
 6006TIP3    H239510   2.795   2.217   3.910  0.1395  0.9874 -0.0717
 6007TIP3   OH239511   2.468   6.031  16.371  0.3439 -0.0311  0.1201
 6007TIP3    H139512   2.451   6.083  16.450 -0.3175  0.4392 -0.3176
 6007TIP3    H239513   2.393   5.972  16.365  0.9758 -0.8838  0.4837
 6008TIP3   OH239514   2.677   6.801   0.533  0.7717  0.2714 -0.5897
 6008TIP3    H139515   2.626   6.825   0.456  1.5280  0.1192 -1.1501
 6008TIP3    H239516   2.745   6.742   0.500  2.1054  1.4672 -0.1010
 6009TIP3   OH239517   5.008   5.649   3.863  0.0701 -0.4957 -0.0468
 6009TIP3    H139518   5.020   5.658   3.768 -1.8305  1.2535 -0.2145
 6009TIP3    H239519   4.973   5.561   3.875  0.7706 -0.9023 -0.9095
 6010TIP3   OH239520   6.050   6.260   4.493 -0.0688  0.2053 -0.1716
 6010TIP3    H139521   6.094   6.214   4.565  1.7690  0.9547 -0.7582
 6010TIP3    H239522   5.996   6.193   4.451 -2.7810  0.1299  2.9746
 6011TIP3   OH239523   1.645   1.452   1.025 -0.2227  0.2710 -0.0661
 6011TIP3    H139524   1.684   1.394   0.959  1.0303  0.0156  0.8672
 6011TIP3    H239525   1.664   1.540   0.993  0.1348  0.1520 -0.1920
 6012TIP3   OH239526   0.901   0.538   4.069 -0.1393 -0.4856 -0.0211
 6012TIP3    H139527   0.895   0.521   3.975  1.8886  0.0206 -0.2898
 6012TIP3    H239528   0.895   0.633   4.077  1.2963 -0.3943  0.1781
 6013TIP3   OH239529   2.199   3.561  12.399  0.4686  0.1746 -0.2825
 6013TIP3    H139530   2.195   3.626  12.329  0.6008 -0.7554 -1.1917
 6013TIP3    H239531   2.254   3.491  12.363 -0.4456 -0.8650  0.2857
 6014TIP3   OH239532   1.952   5.410  11.406  0.0418  0.0608  0.3862
 6014TIP3    H139533   2.043   5.380  11.404  0.2373  0.6577  0.2018
 6014TIP3    H239534   1.921   5.399  11.316 -1.0773 -3.1155  1.0188
 6015TIP3   OH239535   0.917   0.977  16.672  0.0137 -0.3117  0.5843
 6015TIP3    H139536   0.915   0.940  16.584 -1.0388 -1.0077  0.8844
 6015TIP3    H239537   0.919   1.072  16.658  0.5763 -0.4259 -0.1813
 6016TIP3   OH239538   5.864   1.495   4.848  0.1077  0.0150 -0.0969
 6016TIP3    H139539   5.832   1.423   4.902 -0.1530 -0.3546 -0.7296
 6016TIP3    H239540   5.951   1.515   4.883 -0.0986 -0.1424  0.5220
 6017TIP3   OH239541   6.079   1.444   1.622 -0.3340 -0.6072 -0.4346
 6017TIP3    H139542   6.044   1.439   1.533 -0.8451  0.8741 -0.3466
 6017TIP3    H239543   6.006   1.478   1.675  1.0728  2.3742 -0.2043
 6018TIP3   OH239544   1.975   3.334  13.778 -1.1246 -0.3104 -0.0912
 6018TIP3    H139545   1.994   3.384  13.699 -1.2298  0.6576  0.4761
 6018TIP3    H239546   1.950   3.400  13.843 -1.8832 -1.1523  0.5095
 6019TIP3   OH239547   5.063   4.414   4.141 -0.4017  0.6296  0.2361
 6019TIP3    H139548   5.053   4.385   4.050 -1.4453 -0.6383  0.7219
 6019TIP3    H239549   4.973   4.421   4.174 -0.0415  1.1556  1.1538
 6020TIP3   OH239550   3.076   0.896  10.630 -0.0734  0.1330 -0.2961
 6020TIP3    H139551   3.138   0.926  10.563 -2.8079 -0.4548 -3.4102
 6020TIP3    H239552   3.082   0.801  10.628  0.5471  0.1169  1.1583
 6021TIP3   OH239553   5.697   5.272  12.745  0.2135 -0.1035  0.2152
 6021TIP3    H139554   5.756   5.199  12.726 -0.1448 -0.2158 -0.4882
 6021TIP3    H239555   5.729   5.343  12.689  2.1376  1.1247  2.6939
 6022TIP3   OH239556   1.527   1.085   5.770 -0.5912  0.4956  0.2365
 6022TIP3    H139557   1.514   1.103   5.863  0.8105  1.2718  0.2933
 6022TIP3    H239558   1.457   1.133   5.726 -0.8003  0.7405  0.8342
 6023TIP3   OH239559   3.634   4.727  16.530  0.2123  0.3870  0.2109
 6023TIP3    H139560   3.668   4.807  16.571  2.4840 -1.0406  1.3004
 6023TIP3    H239561   3.658   4.736  16.438  0.2881  1.0238  0.2847
 6024TIP3   OH239562   2.527   3.239  13.501  0.4244  0.2994 -0.4353
 6024TIP3    H139563   2.495   3.184  13.430 -0.9392  1.4064 -0.7375
 6024TIP3    H239564   2.518   3.328  13.468  1.1087  0.7833  0.6141
 6025TIP3   OH239565   6.105   2.447   2.034 -0.7038  0.0740 -0.9999
 6025TIP3    H139566   6.018   2.417   2.062  0.2476 -2.0039 -0.0737
 6025TIP3    H239567   6.162   2.431   2.109  0.6219  0.7766 -1.8080
 6026TIP3   OH239568   1.558   4.509  12.914  0.3868 -0.0830  0.2740
 6026TIP3    H139569   1.532   4.601  12.919  0.0427  0.0098 -2.0500
 6026TIP3    H239570   1.652   4.509  12.932  0.8564  1.0738 -1.8518
 6027TIP3   OH239571   6.722   5.022  16.437 -0.4517  0.2069  0.4420
 6027TIP3    H139572   6.815   5.041  16.439 -0.6365  1.4569 -0.8327
 6027TIP3    H239573   6.680   5.108  16.439 -1.4948 -0.2125 -1.1300
 6028TIP3   OH239574   1.207   4.857   6.444 -0.6562  0.0933 -0.1876
 6028TIP3    H139575   1.295   4.892   6.432 -0.5024 -0.4849 -0.8760
 6028TIP3    H239576   1.218   4.788   6.510 -0.2062 -1.2688 -1.6227
 6029TIP3   OH239577   3.680   1.425   0.239  0.4786  0.0233 -0.0353
 6029TIP3    H139578   3.601   1.372   0.223 -1.0931  2.0140  0.6406
 6029TIP3    H239579   3.663   1.469   0.322  2.9585 -0.5331  0.8266
 6030TIP3   OH239580   0.410   1.760  16.940  0.6878 -0.3212  0.5285
 6030TIP3    H139581   0.323   1.797  16.955  0.3311 -0.9669  0.1275
 6030TIP3    H239582   0.470   1.822  16.981  0.1649  1.0316 -0.6288
 6031TIP3   OH239583   4.278   0.858   1.852 -0.0895  0.4100 -0.6513
 6031TIP3    H139584   4.331   0.907   1.789 -0.2567  1.8295  0.2649
 6031TIP3    H239585   4.305   0.891   1.937 -2.0486  0.8056 -0.1263
 6032TIP3   OH239586   4.383   5.896   0.981 -0.0447  0.0758 -0.1898
 6032TIP3    H139587   4.348   5.978   0.947  0.9658  0.7582  0.3426
 6032TIP3    H239588   4.386   5.909   1.076 -0.4129 -0.8051 -0.0449
 6033TIP3   OH239589   1.945   2.340  13.075 -0.4177  1.3471 -0.1582
 6033TIP3    H139590   1.890   2.418  13.068  0.1385  1.6839 -0.9141
 6033TIP3    H239591   2.035   2.373  13.076 -0.1678  0.7135 -0.6943
 6034TIP3   OH239592   6.123   5.825   0.231 -0.0046  0.5433 -0.7289
 6034TIP3    H139593   6.028   5.814   0.231 -0.1137  1.3278 -1.4968
 6034TIP3    H239594   6.138   5.897   0.170  0.9603  1.5133  0.6006
 6035TIP3   OH239595   6.262   1.202   3.467 -0.6312 -0.4021  0.5760
 6035TIP3    H139596   6.264   1.111   3.440  1.3516 -0.6549  1.4006
 6035TIP3    H239597   6.301   1.202   3.555 -1.4271  1.1287  0.9677
 6036TIP3   OH239598   0.246   5.165   6.017  0.0749  0.1650  0.1584
 6036TIP3    H139599   0.210   5.077   6.023  1.0274 -0.3017 -0.7142
 6036TIP3    H239600   0.226   5.205   6.102 -1.4075 -0.4678  0.1461
 6037TIP3   OH239601   1.773   0.959  15.995  0.2872 -0.2795  0.9400
 6037TIP3    H139602   1.725   1.025  16.044 -1.0278 -1.2216  0.9820
 6037TIP3    H239603   1.856   1.001  15.971 -1.9074  2.7729 -2.2583
 6038TIP3   OH239604   0.262   3.465  16.855  0.1276 -0.0853 -0.0922
 6038TIP3    H139605   0.267   3.549  16.901  0.8700 -0.3852  0.3855
 6038TIP3    H239606   0.170   3.439  16.863 -0.3214  1.0948 -1.0074
 6039TIP3   OH239607   4.777   2.835  17.173 -0.3442 -0.6236 -0.2254
 6039TIP3    H139608   4.860   2.881  17.184  0.5192 -2.2121  0.1605
 6039TIP3    H239609   4.796   2.765  17.111 -0.9938 -1.9072  0.9671
 6040TIP3   OH239610   3.009   6.535  16.646  0.3625  0.0933 -0.6872
 6040TIP3    H139611   2.952   6.461  16.667 -1.5186  1.7914  0.5248
 6040TIP3    H239612   2.984   6.560  16.557  0.2770 -0.0903 -0.7159
 6041TIP3   OH239613   5.198   2.325  11.549 -0.1520 -0.5019  0.1367
 6041TIP3    H139614   5.191   2.381  11.627  0.0124  0.7656 -0.7279
 6041TIP3    H239615   5.135   2.362  11.488  0.6958 -0.6377 -0.8364
 6042TIP3   OH239616   3.413   6.266   5.828  0.1621  0.0156  0.0213
 6042TIP3    H139617   3.389   6.210   5.902  0.4828 -0.3046 -0.1121
 6042TIP3    H239618   3.347   6.247   5.762 -0.6421  0.9496  0.5316
 6043TIP3   OH239619   0.056   2.207  15.635  0.5289  0.1912  0.1731
 6043TIP3    H139620  -0.011   2.265  15.598 -1.3233 -1.0031  1.4600
 6043TIP3    H239621   0.071   2.142  15.567  0.9658  0.8903 -0.4136
 6044TIP3   OH239622   4.751   5.757  15.037  0.3081 -0.0042  0.7486
 6044TIP3    H139623   4.824   5.695  15.028  1.1888  0.8643  1.6657
 6044TIP3    H239624   4.749   5.803  14.953  0.0718 -0.8145  0.3013
 6045TIP3   OH239625   0.835   0.422   6.484  0.0150  0.0143 -0.0649
 6045TIP3    H139626   0.803   0.494   6.538 -0.4182 -0.4306  0.2776
 6045TIP3    H239627   0.918   0.454   6.448 -0.1361  0.6512  0.1477
 6046TIP3   OH239628   5.814   1.390   5.391 -0.3681  0.0372 -0.0702
 6046TIP3    H139629   5.863   1.441   5.327  2.3457 -1.1791  0.8789
 6046TIP3    H239630   5.842   1.425   5.476  0.2043 -1.7964  0.5402
 6047TIP3   OH239631   2.640   0.009  11.618 -0.0850  0.1269  0.2913
 6047TIP3    H139632   2.633  -0.054  11.546 -0.9900 -0.1304  0.5906
 6047TIP3    H239633   2.732   0.009  11.641  0.1411 -0.1157 -0.5809
 6048TIP3   OH239634   6.713   1.023   3.813 -0.0499  0.8222 -0.1780
 6048TIP3    H139635   6.669   0.993   3.733  2.7177 -0.3180 -1.3837
 6048TIP3    H239636   6.791   1.069   3.782  0.9496  0.6238  1.8646
 6049TIP3   OH239637   1.931   0.140  13.610  0.4310  0.1602 -0.2221
 6049TIP3    H139638   1.984   0.068  13.643  1.1966  0.4801 -0.7402
 6049TIP3    H239639   1.855   0.142  13.669  0.7684 -0.5780  0.2579
 6050TIP3   OH239640   5.429   6.291  12.905  0.2214 -0.9852  0.8000
 6050TIP3    H139641   5.337   6.289  12.877  0.2795  2.1363  0.0300
 6050TIP3    H239642   5.472   6.224  12.852 -1.2464 -1.1679 -0.2315
 6051TIP3   OH239643   0.809   2.885  16.162  0.1738 -0.0637 -0.5554
 6051TIP3    H139644   0.741   2.896  16.095  1.6751 -0.4880 -2.2343
 6051TIP3    H239645   0.850   2.971  16.168 -0.8497  0.3673  0.9211
 6052TIP3   OH239646   2.232   4.424  17.294 -0.3084  0.1069 -0.1468
 6052TIP3    H139647   2.266   4.471  17.370  0.5422  0.2332 -0.5890
 6052TIP3    H239648   2.145   4.395  17.320  0.3393 -0.6921  1.2304
 6053TIP3   OH239649   1.528   5.300   0.539  0.3776 -0.6966 -0.0122
 6053TIP3    H139650   1.551   5.350   0.461  0.9990 -0.7056  0.1588
 6053TIP3    H239651   1.612   5.270   0.573  0.2835  0.7771  1.6562
 6054TIP3   OH239652   2.592   3.338   4.989 -0.0563 -0.0658 -0.0879
 6054TIP3    H139653   2.591   3.344   5.084  1.4651  1.0471 -0.0842
 6054TIP3    H239654   2.616   3.248   4.970 -0.0151 -0.2002  0.5950
 6055TIP3   OH239655   3.803   0.482  11.308  0.3534 -1.0072 -0.3107
 6055TIP3    H139656   3.724   0.523  11.344  0.8128 -0.3719 -0.0021
 6055TIP3    H239657   3.803   0.506  11.216  1.3964  0.9823  0.1715
 6056TIP3   OH239658   6.317   1.530   6.258 -0.3780  0.1215 -0.2524
 6056TIP3    H139659   6.330   1.571   6.173 -0.2812  0.0322 -0.2811
 6056TIP3    H239660   6.347   1.595   6.321  2.0550 -0.7859 -0.3774
 6057TIP3   OH239661   4.788   2.590   3.667  0.4170 -0.1835  0.5873
 6057TIP3    H139662   4.783   2.660   3.732  1.3519  0.6711 -0.2193
 6057TIP3    H239663   4.824   2.515   3.716 -1.8865 -0.5960  1.7934
 6058TIP3   OH239664   1.013   2.577  14.996  0.3449 -0.3756  0.0912
 6058TIP3    H139665   1.073   2.627  15.050 -1.3705  2.1789 -0.2012
 6058TIP3    H239666   0.939   2.558  15.054  0.9151 -2.6254  0.1765
 6059TIP3   OH239667   6.820   1.511   6.053 -0.1852  0.0286  0.2017
 6059TIP3    H139668   6.849   1.428   6.092  1.5035  0.5263  0.0679
 6059TIP3    H239669   6.893   1.571   6.067 -0.0483  0.6119 -2.4771
 6060TIP3   OH239670   4.191   3.341  10.918  0.3108 -0.1095 -0.5263
 6060TIP3    H139671   4.105   3.345  10.875  0.6749 -0.7225 -1.3222
 6060TIP3    H239672   4.185   3.407  10.988 -0.8794 -0.2746 -0.4360
 6061TIP3   OH239673   1.110   6.143   2.258  0.3465 -0.5982 -0.2090
 6061TIP3    H139674   1.020   6.141   2.224  0.4957  0.0678 -0.6577
 6061TIP3    H239675   1.165   6.124   2.182  0.5914 -1.1015  0.0833
 6062TIP3   OH239676   5.325   4.756  14.119 -0.6696  0.3565 -0.1004
 6062TIP3    H139677   5.281   4.839  14.098 -0.4417  1.0824  2.0374
 6062TIP3    H239678   5.415   4.782  14.142 -0.4989 -0.5266  0.2683
 6063TIP3   OH239679   6.671   4.745   2.075 -1.0477 -0.2034 -0.2623
 6063TIP3    H139680   6.706   4.700   2.152 -0.7970  0.1893 -0.1417
 6063TIP3    H239681   6.654   4.834   2.106 -0.4832  0.0953 -0.7836
 6064TIP3   OH239682   3.878   4.880   3.002 -0.1066  0.2738  0.6980
 6064TIP3    H139683   3.904   4.891   3.093  0.4377  0.8120  0.4792
 6064TIP3    H239684   3.915   4.795   2.977 -0.6990 -0.1166  1.1265
 6065TIP3   OH239685   3.143   6.082   3.394  0.5089  0.5604 -0.0847
 6065TIP3    H139686   3.098   5.997   3.394 -0.4654  1.0592  0.7257
 6065TIP3    H239687   3.198   6.079   3.316  1.4394 -1.3070  0.5644
 6066TIP3   OH239688   0.507   5.680  13.088 -0.4353 -0.0831  0.2269
 6066TIP3    H139689   0.507   5.739  13.164  0.3118 -0.0487  0.2084
 6066TIP3    H239690   0.448   5.722  13.025 -0.2950  0.4009  0.4106
 6067TIP3   OH239691   6.140   5.827  15.632 -0.1594  0.1838  0.4247
 6067TIP3    H139692   6.187   5.902  15.595 -0.3593 -0.7296 -1.8510
 6067TIP3    H239693   6.148   5.758  15.566 -2.1205 -0.9915  1.3001
 6068TIP3   OH239694   0.187   4.781   4.324  0.0727  0.5463  0.2964
 6068TIP3    H139695   0.160   4.863   4.282 -1.6283  0.7176  1.6032
 6068TIP3    H239696   0.119   4.765   4.389  0.5764 -1.7215  0.3238
 6069TIP3   OH239697   1.932   5.960  13.669  0.3688  0.0358 -0.0679
 6069TIP3    H139698   1.839   5.938  13.661 -0.4027  1.4828  3.2030
 6069TIP3    H239699   1.975   5.876  13.685 -0.6994 -0.4561  0.3394
 6070TIP3   OH239700   2.187   6.752  14.837  0.0754 -0.1343 -0.3535
 6070TIP3    H139701   2.159   6.838  14.869 -0.7815 -0.2689 -0.7167
 6070TIP3    H239702   2.233   6.771  14.755 -0.3812 -0.0453 -0.5913
 6071TIP3   OH239703   2.456   4.918   2.133  0.0267  0.4528  0.4733
 6071TIP3    H139704   2.506   4.865   2.194  0.6526  1.7746  1.1448
 6071TIP3    H239705   2.480   5.008   2.154 -0.9673  1.0103 -0.6630
 6072TIP3   OH239706   2.418   3.826   5.613 -0.0031  0.0314  0.2254
 6072TIP3    H139707   2.500   3.852   5.657  0.1217  0.4850 -0.2700
 6072TIP3    H239708   2.423   3.730   5.608  0.8562  0.1015 -0.4767
 6073TIP3   OH239709   6.161   4.445  16.497  0.2622 -0.1726 -0.7030
 6073TIP3    H139710   6.128   4.379  16.436  1.1603 -1.6822  0.3776
 6073TIP3    H239711   6.192   4.395  16.572 -1.5858  1.6651  1.4297
 6074TIP3   OH239712   5.269   3.514   5.078  0.6758 -0.3767  0.0134
 6074TIP3    H139713   5.243   3.480   5.164  0.9990  1.2859  0.8242
 6074TIP3    H239714   5.363   3.498   5.074  0.1891 -3.5900 -1.5908
 6075TIP3   OH239715   4.481   6.299  15.385  0.3716 -0.0331 -0.5032
 6075TIP3    H139716   4.391   6.331  15.376  0.4795  0.1322 -1.0128
 6075TIP3    H239717   4.504   6.267  15.297  1.4335  1.5566 -0.8360
 6076TIP3   OH239718   3.947   1.540   2.450  0.3509 -0.0633 -0.1805
 6076TIP3    H139719   3.986   1.546   2.537 -0.4779 -0.7297  0.2504
 6076TIP3    H239720   4.012   1.492   2.398 -0.8260 -3.5327  1.1906
 6077TIP3   OH239721   3.607   3.572   3.138  0.0703 -0.1526  0.1513
 6077TIP3    H139722   3.595   3.664   3.115  2.9426 -0.1162 -1.8446
 6077TIP3    H239723   3.616   3.528   3.054  3.7488 -1.3189  0.9622
 6078TIP3   OH239724   6.570   3.175   2.005  0.1345  0.1772  0.4456
 6078TIP3    H139725   6.510   3.131   1.944 -1.5129  1.6008  0.9830
 6078TIP3    H239726   6.574   3.116   2.080  0.1255 -0.3598  0.0325
 6079TIP3   OH239727   0.271   0.852  16.818  0.7221  0.1101  0.5645
 6079TIP3    H139728   0.199   0.881  16.762  1.8934  1.2203 -0.4257
 6079TIP3    H239729   0.237   0.774  16.862 -0.8038  0.1570 -0.4475
 6080TIP3   OH239730   5.563   2.131   2.539  0.0220 -0.5490 -0.2122
 6080TIP3    H139731   5.570   2.063   2.473 -0.9874  0.7288 -1.6979
 6080TIP3    H239732   5.654   2.157   2.556  0.2508  1.0246 -3.2513
 6081TIP3   OH239733   5.095   4.372  15.674 -0.1775 -0.1614 -0.2750
 6081TIP3    H139734   5.042   4.447  15.699  1.8955  1.1643  0.4017
 6081TIP3    H239735   5.160   4.407  15.613 -0.6689 -1.9214 -1.9003
 6082TIP3   OH239736   4.348   6.557  16.949 -0.0054 -0.0024 -0.2656
 6082TIP3    H139737   4.285   6.596  16.888 -0.5828  0.1522  0.4275
 6082TIP3    H239738   4.368   6.471  16.911  0.9211  0.7446 -1.5587
 6083TIP3   OH239739   2.157   6.190   0.451  0.1961 -0.3642  0.1553
 6083TIP3    H139740   2.103   6.144   0.387  1.0973 -0.3768 -0.6179
 6083TIP3    H239741   2.132   6.282   0.441 -0.8990 -0.5401  1.0161
 6084TIP3   OH239742   4.161   3.327   5.588 -0.0719  0.1031 -0.3187
 6084TIP3    H139743   4.233   3.354   5.531 -0.2143 -0.5943 -0.8360
 6084TIP3    H239744   4.096   3.396   5.578 -0.2407 -0.1863 -1.2783
 6085TIP3   OH239745   4.219   2.060   5.434 -0.0824  0.2499 -0.3462
 6085TIP3    H139746   4.209   2.060   5.530  0.7861 -3.9984 -0.0614
 6085TIP3    H239747   4.298   2.111   5.418  0.1280  0.4898  1.2934
 6086TIP3   OH239748   5.736   4.561   6.222  0.1152  0.6460 -0.0113
 6086TIP3    H139749   5.777   4.647   6.230  0.0806  0.5380  1.7668
 6086TIP3    H239750   5.691   4.548   6.306 -0.2085 -0.9366 -0.3941
 6087TIP3   OH239751   5.068   0.295  11.438 -0.5254  0.3848 -1.2244
 6087TIP3    H139752   5.093   0.213  11.395 -2.0328  1.2241 -3.9347
 6087TIP3    H239753   5.137   0.357  11.415 -0.3905  0.3864 -0.8311
 6088TIP3   OH239754   5.253   5.385  11.689  0.0834  0.3339 -0.0103
 6088TIP3    H139755   5.228   5.418  11.602 -3.3347 -0.4675  0.5415
 6088TIP3    H239756   5.246   5.462  11.746  0.1506  0.3701 -0.0498
 6089TIP3   OH239757   2.170   6.673  11.975 -1.0055  0.6684 -0.3600
 6089TIP3    H139758   2.197   6.643  12.062  2.1922 -0.3072 -1.5394
 6089TIP3    H239759   2.083   6.636  11.962 -0.2806 -1.8153  1.2401
 6090TIP3   OH239760   2.378   6.229  13.552  0.5686  0.0936  0.0599
 6090TIP3    H139761   2.467   6.218  13.520  0.6193 -0.7892  0.4785
 6090TIP3    H239762   2.387   6.246  13.645  0.3581  1.3761 -0.1415
 6091TIP3   OH239763   3.711   3.594   1.908  0.0892  0.3042 -0.3989
 6091TIP3    H139764   3.782   3.530   1.916  0.0413  0.3775  0.9666
 6091TIP3    H239765   3.660   3.582   1.989 -0.8326  0.9841 -0.8671
 6092TIP3   OH239766   0.496   5.571   3.639 -0.5165  0.6724  0.4264
 6092TIP3    H139767   0.456   5.511   3.576 -2.0129 -0.3880  2.2781
 6092TIP3    H239768   0.474   5.658   3.607 -0.8471  0.1698 -0.7636
 6093TIP3   OH239769   0.373   1.503   3.756 -0.3768 -0.0334  0.0549
 6093TIP3    H139770   0.386   1.518   3.850 -2.0428  0.3818  0.2513
 6093TIP3    H239771   0.413   1.418   3.740 -0.8892 -0.5493  1.3541
 6094TIP3   OH239772   4.857   6.196   5.020  0.0719  0.7778 -0.9765
 6094TIP3    H139773   4.808   6.170   5.097  1.1729  1.3633 -0.0500
 6094TIP3    H239774   4.885   6.114   4.980  1.1699  0.4493  0.3795
 6095TIP3   OH239775   3.581   2.784   5.181 -0.0722 -0.2286 -0.4046
 6095TIP3    H139776   3.591   2.814   5.091 -0.2957  1.2070  0.0294
 6095TIP3    H239777   3.562   2.863   5.232  1.4110 -0.7935  1.1287
 6096TIP3   OH239778   4.393   2.404  10.854  0.1944  0.1737 -0.6709
 6096TIP3    H139779   4.337   2.384  10.928  0.8284 -0.9906 -0.4823
 6096TIP3    H239780   4.333   2.421  10.782 -0.4226 -0.7485 -0.3938
 6097TIP3   OH239781   4.278   6.733  11.931 -0.3984 -0.3096  0.3461
 6097TIP3    H139782   4.343   6.800  11.950 -1.3507  0.8091 -0.2723
 6097TIP3    H239783   4.313   6.686  11.855  0.0703 -0.2701  0.5308
 6098TIP3   OH239784   1.991   4.230  11.236  0.0770 -0.1193  0.1593
 6098TIP3    H139785   1.986   4.198  11.146  1.7510  0.5149 -0.1941
 6098TIP3    H239786   1.996   4.326  11.226 -2.5679  0.1995  1.0853
 6099TIP3   OH239787   2.035   0.900  14.567 -0.1924 -0.4389  0.1609
 6099TIP3    H139788   2.065   0.982  14.606 -1.5827 -0.1563  0.6807
 6099TIP3    H239789   1.957   0.877  14.616 -0.0108 -1.9125 -0.2036
 6100TIP3   OH239790   4.247   2.289   3.677 -0.1845  0.1933 -0.3068
 6100TIP3    H139791   4.228   2.377   3.710  0.8914  0.7946 -1.2224
 6100TIP3    H239792   4.176   2.270   3.616 -0.3130  0.5095 -0.2586
 6101TIP3   OH239793   4.478   6.376  14.784  0.4890  0.0541  0.3093
 6101TIP3    H139794   4.471   6.355  14.877  1.6905 -0.4268  0.3130
 6101TIP3    H239795   4.520   6.299  14.745 -0.3362  0.0920 -0.7051
 6102TIP3   OH239796   1.422   4.097  12.405 -0.0304 -0.2605  0.0524
 6102TIP3    H139797   1.505   4.145  12.402 -0.8183  1.2203  0.7755
 6102TIP3    H239798   1.407   4.068  12.315  1.1586 -0.3663 -0.1231
 6103TIP3   OH239799   3.329   2.832   5.492 -0.4785  0.0776 -0.4396
 6103TIP3    H139800   3.356   2.867   5.577  1.8464  1.6694 -1.7503
 6103TIP3    H239801   3.363   2.743   5.491  0.5466  0.4508 -0.1329
 6104TIP3   OH239802   4.411   1.902  13.906 -0.2319 -0.0339 -0.2157
 6104TIP3    H139803   4.501   1.881  13.931 -0.1161  0.3219 -0.3338
 6104TIP3    H239804   4.358   1.838  13.953  0.1023 -0.4116 -0.3502
 6105TIP3   OH239805   1.597   1.385   3.250 -0.2817 -0.1512  0.8989
 6105TIP3    H139806   1.584   1.480   3.257  1.9040  0.1055  2.8086
 6105TIP3    H239807   1.641   1.373   3.165 -2.5660  0.2128 -0.3998
 6106TIP3   OH239808   5.434   3.393  12.226 -0.2320 -0.1774 -0.4073
 6106TIP3    H139809   5.373   3.319  12.224  0.7105 -0.9659 -0.1649
 6106TIP3    H239810   5.393   3.455  12.287 -0.6720 -0.7990 -0.0566
 6107TIP3   OH239811   3.314   2.054  15.966 -0.0928  0.1647 -0.0022
 6107TIP3    H139812   3.219   2.070  15.965  0.1796  2.0106  0.2704
 6107TIP3    H239813   3.323   1.965  16.001 -1.6491  0.8454  2.3842
 6108TIP3   OH239814   1.623   4.052   2.093  0.4299  0.0092  0.3560
 6108TIP3    H139815   1.546   4.089   2.136  0.4257 -2.4215  2.7484
 6108TIP3    H239816   1.697   4.088   2.142  0.7548  1.0685 -0.8806
 6109TIP3   OH239817   1.176   5.026  12.371  0.2630  0.0945 -0.0447
 6109TIP3    H139818   1.099   5.054  12.421 -0.1322  1.5570 -1.4164
 6109TIP3    H239819   1.178   5.084  12.295  1.5575 -1.2698 -1.1018
 6110TIP3   OH239820   2.674   5.050   5.598  0.8957 -1.2134 -0.0068
 6110TIP3    H139821   2.698   5.098   5.677  0.2366  1.3283 -1.2438
 6110TIP3    H239822   2.757   5.019   5.562  1.5691  0.5863 -0.0782
 6111TIP3   OH239823   1.737   2.971  13.244 -0.1425 -0.4592  0.0228
 6111TIP3    H139824   1.800   2.923  13.191  0.0508  0.3321 -0.4856
 6111TIP3    H239825   1.739   3.060  13.208  0.0479  0.1139  1.4058
 6112TIP3   OH239826   4.553   3.816   5.227  0.2501  0.2910  0.0719
 6112TIP3    H139827   4.531   3.860   5.144  3.3822  1.9983 -0.0201
 6112TIP3    H239828   4.484   3.843   5.288 -1.7610 -0.4735 -1.7201
 6113TIP3   OH239829   6.123   3.561  16.793 -0.4780  0.4222 -0.3894
 6113TIP3    H139830   6.055   3.597  16.851 -0.5404 -0.4304  0.0997
 6113TIP3    H239831   6.137   3.628  16.727 -0.1799  1.5743  0.8008
 6114TIP3   OH239832   0.673   3.780   6.307 -0.3945 -0.1203 -0.3468
 6114TIP3    H139833   0.732   3.753   6.236  1.0528  1.0445  0.3378
 6114TIP3    H239834   0.695   3.722   6.380  0.2853  0.6206  0.0574
 6115TIP3   OH239835   3.778   4.549  15.315 -0.0252  0.0884  0.7706
 6115TIP3    H139836   3.846   4.511  15.259  1.1072  1.8052  0.9121
 6115TIP3    H239837   3.772   4.490  15.390  0.4712 -0.7035  0.1976
 6116TIP3   OH239838   4.574   3.295  14.089 -0.4483 -0.0223 -0.1837
 6116TIP3    H139839   4.569   3.390  14.096  0.6015  0.1716 -1.6329
 6116TIP3    H239840   4.665   3.277  14.066 -0.6877 -1.3503 -0.1776
 6117TIP3   OH239841   6.022   6.743  12.835  0.6737 -0.0878  0.0936
 6117TIP3    H139842   6.116   6.735  12.818  0.8664  0.9159  0.6521
 6117TIP3    H239843   6.015   6.745  12.930 -0.0250 -1.2667  0.0848
 6118TIP3   OH239844   0.903   5.702   6.451 -0.1194 -0.0377  0.0070
 6118TIP3    H139845   0.930   5.719   6.361 -1.7445  2.3096 -0.1247
 6118TIP3    H239846   0.969   5.641   6.485  0.9388 -0.4042 -2.5137
 6119TIP3   OH239847   3.178   5.867   0.722 -0.1363  0.9025 -0.0929
 6119TIP3    H139848   3.233   5.869   0.800 -0.2581  0.5827  0.0044
 6119TIP3    H239849   3.204   5.944   0.672  0.0497  1.0258  0.1906
 6120TIP3   OH239850   2.080   2.096   2.154 -0.2400 -0.1476  0.2675
 6120TIP3    H139851   2.105   2.047   2.233 -0.1980  0.8445  0.8891
 6120TIP3    H239852   2.160   2.099   2.101 -0.4536 -1.4365 -0.1694
 6121TIP3   OH239853   2.668   3.675  14.410 -0.4188 -0.4100 -0.3225
 6121TIP3    H139854   2.580   3.703  14.434 -0.6384  0.4833 -2.0140
 6121TIP3    H239855   2.725   3.715  14.475 -1.1432  0.2370 -0.0790
 6122TIP3   OH239856   1.282   0.994   1.176 -0.4852  0.7159  0.1991
 6122TIP3    H139857   1.294   1.089   1.179  0.0654  0.8032 -2.5424
 6122TIP3    H239858   1.191   0.983   1.148 -1.3760  0.3001  2.9099
 6123TIP3   OH239859   4.508   3.730  13.194  0.7719 -0.6260 -0.1972
 6123TIP3    H139860   4.511   3.646  13.238  1.7204 -0.9290 -0.7939
 6123TIP3    H239861   4.588   3.775  13.223  1.0534 -0.5578 -1.0569
 6124TIP3   OH239862   3.006   6.525   1.979  0.0700 -0.5402  0.4629
 6124TIP3    H139863   3.041   6.494   2.062  1.3319 -0.7436 -0.1152
 6124TIP3    H239864   2.919   6.486   1.973  0.4395 -1.4994  1.1394
 6125TIP3   OH239865   4.772   5.684   2.424 -0.1026  0.1995  0.4025
 6125TIP3    H139866   4.759   5.638   2.341 -0.5175 -2.1503  1.6936
 6125TIP3    H239867   4.687   5.679   2.468  0.3274  0.7394  1.3204
 6126TIP3   OH239868   2.683   2.534  11.427 -0.4449  0.4355  0.5753
 6126TIP3    H139869   2.720   2.620  11.444 -1.2704  1.0324 -0.4975
 6126TIP3    H239870   2.633   2.545  11.346 -0.4630 -1.0821  0.3482
 6127TIP3   OH239871   5.704   1.128  16.546 -0.6434 -0.2276 -0.4818
 6127TIP3    H139872   5.657   1.211  16.537 -0.8161 -0.4338 -1.7949
 6127TIP3    H239873   5.672   1.075  16.473  0.1404 -1.1140 -0.2012
 6128TIP3   OH239874   1.633   5.260  13.322  0.2019 -0.1166 -0.0462
 6128TIP3    H139875   1.702   5.326  13.328 -0.1216  0.2545 -0.3663
 6128TIP3    H239876   1.665   5.187  13.374  1.5766 -0.5957 -1.4837
 6129TIP3   OH239877   1.733   2.455   4.067 -0.1082 -0.0911  0.6510
 6129TIP3    H139878   1.718   2.542   4.030 -1.4800 -1.1180 -1.3779
 6129TIP3    H239879   1.819   2.462   4.109  1.2941  1.4344 -2.1356
 6130TIP3   OH239880   2.274   5.664  13.533  0.3101 -0.0481  0.0998
 6130TIP3    H139881   2.253   5.753  13.561  3.2760 -0.0374  2.9006
 6130TIP3    H239882   2.189   5.620  13.528 -1.0925  2.4454  0.3481
 6131TIP3   OH239883   1.584   5.624  12.764  0.2244  0.5629  0.4634
 6131TIP3    H139884   1.557   5.667  12.845  0.9324  1.6890  0.1372
 6131TIP3    H239885   1.503   5.617  12.713  0.1966  2.3491  0.1819
 6132TIP3   OH239886   4.135   1.935  14.497 -0.0686  0.5408  0.1555
 6132TIP3    H139887   4.217   1.924  14.450  0.1240 -0.4704  0.6947
 6132TIP3    H239888   4.082   1.992  14.440  1.3513  2.0555  0.2783
 6133TIP3   OH239889   4.121   2.701  14.740  0.3158 -0.0087  0.0130
 6133TIP3    H139890   4.170   2.645  14.801  0.1088  0.6304  0.7969
 6133TIP3    H239891   4.073   2.640  14.684  0.5699 -0.6221  0.4473
 6134TIP3   OH239892   0.394   2.700   5.441  0.0761 -0.5077  0.0082
 6134TIP3    H139893   0.428   2.777   5.395  1.3940 -0.6400  0.7098
 6134TIP3    H239894   0.308   2.685   5.403 -0.1708  1.2690 -0.1891
 6135TIP3   OH239895   0.003   5.675  13.567  0.7039 -0.0492  0.2654
 6135TIP3    H139896  -0.066   5.642  13.625  0.6728  0.7660  0.7053
 6135TIP3    H239897   0.081   5.627  13.594  0.3094 -1.0604 -0.3090
 6136TIP3   OH239898   4.098   4.572   2.270 -0.3530  0.3320 -0.0241
 6136TIP3    H139899   4.158   4.636   2.230  0.2473 -0.7366 -0.9002
 6136TIP3    H239900   4.065   4.616   2.348  1.2363  1.1362  0.2501
 6137TIP3   OH239901   1.603   4.369   2.597 -0.1519 -0.4719  0.1783
 6137TIP3    H139902   1.563   4.377   2.510  2.0605 -1.3199 -0.9889
 6137TIP3    H239903   1.645   4.454   2.611 -0.0074 -0.5399  0.1547
 6138TIP3   OH239904   0.442   3.103  14.386 -0.1099  0.8164 -0.2945
 6138TIP3    H139905   0.396   3.068  14.310 -0.5426  0.5977  0.0685
 6138TIP3    H239906   0.505   3.035  14.410 -1.3939 -0.0249  0.8118
 6139TIP3   OH239907   2.440   0.931   2.773  0.0692  0.8057  0.1278
 6139TIP3    H139908   2.369   0.946   2.711 -0.4141 -2.4094 -0.2676
 6139TIP3    H239909   2.510   0.990   2.745 -1.5899  2.3693 -0.8892
 6140TIP3   OH239910   0.530   6.203   6.226 -0.6330  0.0843  0.4343
 6140TIP3    H139911   0.539   6.254   6.306 -2.0183  0.0680  0.6151
 6140TIP3    H239912   0.528   6.112   6.255 -0.9587  0.0680  0.3569
 6141TIP3   OH239913   6.251   2.267   4.808  0.1830 -0.4817 -0.0263
 6141TIP3    H139914   6.156   2.253   4.813  0.1867 -0.6764 -0.4144
 6141TIP3    H239915   6.280   2.270   4.899  0.0889 -2.4022  0.1126
 6142TIP3   OH239916   0.460   2.032   4.059 -0.1468  0.2893  0.2525
 6142TIP3    H139917   0.513   2.111   4.057 -2.7771  2.1856 -0.7751
 6142TIP3    H239918   0.520   1.962   4.034  1.6358  2.4276 -1.9165
 6143TIP3   OH239919   1.135   0.916  16.010  0.4623  0.0548  0.2464
 6143TIP3    H139920   1.146   0.874  16.095  1.9726 -1.0037 -0.4327
 6143TIP3    H239921   1.189   0.995  16.015  0.1743  0.2432  0.4215
 6144TIP3   OH239922   4.494   5.019  13.754 -0.4826 -0.5270  0.2837
 6144TIP3    H139923   4.513   4.951  13.689 -2.6518 -0.7915 -0.1608
 6144TIP3    H239924   4.466   5.095  13.702 -0.8254 -0.2550  0.8463
 6145TIP3   OH239925   6.157   2.206   3.839  0.6695  0.5847  0.2796
 6145TIP3    H139926   6.247   2.206   3.870  0.3271  2.3612  1.3753
 6145TIP3    H239927   6.136   2.298   3.824 -0.7340  0.1478 -0.6819
 6146TIP3   OH239928   4.020   3.073   2.000 -0.0164 -0.3948  0.2786
 6146TIP3    H139929   4.075   3.031   1.934  1.0455 -1.8736  2.0143
 6146TIP3    H239930   3.965   3.003   2.034 -1.3152  0.5746  0.2456
 6147TIP3   OH239931   2.182   4.073   5.924 -0.2869 -0.2159  0.1193
 6147TIP3    H139932   2.226   4.120   5.995 -0.0232  0.7860 -0.6935
 6147TIP3    H239933   2.165   4.140   5.858 -0.9953 -1.0395 -0.5497
 6148TIP3   OH239934   0.727   3.093  12.350 -0.0033 -0.5710 -0.4013
 6148TIP3    H139935   0.730   3.032  12.424 -0.3112  1.2411  1.1789
 6148TIP3    H239936   0.643   3.136  12.358 -0.8074 -1.4967 -2.8770
 6149TIP3   OH239937   6.297   0.867   4.135 -0.3809  0.0533 -0.0218
 6149TIP3    H139938   6.244   0.837   4.061  0.3941  0.5018 -0.7914
 6149TIP3    H239939   6.280   0.805   4.205  1.1229 -2.1717 -1.5122
 6150TIP3   OH239940   2.950   5.187  15.031 -0.0399 -0.0700  0.6920
 6150TIP3    H139941   3.009   5.115  15.008 -1.2377 -2.0745  3.3588
 6150TIP3    H239942   2.981   5.217  15.117 -0.6084  1.4945  0.3869
 6151TIP3   OH239943   4.432   2.954  14.436 -0.2849  0.1206  0.9685
 6151TIP3    H139944   4.460   2.903  14.359 -1.3696 -0.4055  0.9039
 6151TIP3    H239945   4.437   3.045  14.407 -1.1772 -0.0896  0.0907
 6152TIP3   OH239946   1.230   5.036   1.277  0.1355  0.2616 -0.7659
 6152TIP3    H139947   1.168   5.101   1.309  0.2376  0.4783 -1.0051
 6152TIP3    H239948   1.196   4.953   1.309  0.0064  0.4317 -0.4526
 6153TIP3   OH239949   5.173   4.868   3.613 -0.1388  0.5051 -0.0958
 6153TIP3    H139950   5.118   4.792   3.634 -1.1167  0.6453 -1.9318
 6153TIP3    H239951   5.135   4.903   3.532  2.2761  0.9985 -1.0929
 6154TIP3   OH239952   2.272   2.507  13.690  0.3507  0.0513 -0.2468
 6154TIP3    H139953   2.331   2.470  13.623 -0.2978  1.3372 -1.5759
 6154TIP3    H239954   2.288   2.601  13.685 -0.3668  0.2303  0.8051
 6155TIP3   OH239955   5.522   5.246  16.653  0.1691 -0.1992  0.0983
 6155TIP3    H139956   5.563   5.159  16.652  1.9855  0.5966  0.2319
 6155TIP3    H239957   5.540   5.281  16.566  3.2751  1.6123  1.2888
 6156TIP3   OH239958   5.181   4.535   2.142  0.0704  0.3565  0.3668
 6156TIP3    H139959   5.139   4.589   2.075  1.3820 -2.4778 -3.0553
 6156TIP3    H239960   5.140   4.449   2.134  2.0988 -0.7923  1.3188
 6157TIP3   OH239961   0.118   6.259  17.169  0.4706  0.0836  0.2029
 6157TIP3    H139962   0.027   6.263  17.198  0.8715  0.5316  1.4885
 6157TIP3    H239963   0.121   6.313  17.091 -0.4739 -0.3820 -0.1792
 6158TIP3   OH239964   1.925   4.185  13.466  0.5143 -0.0100 -0.7456
 6158TIP3    H139965   1.955   4.203  13.555  1.7878 -1.0492 -0.9537
 6158TIP3    H239966   1.918   4.090  13.461 -0.6953  0.0883 -1.4138
 6159TIP3   OH239967   5.839   1.580   3.212  0.0048 -0.3996  0.4122
 6159TIP3    H139968   5.761   1.577   3.158  0.3991 -0.0900 -0.1927
 6159TIP3    H239969   5.807   1.582   3.302 -0.6979  0.2410  0.1555
 6160TIP3   OH239970   6.100   5.363   1.729 -0.3713  0.5053 -0.7434
 6160TIP3    H139971   6.038   5.418   1.777  0.9617  0.0128  1.6941
 6160TIP3    H239972   6.181   5.414   1.728 -0.1262  0.1139 -1.7510
 6161TIP3   OH239973   4.871   0.247   3.045  0.2910  0.3789  0.2503
 6161TIP3    H139974   4.854   0.252   2.951  1.5762  2.6636  0.0746
 6161TIP3    H239975   4.825   0.323   3.082  1.1368  0.4433  1.2224
 6162TIP3   OH239976   5.407   1.779  15.852 -0.2434  0.0406 -0.0934
 6162TIP3    H139977   5.502   1.795  15.854 -0.5962  2.7787  3.1867
 6162TIP3    H239978   5.378   1.820  15.771  1.1545  0.9612 -0.1788
 6163TIP3   OH239979   2.375   6.654  12.483 -0.4603  0.1226  0.3590
 6163TIP3    H139980   2.324   6.622  12.409  1.9250 -1.4209 -0.7311
 6163TIP3    H239981   2.444   6.707  12.443  1.8057 -1.9900  1.2178
 6164TIP3   OH239982   5.208   6.301  13.565  0.4159  0.1541  0.0183
 6164TIP3    H139983   5.153   6.256  13.500 -0.6275 -1.0648  1.6434
 6164TIP3    H239984   5.298   6.278  13.540 -0.0204 -1.4274 -0.2293
 6165TIP3   OH239985   2.314   2.147  13.057  0.5503 -0.3601  0.0665
 6165TIP3    H139986   2.259   2.176  13.129 -2.3191 -0.0173 -2.1030
 6165TIP3    H239987   2.305   2.052  13.056  1.2657 -0.4426  0.6228
 6166TIP3   OH239988   4.361   0.662  13.666 -0.3375  0.3213  0.0633
 6166TIP3    H139989   4.445   0.620  13.650 -0.7181 -1.3359  1.9688
 6166TIP3    H239990   4.297   0.604  13.624 -0.7159  0.1386  0.8817
 6167TIP3   OH239991   2.236   2.008   2.837  0.9235  0.4631  0.1368
 6167TIP3    H139992   2.211   2.101   2.838  3.4531  1.2202  0.9145
 6167TIP3    H239993   2.313   2.004   2.893  0.4878 -2.2699  0.6449
 6168TIP3   OH239994   1.443   3.530   5.495 -0.0084 -0.3147  0.2376
 6168TIP3    H139995   1.490   3.603   5.453 -0.0725  0.0165  0.7322
 6168TIP3    H239996   1.512   3.474   5.531  0.0272  0.7359  1.9199
 6169TIP3   OH239997   6.728   2.672  13.896 -0.3631  0.0999 -0.1691
 6169TIP3    H139998   6.638   2.650  13.873  0.3271 -1.6325 -1.3724
 6169TIP3    H239999   6.743   2.758  13.856 -1.2158  0.0400 -0.6372
 6170TIP3   OH240000   6.055   3.366   4.491 -0.0114 -0.0092  0.2111
 6170TIP3    H140001   6.088   3.437   4.436 -0.1200  0.8049  1.1690
 6170TIP3    H240002   6.045   3.405   4.577  0.1509 -1.2592  0.8217
 6171TIP3   OH240003   5.658   2.739   2.870  0.0546  0.5977  0.0608
 6171TIP3    H140004   5.614   2.656   2.883 -1.8208  1.6063  0.4733
 6171TIP3    H240005   5.739   2.717   2.824  2.0777 -2.0249  4.3109
 6172TIP3   OH240006   4.460   0.573  14.260 -0.2448  0.2260 -0.0509
 6172TIP3    H140007   4.403   0.553  14.186  1.3964  0.0713 -1.3367
 6172TIP3    H240008   4.528   0.629  14.223 -0.6735  2.1734  1.8922
 6173TIP3   OH240009   0.744   4.624   0.213 -0.0735  0.1200  0.3589
 6173TIP3    H140010   0.669   4.673   0.179  0.6027 -0.0450 -1.5261
 6173TIP3    H240011   0.769   4.567   0.140  2.3344  0.7003  0.6570
 6174TIP3   OH240012   4.579   0.470   3.713  0.0841  0.8897  0.5175
 6174TIP3    H140013   4.521   0.485   3.638 -0.7573  1.9804  1.3547
 6174TIP3    H240014   4.523   0.428   3.778  0.5192  0.9725  0.9491
 6175TIP3   OH240015   0.546   1.534  14.224  0.3601  0.3080  0.2154
 6175TIP3    H140016   0.520   1.569  14.139 -1.3316 -2.4082 -0.5413
 6175TIP3    H240017   0.639   1.512  14.214  0.0517 -0.4759 -1.1875
 6176TIP3   OH240018   0.703   4.637  16.140  0.2289  0.2068 -0.0427
 6176TIP3    H140019   0.714   4.727  16.170 -0.0756 -0.0820  0.9979
 6176TIP3    H240020   0.657   4.644  16.057  0.8666  1.0390 -0.3404
 6177TIP3   OH240021   5.212   1.185  11.567 -0.6897 -0.1894  0.0682
 6177TIP3    H140022   5.225   1.106  11.619  0.7725  0.0397  0.1058
 6177TIP3    H240023   5.187   1.252  11.630  0.5644 -0.0398  0.4355
 6178TIP3   OH240024   2.998   1.740  13.145 -0.0233  0.5200  0.0915
 6178TIP3    H140025   2.924   1.717  13.088 -2.3796  2.5758  2.0521
 6178TIP3    H240026   2.957   1.787  13.218  2.9124 -1.0844  2.9961
 6179TIP3   OH240027   2.313   6.497  11.824  0.2835 -0.0485 -0.1742
 6179TIP3    H140028   2.309   6.534  11.736  2.1534  0.8786  0.0880
 6179TIP3    H240029   2.283   6.568  11.881  2.6315  0.7277  0.2123
 6180TIP3   OH240030   2.474   3.342   4.712  0.1463 -0.4676  0.0199
 6180TIP3    H140031   2.399   3.287   4.690  0.6547 -0.4432 -1.9778
 6180TIP3    H240032   2.517   3.297   4.785 -1.1717 -1.0580  0.4539
 6181TIP3   OH240033   0.722   6.315   3.384  0.1334 -0.4678  0.0333
 6181TIP3    H140034   0.634   6.296   3.352 -0.7560  1.9068  0.8805
 6181TIP3    H240035   0.764   6.229   3.391 -1.9449 -1.6184 -0.8127
 6182TIP3   OH240036   6.166   5.187   4.535 -0.2397  0.1653 -0.4907
 6182TIP3    H140037   6.134   5.277   4.547  1.6374  0.7597  0.4513
 6182TIP3    H240038   6.223   5.192   4.459  3.1601  0.8400  1.8511
 6183TIP3   OH240039   5.116   4.325  12.754 -0.1304  0.1726 -0.1067
 6183TIP3    H140040   5.134   4.329  12.847 -1.8586 -0.8037  0.3013
 6183TIP3    H240041   5.020   4.325  12.747 -0.0864 -1.9002 -1.7532
 6184TIP3   OH240042   0.385   6.200   0.964  0.0919 -0.6921  0.2854
 6184TIP3    H140043   0.316   6.210   1.029 -0.0969 -0.1015  0.0041
 6184TIP3    H240044   0.458   6.161   1.011 -0.3785 -1.1683  0.6246
 6185TIP3   OH240045   5.081   6.359   6.068 -0.0255 -0.2670 -0.1406
 6185TIP3    H140046   5.106   6.439   6.116  0.3608 -1.2867  1.4596
 6185TIP3    H240047   5.035   6.306   6.133  1.1762 -2.0504 -0.6684
 6186TIP3   OH240048   0.062   6.412  13.001  0.0830  0.5569 -0.2425
 6186TIP3    H140049  -0.027   6.412  13.037  0.3842 -1.3785  0.6528
 6186TIP3    H240050   0.114   6.363  13.065  1.0453 -1.3393 -2.3258
 6187TIP3   OH240051   0.897   2.150   0.437 -0.4568 -0.1482  0.1269
 6187TIP3    H140052   0.920   2.082   0.374  1.0057  0.4189  0.0088
 6187TIP3    H240053   0.978   2.200   0.449 -0.9674  0.3546  1.7183
 6188TIP3   OH240054   2.902   1.912  12.138 -0.2465  0.7255  0.2198
 6188TIP3    H140055   2.885   1.960  12.218 -0.0550  1.1257  0.0234
 6188TIP3    H240056   2.937   1.977  12.077 -0.1384  0.3750 -0.1024
 6189TIP3   OH240057   5.100   2.220  13.697  0.4166  0.5861  0.1957
 6189TIP3    H140058   5.177   2.240  13.750  0.3942  0.8927  0.1171
 6189TIP3    H240059   5.106   2.126  13.680 -0.1946  0.2614  1.7075
 6190TIP3   OH240060   1.409   1.051  10.341 -0.3943 -0.0729  1.2304
 6190TIP3    H140061   1.484   1.007  10.381  0.1440  0.3613  0.7052
 6190TIP3    H240062   1.430   1.144  10.346  0.9736 -0.0482 -2.4720
 6191TIP3   OH240063   0.039   5.348  11.977 -0.1873 -0.1288  0.1018
 6191TIP3    H140064  -0.012   5.272  12.006 -0.9639  0.7095  0.9938
 6191TIP3    H240065   0.055   5.398  12.057  0.9045  0.2986 -0.3735
 6192TIP3   OH240066   3.117   5.047  12.637  0.2221  0.3038 -0.4253
 6192TIP3    H140067   3.192   4.988  12.632 -0.5103 -0.6548 -0.3212
 6192TIP3    H240068   3.155   5.134  12.646  1.3314 -0.3511  1.9644
 6193TIP3   OH240069   5.254   1.326   5.080 -0.7651 -0.4170  0.8700
 6193TIP3    H140070   5.341   1.342   5.042 -0.5201 -0.6482  1.3202
 6193TIP3    H240071   5.193   1.361   5.015 -0.2761  2.0166  1.6107
 6194TIP3   OH240072   4.140   4.372   4.964 -0.1989  0.0674  0.2792
 6194TIP3    H140073   4.223   4.408   4.933  0.2008  0.8019  2.0713
 6194TIP3    H240074   4.121   4.300   4.904  2.5457 -1.1606  0.7347
 6195TIP3   OH240075   3.331   5.623   5.774 -0.3753  0.0397  0.4696
 6195TIP3    H140076   3.257   5.682   5.764  0.7306  1.2028 -1.2722
 6195TIP3    H240077   3.398   5.676   5.818  0.3032 -0.1664 -0.2856
 6196TIP3   OH240078   6.196   1.846  17.165  0.8446 -0.0891  0.2236
 6196TIP3    H140079   6.204   1.941  17.171  3.9230 -0.2470  0.3783
 6196TIP3    H240080   6.224   1.825  17.076 -0.4744 -0.8501 -0.0419
 6197TIP3   OH240081   4.426   4.350  10.796 -0.6326  0.5182  0.0674
 6197TIP3    H140082   4.497   4.350  10.731  0.4750 -0.5839  1.2309
 6197TIP3    H240083   4.471   4.346  10.880 -2.0881 -0.1587  0.8335
 6198TIP3   OH240084   1.804   1.479   5.879 -0.0927  0.5905 -0.5382
 6198TIP3    H140085   1.852   1.537   5.938 -1.1402  0.7452  0.1985
 6198TIP3    H240086   1.758   1.539   5.819  0.2001  0.4625 -0.8933
 6199TIP3   OH240087   1.976   2.714  15.013  0.0046 -0.5500 -0.5115
 6199TIP3    H140088   2.057   2.678  15.048 -0.8500 -1.3027  0.7687
 6199TIP3    H240089   1.988   2.809  15.017  0.5067 -0.6470  0.4351
 6200TIP3   OH240090   2.608   0.909  12.306 -0.0443  0.1909 -0.0952
 6200TIP3    H140091   2.579   0.839  12.365 -0.0343 -1.0983 -1.5551
 6200TIP3    H240092   2.703   0.914  12.320 -0.2810  1.2032  1.3245
 6201TIP3   OH240093   0.685   3.149  11.956 -0.1751  0.0452  0.1839
 6201TIP3    H140094   0.691   3.122  11.865 -1.0651 -2.4624  0.7769
 6201TIP3    H240095   0.750   3.095  12.001  0.6552  1.6601  0.9706
 6202TIP3   OH240096   3.749   2.346   1.113 -0.3708 -0.1150  0.2576
 6202TIP3    H140097   3.750   2.413   1.045 -0.7259 -0.7017 -0.3397
 6202TIP3    H240098   3.778   2.392   1.192 -0.5149  0.7176 -0.1551
 6203TIP3   OH240099   3.649   0.617  12.354  0.2410 -0.4441  0.0979
 6203TIP3    H140100   3.635   0.612  12.259  0.2845 -2.1347  0.1498
 6203TIP3    H240101   3.564   0.645  12.389  0.3790  0.7490 -0.4565
 6204TIP3   OH240102   2.275   4.073  14.490 -0.4564 -0.3794 -0.4065
 6204TIP3    H140103   2.290   4.012  14.418 -0.6173 -0.4597 -0.3720
 6204TIP3    H240104   2.290   4.160  14.452 -0.1363 -0.4430 -0.4319
 6205TIP3   OH240105   3.389   1.905  14.904 -0.0148  0.1879  0.5529
 6205TIP3    H140106   3.308   1.855  14.914  1.2623 -2.0801  0.2052
 6205TIP3    H240107   3.428   1.873  14.823  2.5976 -0.9430  2.1128
 6206TIP3   OH240108   2.247   4.652  13.402 -0.0165 -0.1269 -0.1888
 6206TIP3    H140109   2.282   4.717  13.462  1.3251 -1.5568  0.6482
 6206TIP3    H240110   2.197   4.592  13.457 -0.5831 -0.2556 -0.8261
 6207TIP3   OH240111   5.756   2.127   0.300 -0.6027 -0.0900 -0.3840
 6207TIP3    H140112   5.805   2.163   0.373  0.2455 -0.9195 -0.5294
 6207TIP3    H240113   5.735   2.037   0.326 -0.8183 -0.1958 -0.8981
 6208TIP3   OH240114   0.614   5.307   2.247  0.2467 -0.5251  0.3637
 6208TIP3    H140115   0.627   5.294   2.341 -0.4797 -2.7018  0.2122
 6208TIP3    H240116   0.544   5.372   2.242 -0.0644 -0.7569  1.3416
 6209TIP3   OH240117   4.375   4.683  11.881 -0.1192 -0.2445 -0.3573
 6209TIP3    H140118   4.283   4.704  11.893 -0.3462 -1.1247 -0.5027
 6209TIP3    H240119   4.416   4.703  11.966 -0.4946 -0.1325 -0.2032
 6210TIP3   OH240120   2.047   4.171  12.799  0.2282 -0.5152  0.0672
 6210TIP3    H140121   2.010   4.168  12.888  0.7451 -0.1753  0.3013
 6210TIP3    H240122   2.012   4.093  12.756 -0.3135 -0.4936  0.4594
 6211TIP3   OH240123   0.042   2.166   5.627  0.4721 -0.3481 -0.2083
 6211TIP3    H140124   0.069   2.246   5.581  1.0972 -0.5629 -0.2240
 6211TIP3    H240125   0.089   2.095   5.582  3.0717 -0.3652  2.2217
 6212TIP3   OH240126   4.078   5.827  16.291  0.3161  0.0163 -0.2753
 6212TIP3    H140127   4.105   5.804  16.380 -0.3121 -0.2271 -0.1444
 6212TIP3    H240128   3.983   5.825  16.294  0.1341  3.5964  0.0110
 6213TIP3   OH240129   3.109   1.972   0.383 -0.0244  0.0560 -0.2897
 6213TIP3    H140130   3.170   1.977   0.457  0.2525 -0.3172 -0.4895
 6213TIP3    H240131   3.101   2.062   0.352  0.4977  0.0954 -0.3176
 6214TIP3   OH240132   4.180   5.974  14.460  0.0973 -0.0242 -0.3470
 6214TIP3    H140133   4.177   6.068  14.475 -1.2716 -0.0392 -0.3747
 6214TIP3    H240134   4.234   5.963  14.381  0.6262  0.6894 -0.0914
 6215TIP3   OH240135   3.712   1.702  13.480 -0.6617  0.5057 -0.0628
 6215TIP3    H140136   3.770   1.656  13.541 -0.3684 -1.1925 -1.5137
 6215TIP3    H240137   3.651   1.750  13.535  0.1756 -0.2059  1.5447
 6216TIP3   OH240138   5.915   5.920   1.274 -0.4758 -0.0347  0.6206
 6216TIP3    H140139   5.983   5.856   1.257 -1.8848 -1.8581  1.5346
 6216TIP3    H240140   5.882   5.898   1.361 -1.4488  1.5318  0.6894
 6217TIP3   OH240141   4.392   1.893   2.607  0.4860 -0.2533  0.3364
 6217TIP3    H140142   4.380   1.980   2.568  1.8116 -0.2736 -0.1496
 6217TIP3    H240143   4.311   1.847   2.587  0.5372  0.2363 -1.1159
 6218TIP3   OH240144   5.483   5.620  11.532 -0.2921  0.4858  0.3864
 6218TIP3    H140145   5.432   5.674  11.472 -0.3011 -1.1999 -1.1961
 6218TIP3    H240146   5.452   5.531  11.518  1.8645 -0.3688  0.6358
 6219TIP3   OH240147   1.879   5.373   1.394  0.0513 -0.1214 -0.1332
 6219TIP3    H140148   1.853   5.429   1.467  2.4442  1.2488 -0.1988
 6219TIP3    H240149   1.954   5.419   1.355  0.5551 -2.1756 -1.7603
 6220TIP3   OH240150   6.801   4.389  11.410  0.4060  0.3668  0.3562
 6220TIP3    H140151   6.815   4.367  11.318  0.2856 -1.1114  0.6655
 6220TIP3    H240152   6.825   4.309  11.457 -1.0593  0.5681  1.4994
 6221TIP3   OH240153   6.319   6.754   0.086 -0.6985 -0.3013 -0.1471
 6221TIP3    H140154   6.233   6.775   0.122 -1.4190 -1.9766 -0.7609
 6221TIP3    H240155   6.303   6.736  -0.007  0.7006  1.4667 -0.7938
 6222TIP3   OH240156   3.920   5.911   1.706 -0.4229  0.4429 -0.0900
 6222TIP3    H140157   3.914   5.990   1.761 -0.7452  1.4020 -1.4606
 6222TIP3    H240158   3.902   5.839   1.767  0.5238  1.3507  1.3315
 6223TIP3   OH240159   4.911   2.778  11.423  0.1137 -0.3658 -0.0529
 6223TIP3    H140160   4.858   2.857  11.415  0.6733  0.1632  1.2162
 6223TIP3    H240161   4.963   2.776  11.343 -0.9455 -0.2596 -0.7734
 6224TIP3   OH240162   2.852   1.867  13.363  0.2511 -0.0791  0.1496
 6224TIP3    H140163   2.814   1.793  13.410 -1.1838  0.1129 -0.6543
 6224TIP3    H240164   2.777   1.924  13.343  1.2382  1.3258  0.2668
 6225TIP3   OH240165   3.285   6.798   4.332 -0.0744  0.4168  0.2324
 6225TIP3    H140166   3.295   6.892   4.350 -1.6424  0.5195  0.6791
 6225TIP3    H240167   3.239   6.795   4.248 -0.3685  0.0548  0.4051
 6226TIP3   OH240168   0.100   0.458  12.102 -0.0758 -0.5428  0.3956
 6226TIP3    H140169   0.075   0.450  12.010 -0.5108  0.2826  0.4356
 6226TIP3    H240170   0.148   0.540  12.107 -1.3407  0.1791  1.1707
 6227TIP3   OH240171   6.467   5.169   2.261  0.1009  0.0743 -0.4704
 6227TIP3    H140172   6.474   5.262   2.239 -0.0858 -0.5281 -3.4802
 6227TIP3    H240173   6.539   5.154   2.323 -0.2108  2.2850  0.5434
 6228TIP3   OH240174   3.476   1.420  12.972  0.3830 -0.1945 -0.2043
 6228TIP3    H140175   3.530   1.342  12.985  0.3142 -0.6051 -2.0531
 6228TIP3    H240176   3.416   1.397  12.901 -1.0074  0.8799  0.5551
 6229TIP3   OH240177   0.563   3.721  14.139 -0.8781  0.2974  0.2230
 6229TIP3    H140178   0.492   3.699  14.078  0.8758 -0.8465 -1.5060
 6229TIP3    H240179   0.526   3.790  14.195 -3.0639  0.3124 -1.1285
 6230TIP3   OH240180   3.184   0.286  17.153 -0.2519  0.8983  0.1001
 6230TIP3    H140181   3.110   0.269  17.094 -0.0255 -0.5919  0.2085
 6230TIP3    H240182   3.248   0.332  17.099 -0.2245 -0.0608 -0.7089
 6231TIP3   OH240183   5.558   3.727   6.519 -0.2915 -0.7158  0.7949
 6231TIP3    H140184   5.573   3.820   6.503  0.7802 -1.3843 -3.7235
 6231TIP3    H240185   5.634   3.698   6.570  1.9140  0.2021 -1.7415
 6232TIP3   OH240186   4.013   5.453  14.426  0.0812 -0.5959 -0.1427
 6232TIP3    H140187   3.953   5.523  14.453  0.8044 -0.3115  0.7771
 6232TIP3    H240188   4.019   5.396  14.502  1.0290 -0.5763 -0.1953
 6233TIP3   OH240189   1.812   1.436   5.255 -0.1455  0.1334 -0.3099
 6233TIP3    H140190   1.882   1.391   5.301 -2.1164 -0.8741  1.8815
 6233TIP3    H240191   1.842   1.440   5.164  1.7179 -2.3575  0.0958
 6234TIP3   OH240192   1.604   5.678   2.602  0.1222  0.5383 -0.0245
 6234TIP3    H140193   1.528   5.736   2.596 -2.1055 -2.3003 -1.7815
 6234TIP3    H240194   1.639   5.673   2.513  0.4516 -0.5539  0.1422
 6235TIP3   OH240195   5.575   3.331  13.552 -0.1023  0.7928  0.4296
 6235TIP3    H140196   5.502   3.271  13.567  0.2679 -0.3783 -1.8766
 6235TIP3    H240197   5.639   3.278  13.504  0.7269  2.7235 -0.7088
 6236TIP3   OH240198   3.595   4.201  13.539 -0.4635  0.2094  0.0071
 6236TIP3    H140199   3.675   4.180  13.492 -0.8609 -0.8568 -0.2186
 6236TIP3    H240200   3.615   4.181  13.631  0.1214  1.7314  0.2322
 6237TIP3   OH240201   5.168   1.144   0.578 -0.4220  0.1160  0.2654
 6237TIP3    H140202   5.166   1.053   0.608  0.8826  0.0232  0.1010
 6237TIP3    H240203   5.258   1.173   0.592 -0.2850  0.7294 -1.6142
 6238TIP3   OH240204   6.007   2.115   0.449 -0.1894  0.3656 -0.4023
 6238TIP3    H140205   6.039   2.052   0.513 -0.6833  0.2188 -0.2999
 6238TIP3    H240206   6.028   2.201   0.486  0.7827  0.2695 -0.6942
 6239TIP3   OH240207   2.063   0.778   0.295 -0.6590 -0.2164  0.2273
 6239TIP3    H140208   2.103   0.849   0.345  0.3380 -2.0031  2.0806
 6239TIP3    H240209   1.991   0.747   0.350 -1.9392  0.1652 -1.1578
 6240TIP3   OH240210   0.618   5.255   5.107  0.6734  0.7701  0.1033
 6240TIP3    H140211   0.586   5.202   5.035 -0.0164 -0.1188  1.0484
 6240TIP3    H240212   0.663   5.194   5.165  1.1729  1.4638  0.4759
 6241TIP3   OH240213   2.437   6.333   4.783  0.1414 -0.5980  0.0882
 6241TIP3    H140214   2.407   6.279   4.710 -1.7037  0.7843 -0.2719
 6241TIP3    H240215   2.464   6.271   4.850  1.3072 -1.9006 -1.5266
 6242TIP3   OH240216   0.964   4.534  16.547  0.6283  0.0107  0.0063
 6242TIP3    H140217   0.872   4.553  16.528  0.9226  2.1067  0.3776
 6242TIP3    H240218   0.967   4.522  16.642  0.9220  1.5564  0.2299
 6243TIP3   OH240219   1.053   1.465   1.767  0.0798  0.1639  0.0452
 6243TIP3    H140220   1.011   1.400   1.710 -1.5162  0.9471  0.2666
 6243TIP3    H240221   0.981   1.521   1.796  1.6406  3.8623 -2.4253
 6244TIP3   OH240222   1.340   3.969   0.911 -0.1107  0.2838 -0.1490
 6244TIP3    H140223   1.342   3.900   0.977 -2.2090  1.2821  1.0609
 6244TIP3    H240224   1.327   3.923   0.828 -5.2829 -0.8701  0.9234
 6245TIP3   OH240225   5.762   1.404   5.956 -0.1840  0.6664 -0.5256
 6245TIP3    H140226   5.766   1.383   6.050 -1.2182 -0.0133 -0.6189
 6245TIP3    H240227   5.813   1.484   5.948 -0.5859  1.0782  0.7266
 6246TIP3   OH240228   1.212   0.076  15.605 -0.3242  0.0867  0.0328
 6246TIP3    H140229   1.233   0.015  15.534 -1.0904 -1.8485  1.3711
 6246TIP3    H240230   1.280   0.143  15.599  1.9894 -2.1082 -0.1596
 6247TIP3   OH240231   1.071   1.706   4.169  0.0194 -0.7833  0.1956
 6247TIP3    H140232   1.055   1.694   4.263 -0.1753  0.7970  0.3835
 6247TIP3    H240233   1.166   1.697   4.160  0.5162  2.3914  1.1410
 6248TIP3   OH240234   4.149   4.833  11.473  0.0199  0.3849  0.2851
 6248TIP3    H140235   4.177   4.744  11.454  0.5072 -0.0100  2.5778
 6248TIP3    H240236   4.056   4.835  11.449 -0.4684 -1.3094  1.8995
 6249TIP3   OH240237   0.122   1.441   1.816 -0.0658 -0.0950  0.1802
 6249TIP3    H140238   0.113   1.347   1.800 -1.0906 -0.3511  1.9634
 6249TIP3    H240239   0.081   1.483   1.741  1.1333 -1.0235 -1.0504
 6250TIP3   OH240240   3.876   5.853  11.366  0.1545 -1.0748  0.2760
 6250TIP3    H140241   3.846   5.788  11.430  0.6602 -1.4554  0.1334
 6250TIP3    H240242   3.865   5.809  11.281  0.6531 -1.0397  0.1910
 6251TIP3   OH240243   6.707   5.444   0.270 -0.5218 -0.3507 -0.0515
 6251TIP3    H140244   6.631   5.502   0.276 -0.9489 -0.5312 -2.6095
 6251TIP3    H240245   6.725   5.418   0.361 -2.3312  1.1788  0.8072
 6252TIP3   OH240246   1.773   0.592  12.253  0.1479  0.3045  0.0990
 6252TIP3    H140247   1.805   0.580  12.164  0.6340  0.5331  0.2414
 6252TIP3    H240248   1.689   0.546  12.255  0.0614  0.4368 -0.5203
 6253TIP3   OH240249   1.603   3.653  14.442 -0.5823 -0.3503 -0.4888
 6253TIP3    H140250   1.650   3.665  14.524  0.3114 -1.0712 -0.8784
 6253TIP3    H240251   1.591   3.741  14.408 -3.4744  0.2713  1.7393
 6254TIP3   OH240252   1.053   3.992  16.926  0.2944 -0.0267  0.3126
 6254TIP3    H140253   1.007   3.949  16.998 -2.1726  0.4039 -0.9116
 6254TIP3    H240254   1.115   3.925  16.894 -2.3150 -2.2183 -0.5360
 6255TIP3   OH240255   3.163   2.150   5.953 -0.1468  0.4366  0.3691
 6255TIP3    H140256   3.106   2.215   5.995 -1.0722  0.7630 -1.3049
 6255TIP3    H240257   3.249   2.164   5.993 -1.0682  0.3253  2.5469
 6256TIP3   OH240258   4.750   0.492   6.358  0.4119  0.1607  0.4535
 6256TIP3    H140259   4.682   0.521   6.418 -0.7560 -0.6680 -0.4077
 6256TIP3    H240260   4.776   0.406   6.392 -1.3231 -1.0117 -0.9625
 6257TIP3   OH240261   6.718   3.110  12.430  0.6750 -0.2156 -0.2301
 6257TIP3    H140262   6.708   3.165  12.508 -0.5130  0.0287 -0.5365
 6257TIP3    H240263   6.813   3.107  12.415  1.0604 -1.3215  1.9622
 6258TIP3   OH240264   5.112   2.799  12.105 -0.4227 -0.3195  0.4868
 6258TIP3    H140265   5.036   2.855  12.090 -0.0605 -0.3625 -1.9268
 6258TIP3    H240266   5.133   2.811  12.198 -3.3576 -0.3404  1.2624
 6259TIP3   OH240267   4.437   0.371   4.016  0.0640 -0.4873 -0.2748
 6259TIP3    H140268   4.358   0.322   3.994 -0.6066  0.6509 -0.4864
 6259TIP3    H240269   4.407   0.441   4.073  0.9835 -0.2586 -0.0604
 6260TIP3   OH240270   3.793   6.264   6.717  0.2752  0.4501  0.1638
 6260TIP3    H140271   3.853   6.328   6.757 -0.5202  0.1940  1.8273
 6260TIP3    H240272   3.790   6.192   6.779 -0.1332 -0.4895 -0.9205
 6261TIP3   OH240273   4.799   5.725   3.184 -0.4802 -0.0586  0.2542
 6261TIP3    H140274   4.864   5.655   3.192  0.1929  0.4399 -0.7465
 6261TIP3    H240275   4.841   5.791   3.130 -1.6971  0.4271 -0.1250
 6262TIP3   OH240276   2.984   2.095  16.393 -0.2671  0.7831 -0.3225
 6262TIP3    H140277   3.062   2.063  16.349 -0.0365  1.5022 -0.4475
 6262TIP3    H240278   2.937   2.016  16.420 -2.2447  0.0799 -4.9018
 6263TIP3   OH240279   4.197   4.086  17.186  0.1627 -0.5936 -0.2496
 6263TIP3    H140280   4.199   4.072  17.091  0.6595  0.5507 -0.4263
 6263TIP3    H240281   4.111   4.123  17.203  1.0263  1.8394 -0.7049
 6264TIP3   OH240282   0.285   4.664  12.238 -0.0296 -0.2622  0.0954
 6264TIP3    H140283   0.378   4.646  12.250 -0.6958 -3.2142  1.8929
 6264TIP3    H240284   0.281   4.757  12.213  3.3036  0.1806  0.7946
 6265TIP3   OH240285   1.952   4.837  13.601 -0.5799 -1.0756 -0.0390
 6265TIP3    H140286   1.931   4.928  13.621  0.4189 -1.1527  1.5839
 6265TIP3    H240287   1.994   4.841  13.515 -0.3518  0.0338  0.1017
 6266TIP3   OH240288   5.123   5.495   1.019 -0.2817 -0.0508  0.8852
 6266TIP3    H140289   5.031   5.518   1.006 -0.0928  0.4473  0.4166
 6266TIP3    H240290   5.171   5.573   0.992  0.2423  0.0533  2.0539
 6267TIP3   OH240291   0.786   4.241  16.585 -0.2638 -0.0860  0.7174
 6267TIP3    H140292   0.867   4.243  16.534 -0.5282 -0.2833  0.2902
 6267TIP3    H240293   0.744   4.158  16.562 -0.8827  0.2848  0.4717
 6268TIP3   OH240294   6.618   1.190   5.617  0.2072  0.2359 -0.9621
 6268TIP3    H140295   6.640   1.192   5.710 -2.5180 -0.9533 -0.1806
 6268TIP3    H240296   6.688   1.240   5.575  0.6995  2.1846  1.8759
 6269TIP3   OH240297   5.067   1.438  12.473  0.2569  0.2921  0.3947
 6269TIP3    H140298   5.075   1.450  12.567  2.3201  0.0983  0.2798
 6269TIP3    H240299   5.117   1.510  12.435 -0.3302  0.2194 -0.5700
 6270TIP3   OH240300   1.043   0.395   1.376  0.6988  0.1160 -0.4610
 6270TIP3    H140301   1.072   0.304   1.374  0.3452  0.0052 -0.5873
 6270TIP3    H240302   1.083   0.431   1.455  0.3051 -0.3280 -0.0565
 6271TIP3   OH240303   0.217   4.655   3.809 -0.3489 -0.0077 -0.2854
 6271TIP3    H140304   0.234   4.728   3.749  0.2764  0.1182  0.0355
 6271TIP3    H240305   0.228   4.692   3.896 -0.2977 -0.4198 -0.1134
 6272TIP3   OH240306   3.030   0.752  14.712  0.1295  0.2971 -0.6147
 6272TIP3    H140307   3.111   0.701  14.708  0.1483  0.3758 -1.5064
 6272TIP3    H240308   2.962   0.687  14.731  0.0838 -0.1720 -2.2213
 6273TIP3   OH240309   2.822   5.614   0.587  0.5684 -0.5890  0.4046
 6273TIP3    H140310   2.733   5.586   0.567  0.7672 -1.5011  0.7434
 6273TIP3    H240311   2.811   5.692   0.641  0.0146  0.8564 -1.6636
 6274TIP3   OH240312   3.728   5.964  12.549  0.1849  0.1190 -0.5704
 6274TIP3    H140313   3.684   6.035  12.503 -0.6280 -0.1874 -0.2858
 6274TIP3    H240314   3.716   5.887  12.493 -2.4087 -0.6835  0.9118
 6275TIP3   OH240315   1.199   1.618  15.539 -0.2404  0.7101  0.0453
 6275TIP3    H140316   1.234   1.706  15.553  1.5577  0.2334 -1.1136
 6275TIP3    H240317   1.145   1.625  15.461 -0.8721  0.9543  0.4912
 6276TIP3   OH240318   2.802   1.333   1.777 -0.6181 -0.3798  0.4367
 6276TIP3    H140319   2.728   1.392   1.759  2.0468  3.6010  1.1043
 6276TIP3    H240320   2.773   1.280   1.851 -2.4166  2.0981  1.6780
 6277TIP3   OH240321   4.948   6.669   0.079 -0.0502 -0.4188 -0.5861
 6277TIP3    H140322   4.885   6.738   0.059 -1.8098 -1.6540  0.4548
 6277TIP3    H240323   5.028   6.697   0.035 -1.6548  0.5426 -3.1212
 6278TIP3   OH240324   0.383   6.478   1.754 -0.2806  0.0216  0.1513
 6278TIP3    H140325   0.344   6.565   1.753 -0.7656 -0.1882 -0.2770
 6278TIP3    H240326   0.313   6.420   1.723 -0.0576 -0.5610  0.7002
 6279TIP3   OH240327   3.853   4.708  11.551 -0.7651 -0.9855  0.0023
 6279TIP3    H140328   3.843   4.771  11.479  0.6570 -1.8956 -1.0599
 6279TIP3    H240329   3.826   4.756  11.629 -0.4563  0.6963 -0.8710
 6280TIP3   OH240330   0.292   0.972  16.248 -0.0030  0.0823 -0.3272
 6280TIP3    H140331   0.384   0.993  16.266  1.0510 -2.6622 -1.8017
 6280TIP3    H240332   0.282   0.987  16.154 -1.0555  0.2456 -0.2016
 6281TIP3   OH240333   0.015   0.885  13.438  0.2508  0.4318  0.1635
 6281TIP3    H140334   0.096   0.912  13.481  0.2468 -3.0507  2.7824
 6281TIP3    H240335  -0.054   0.929  13.486  0.4497  0.0380  0.8215
 6282TIP3   OH240336   2.874   2.350  16.266 -0.1223 -0.6984  0.0905
 6282TIP3    H140337   2.899   2.289  16.336  0.8125  0.8801  1.1797
 6282TIP3    H240338   2.862   2.434  16.309 -3.7467 -0.4714 -0.9799
 6283TIP3   OH240339   1.604   6.432  12.732  0.3082 -0.2074 -0.1324
 6283TIP3    H140340   1.515   6.399  12.741 -0.7202  2.3177 -0.3466
 6283TIP3    H240341   1.605   6.513  12.782  3.1638 -1.2045  1.7197
 6284TIP3   OH240342   6.599   1.333  16.547 -0.0826 -0.4858  0.5649
 6284TIP3    H140343   6.629   1.308  16.634 -0.7779 -0.2245  0.8869
 6284TIP3    H240344   6.552   1.256  16.514  1.0817 -0.9678 -0.0224
 6285TIP3   OH240345   4.407   2.124  14.543  0.2415  0.1810 -0.2973
 6285TIP3    H140346   4.424   2.218  14.547 -0.8876  0.4893 -1.7745
 6285TIP3    H240347   4.461   2.087  14.613 -2.9261  2.4055  3.7941
 6286TIP3   OH240348   2.733   4.800   3.708  0.0009  0.2181 -0.1840
 6286TIP3    H140349   2.807   4.742   3.724 -1.4988 -2.9749 -3.4967
 6286TIP3    H240350   2.656   4.744   3.715 -1.7556  2.2797 -1.4979
 6287TIP3   OH240351   3.703   3.102  16.282  0.3109  0.1175  0.1858
 6287TIP3    H140352   3.765   3.166  16.317 -0.0761  0.8953 -0.5274
 6287TIP3    H240353   3.755   3.047  16.224  0.7647 -0.6032  1.2344
 6288TIP3   OH240354   1.767   2.451  15.516 -0.0534 -0.1443 -0.0476
 6288TIP3    H140355   1.733   2.389  15.452  2.5985 -0.8201 -0.9227
 6288TIP3    H240356   1.797   2.526  15.464  1.9863 -0.6347  0.3393
 6289TIP3   OH240357   5.294   5.019  14.146  0.4298  0.0024 -0.4564
 6289TIP3    H140358   5.237   5.096  14.153  0.7689  0.2015  0.2046
 6289TIP3    H240359   5.379   5.050  14.177  0.5474 -0.6667 -0.1015
 6290TIP3   OH240360   6.144   2.191   3.501  0.0013  0.0948 -0.3929
 6290TIP3    H140361   6.189   2.142   3.432 -1.2611 -0.9135 -0.5304
 6290TIP3    H240362   6.150   2.133   3.578  0.8695  0.9466  0.2073
 6291TIP3   OH240363   4.799   6.443   3.284 -0.0772 -0.0694  0.5991
 6291TIP3    H140364   4.827   6.495   3.208  1.2778  0.5547  1.5043
 6291TIP3    H240365   4.876   6.392   3.308 -1.4379 -2.8675 -0.4676
 6292TIP3   OH240366   6.375   6.651  14.490  0.1816  0.3135 -0.6798
 6292TIP3    H140367   6.342   6.741  14.492 -2.1926 -0.4914  0.1217
 6292TIP3    H240368   6.377   6.624  14.582 -0.3428 -0.8324 -0.9875
 6293TIP3   OH240369   1.706   1.491  16.575  0.3660 -0.1500 -0.6340
 6293TIP3    H140370   1.658   1.507  16.656 -0.5308 -1.4786 -0.8670
 6293TIP3    H240371   1.720   1.578  16.538  1.8693  0.6113  1.5073
 6294TIP3   OH240372   1.124   6.140   1.535  0.0741  0.3245 -0.0638
 6294TIP3    H140373   1.111   6.228   1.500  1.2000  0.2719 -0.6534
 6294TIP3    H240374   1.155   6.088   1.460  0.5115 -0.2953  0.5330
 6295TIP3   OH240375   4.154   1.674   5.601 -0.3351 -0.2692 -0.5422
 6295TIP3    H140376   4.173   1.708   5.514 -0.8998  0.6258 -0.3246
 6295TIP3    H240377   4.239   1.655   5.639  0.1908  3.0998  0.2108
 6296TIP3   OH240378   6.806   3.402  16.635  0.1492  0.3097 -0.2625
 6296TIP3    H140379   6.812   3.430  16.544 -0.2906  0.9611 -0.1011
 6296TIP3    H240380   6.830   3.480  16.685 -2.7819  0.9940  0.2463
 6297TIP3   OH240381   6.461   1.896  17.303 -0.6066  0.4834  0.3901
 6297TIP3    H140382   6.540   1.861  17.262  0.2540  1.5099  1.1225
 6297TIP3    H240383   6.399   1.906  17.231  0.1726  0.3458 -0.3175
 6298TIP3   OH240384   5.371   6.184  13.154  0.5031  0.2956 -0.4643
 6298TIP3    H140385   5.413   6.211  13.072  2.6919  1.9508  1.0891
 6298TIP3    H240386   5.420   6.229  13.223 -1.3480 -0.8863  1.7950
 6299TIP3   OH240387   1.515   1.443  10.584 -0.4761 -1.4562 -0.1461
 6299TIP3    H140388   1.537   1.440  10.491  0.8975  3.0393 -0.1868
 6299TIP3    H240389   1.427   1.479  10.587  0.5228  1.1157  0.2140
 6300TIP3   OH240390   3.027   1.875   3.957 -0.0340 -0.0364 -0.0020
 6300TIP3    H140391   2.964   1.810   3.926  0.6811 -0.5114 -0.4986
 6300TIP3    H240392   2.975   1.937   4.008 -1.1439  0.3880 -1.5617
 6301TIP3   OH240393   0.013   5.580   2.971  0.6161  0.0692 -0.1677
 6301TIP3    H140394   0.017   5.673   2.992 -0.1152  0.1525 -0.3859
 6301TIP3    H240395  -0.045   5.542   3.036  0.7440 -0.2033 -0.2088
 6302TIP3   OH240396   2.888   3.702   1.751 -0.4028  0.9390  0.6826
 6302TIP3    H140397   2.901   3.772   1.687  0.8171  0.2442  0.1284
 6302TIP3    H240398   2.799   3.670   1.733  0.0888  0.4228 -1.0305
 6303TIP3   OH240399   6.822   0.046   1.330  0.3035  0.4590 -0.7110
 6303TIP3    H140400   6.844   0.035   1.423 -0.5308 -0.0764 -0.5690
 6303TIP3    H240401   6.901   0.083   1.292  0.3525  1.5306  0.3773
 6304TIP3   OH240402   1.347   0.740  15.234  0.1071  0.4199 -0.6655
 6304TIP3    H140403   1.375   0.802  15.301  1.4615 -1.0484  0.1946
 6304TIP3    H240404   1.424   0.729  15.178  0.2874 -1.3390 -0.1166
 6305TIP3   OH240405   4.764   3.658  17.175  0.2683  0.8840 -0.2562
 6305TIP3    H140406   4.799   3.590  17.232 -0.3415 -0.5137 -1.4721
 6305TIP3    H240407   4.670   3.642  17.173  0.1869  1.3639 -1.0664
 6306TIP3   OH240408   2.874   2.337   3.443  0.7099 -0.0691 -0.1315
 6306TIP3    H140409   2.799   2.280   3.459  1.1891 -0.3958  1.1028
 6306TIP3    H240410   2.950   2.280   3.455  1.1719  0.4751 -0.4038
 6307TIP3   OH240411   5.992   0.679  12.892 -0.0418 -0.1649 -0.1503
 6307TIP3    H140412   5.962   0.770  12.896  0.1473 -0.1001 -0.1796
 6307TIP3    H240413   5.926   0.635  12.838  0.6737  0.2954 -1.4374
 6308TIP3   OH240414   2.130   0.654   4.232  0.1053 -0.1406  0.1695
 6308TIP3    H140415   2.073   0.704   4.174  1.5857  0.8671 -0.4708
 6308TIP3    H240416   2.076   0.582   4.262 -0.8911 -0.4088 -2.0589
 6309TIP3   OH240417   2.917   6.673   5.186 -0.6374 -0.4437  0.0293
 6309TIP3    H140418   2.901   6.588   5.226 -0.9671  0.0355  0.9354
 6309TIP3    H240419   2.850   6.681   5.118  0.6600 -1.7712 -1.4677
 6310TIP3   OH240420   6.615   1.562   0.706 -0.6342  0.0095  0.0174
 6310TIP3    H140421   6.648   1.491   0.761 -1.5538 -1.6241 -1.4304
 6310TIP3    H240422   6.675   1.565   0.632 -1.4650 -0.3463 -0.6942
 6311TIP3   OH240423   6.328   5.730  16.113 -0.4978  1.1420 -0.4271
 6311TIP3    H140424   6.330   5.719  16.018 -0.1062 -0.5342 -0.2479
 6311TIP3    H240425   6.356   5.821  16.127 -0.1451  1.2795 -1.8799
 6312TIP3   OH240426   6.580   6.593  16.363  0.4847 -0.4382 -0.7165
 6312TIP3    H140427   6.596   6.500  16.376 -0.1300 -0.3049  1.2105
 6312TIP3    H240428   6.640   6.637  16.423 -0.7110  0.3230 -0.0511
 6313TIP3   OH240429   1.504   4.107   3.709  0.6365  0.3298 -0.7660
 6313TIP3    H140430   1.526   4.182   3.654  0.0308 -0.0434 -1.5444
 6313TIP3    H240431   1.488   4.035   3.647  4.4584 -1.4372  0.0059
 6314TIP3   OH240432   3.921   6.185   5.094  0.5090 -0.0340  0.2970
 6314TIP3    H140433   3.964   6.102   5.072  0.5076  0.5231 -2.0167
 6314TIP3    H240434   3.832   6.160   5.119  0.2002 -0.6844 -1.3423
 6315TIP3   OH240435   3.703   2.990   0.811 -0.1156  0.3367 -0.0851
 6315TIP3    H140436   3.627   3.026   0.764  1.1509  2.1910 -0.8413
 6315TIP3    H240437   3.773   2.992   0.746  1.1913  1.0189  1.3037
 6316TIP3   OH240438   3.695   5.585   1.761 -0.0432  0.2623  0.2497
 6316TIP3    H140439   3.779   5.614   1.796 -0.2116  1.2730 -0.1317
 6316TIP3    H240440   3.713   5.565   1.669 -0.0405 -0.3537  0.3834
 6317TIP3   OH240441   5.376   6.009  16.099 -0.1675 -0.1353  0.4222
 6317TIP3    H140442   5.336   6.044  16.179  2.8135  1.7875  1.2530
 6317TIP3    H240443   5.416   5.926  16.127 -0.7679 -0.4394  0.3998
 6318TIP3   OH240444   5.010   0.108   0.473  0.0782 -0.1058 -0.0181
 6318TIP3    H140445   4.932   0.066   0.508  0.0669  0.7380  1.0169
 6318TIP3    H240446   5.076   0.038   0.472 -0.2876 -0.4663  0.4588
 6319TIP3   OH240447   1.826   5.389   5.410  0.0395 -0.2802 -0.1328
 6319TIP3    H140448   1.837   5.309   5.462  1.7959 -1.4173 -2.0494
 6319TIP3    H240449   1.911   5.432   5.414 -0.3229  0.5046 -0.6528
 6320TIP3   OH240450   2.218   5.955  16.135  0.5344 -0.1945  0.0205
 6320TIP3    H140451   2.228   5.900  16.213 -0.8530  0.0528  0.4032
 6320TIP3    H240452   2.263   5.908  16.065  1.5570 -0.5626  0.8951
 6321TIP3   OH240453   1.459   0.389   2.046  0.2978  0.3531 -0.4348
 6321TIP3    H140454   1.504   0.308   2.069 -0.7537 -0.0294  0.3181
 6321TIP3    H240455   1.523   0.458   2.068 -0.1309 -0.0590  2.5453
 6322TIP3   OH240456   1.933   4.393   0.973 -0.2776 -0.2015  0.6901
 6322TIP3    H140457   1.992   4.345   1.030  1.6933  1.1035 -0.1285
 6322TIP3    H240458   1.986   4.415   0.896 -1.0475  3.1147  0.9444
 6323TIP3   OH240459   1.482   3.201  13.321  0.3127  0.3899  0.2365
 6323TIP3    H140460   1.503   3.267  13.254 -1.6207  0.4906 -0.3202
 6323TIP3    H240461   1.396   3.227  13.354  0.6302 -0.4442  1.8208
 6324TIP3   OH240462   0.553   2.021   0.456  0.2054 -0.1557 -0.0697
 6324TIP3    H140463   0.490   1.961   0.496  1.1175  0.5780  2.6457
 6324TIP3    H240464   0.513   2.108   0.465  0.4912  0.0407 -0.6635
 6325TIP3   OH240465   5.220   4.871   5.579  0.3383  0.1192  0.2674
 6325TIP3    H140466   5.297   4.875   5.635 -1.2049  0.7224  2.4567
 6325TIP3    H240467   5.214   4.779   5.553  0.9334 -0.2434  1.3349
 6326TIP3   OH240468   0.408   0.763   4.060 -0.6216  0.6632  0.4691
 6326TIP3    H140469   0.346   0.808   4.003 -2.1089 -2.2717 -0.4887
 6326TIP3    H240470   0.407   0.812   4.142 -1.6798  2.6012 -0.6375
 6327TIP3   OH240471   3.099   1.428  15.427  0.0568 -0.2805  0.1704
 6327TIP3    H140472   3.163   1.481  15.379 -0.5119  0.4037  0.1553
 6327TIP3    H240473   3.147   1.349  15.452  0.4752 -0.4958 -1.2113
 6328TIP3   OH240474   2.278   3.498  13.738  0.1252  0.6990  0.0119
 6328TIP3    H140475   2.244   3.457  13.817 -1.2592  1.0221 -0.3912
 6328TIP3    H240476   2.356   3.447  13.716  0.0657  0.1075  1.1222
 6329TIP3   OH240477   3.214   2.626   4.103 -0.4907 -0.5152  0.0904
 6329TIP3    H140478   3.147   2.595   4.043  2.6944 -1.4046 -3.4316
 6329TIP3    H240479   3.232   2.716   4.074  0.4826 -0.6496  0.2189
 6330TIP3   OH240480   0.849   3.477   4.623 -0.1052  0.2040  1.0886
 6330TIP3    H140481   0.798   3.397   4.607  1.1654 -0.2780 -0.8742
 6330TIP3    H240482   0.833   3.532   4.546 -0.8007  1.8161  2.3135
 6331TIP3   OH240483   0.343   0.212   4.761  0.1942 -0.0110  0.6074
 6331TIP3    H140484   0.349   0.214   4.666 -2.5110  0.5988  0.3565
 6331TIP3    H240485   0.427   0.245   4.792  0.4950  1.4942 -1.6150
 6332TIP3   OH240486   5.768   3.524  11.957  0.1771 -0.3364 -0.1002
 6332TIP3    H140487   5.686   3.475  11.948  0.4452 -1.1066  1.3011
 6332TIP3    H240488   5.830   3.476  11.902  0.2506 -1.1635  0.6760
 6333TIP3   OH240489   3.980   3.582  10.835 -0.6896 -0.3590  0.1642
 6333TIP3    H140490   4.050   3.523  10.808 -2.0507 -2.3571  0.7209
 6333TIP3    H240491   4.009   3.669  10.807  2.4524 -0.9154  1.2604
 6334TIP3   OH240492   6.573   5.592  16.171 -0.1255 -0.4134 -0.3739
 6334TIP3    H140493   6.510   5.522  16.188  0.4726 -0.5445  1.4559
 6334TIP3    H240494   6.520   5.663  16.134 -1.3549 -0.5185  1.1069
 6335TIP3   OH240495   4.703   2.302   5.436  0.1497  0.7146 -0.2122
 6335TIP3    H140496   4.787   2.345   5.419 -0.3953  1.9424  0.0871
 6335TIP3    H240497   4.639   2.356   5.388 -0.4912 -0.0970 -0.2817
 6336TIP3   OH240498   6.228   4.843  13.114 -0.2875  0.0210 -0.3954
 6336TIP3    H140499   6.219   4.800  13.199 -0.7210  0.3480 -0.2698
 6336TIP3    H240500   6.194   4.932  13.128  0.3261  0.3177 -0.7232
 6337TIP3   OH240501   2.521   4.750  13.056  0.0020  0.0588  0.1806
 6337TIP3    H140502   2.460   4.823  13.039 -2.1089 -1.5203  0.5361
 6337TIP3    H240503   2.571   4.741  12.975 -0.5660  1.1013 -0.3103
 6338TIP3   OH240504   0.877   0.466  12.394 -0.3336 -0.1579  0.1506
 6338TIP3    H140505   0.931   0.520  12.336 -1.7625  0.7819 -0.3608
 6338TIP3    H240506   0.821   0.529  12.440  0.4685 -0.9031  2.2807
 6339TIP3   OH240507   0.702   4.632  12.426  0.3925  0.0200 -0.2542
 6339TIP3    H140508   0.650   4.712  12.420 -2.1807 -1.5317 -0.1256
 6339TIP3    H240509   0.754   4.632  12.346 -1.4599  0.6152 -1.5352
 6340TIP3   OH240510   0.051   2.573  17.213  0.0172 -0.4116 -0.5843
 6340TIP3    H140511   0.141   2.588  17.242 -0.6207  2.2191  0.3600
 6340TIP3    H240512   0.056   2.574  17.118  0.7116  2.9846 -0.6699
 6341TIP3   OH240513   2.521   2.570   0.484  0.0251 -0.5426 -0.3037
 6341TIP3    H140514   2.540   2.643   0.543 -0.2826 -0.5652 -0.1739
 6341TIP3    H240515   2.463   2.608   0.418 -1.0927 -0.9409  0.4237
 6342TIP3   OH240516   2.151   0.957  11.620  0.4079  0.0222  0.0528
 6342TIP3    H140517   2.090   0.975  11.691  0.7687  2.9909 -0.2613
 6342TIP3    H240518   2.099   0.907  11.556 -1.5477  1.8998  0.0724
 6343TIP3   OH240519   2.014   1.638   4.306 -0.1376  0.0734 -0.3329
 6343TIP3    H140520   2.109   1.629   4.311  0.1082  1.0017 -2.3480
 6343TIP3    H240521   2.000   1.709   4.244 -2.1642  0.2539  0.2470
 6344TIP3   OH240522   3.850   6.066  14.000 -0.2657  0.2080 -0.2770
 6344TIP3    H140523   3.770   6.021  13.972  0.2833 -0.6151 -0.5521
 6344TIP3    H240524   3.821   6.155  14.020 -1.2951 -0.1388 -0.1465
 6345TIP3   OH240525   1.018   4.381  13.751  0.3335  0.5328 -0.0529
 6345TIP3    H140526   1.080   4.345  13.815  0.5697  0.7734 -0.1432
 6345TIP3    H240527   1.066   4.451  13.709  0.8712 -0.8309 -1.8345
 6346TIP3   OH240528   2.364   0.994  14.894  0.1023  0.6234 -0.0049
 6346TIP3    H140529   2.353   1.064  14.958 -0.0659  0.7428 -0.1650
 6346TIP3    H240530   2.350   1.036  14.809  2.4690  0.9780 -0.3043
 6347TIP3   OH240531   5.576   3.990   6.504  0.1297  0.2262 -0.4861
 6347TIP3    H140532   5.508   4.042   6.544  0.5249  1.2387 -1.0967
 6347TIP3    H240533   5.565   4.004   6.410  1.0193  0.2165 -0.6019
 6348TIP3   OH240534   0.248   2.994  11.355  0.0228  0.7531  0.7310
 6348TIP3    H140535   0.191   3.071  11.349  0.5690  1.0768 -0.6402
 6348TIP3    H240536   0.260   2.965  11.265 -0.0987 -0.9160  1.2075
 6349TIP3   OH240537   1.699   0.651   1.841 -0.2826  0.3179 -0.3501
 6349TIP3    H140538   1.788   0.687   1.836  0.5911 -1.4534  1.4179
 6349TIP3    H240539   1.666   0.681   1.926 -2.1984  2.5541 -1.7475
 6350TIP3   OH240540   5.764   6.187   5.559 -0.0188  0.0297 -0.2418
 6350TIP3    H140541   5.794   6.273   5.588  1.8227 -0.6597  0.0696
 6350TIP3    H240542   5.838   6.129   5.576 -0.5281 -1.2906 -2.1506
 6351TIP3   OH240543   2.457   3.250  14.229  0.1883  0.3567  0.3583
 6351TIP3    H140544   2.458   3.158  14.201 -1.8091  1.0446 -2.3882
 6351TIP3    H240545   2.389   3.254  14.296 -0.2179 -0.0523 -0.0239
 6352TIP3   OH240546   0.808   5.244   5.440 -0.4537 -0.4950 -0.0823
 6352TIP3    H140547   0.715   5.263   5.448 -0.1249  1.0917  0.3358
 6352TIP3    H240548   0.834   5.212   5.526 -0.4366 -0.0443  0.0843
 6353TIP3   OH240549   5.456   2.579  13.966  0.6374  0.2288 -0.0463
 6353TIP3    H140550   5.446   2.634  13.889 -1.6645 -0.2545 -0.1547
 6353TIP3    H240551   5.486   2.639  14.034  1.5534  0.8907 -0.9992
 6354TIP3   OH240552   5.840   0.069   1.951  0.8308  0.8140  0.1391
 6354TIP3    H140553   5.829   0.142   2.012  2.6692  2.1280 -1.0137
 6354TIP3    H240554   5.851   0.110   1.865  0.5701 -0.8865 -0.7623
 6355TIP3   OH240555   5.950   2.819  15.619 -0.2930 -0.2734  0.2367
 6355TIP3    H140556   5.959   2.790  15.710  1.2754 -0.3783  0.0648
 6355TIP3    H240557   5.855   2.826  15.606 -0.5485  0.3463  2.0704
 6356TIP3   OH240558   3.693   3.229  11.702 -0.1477 -0.6413 -0.0649
 6356TIP3    H140559   3.718   3.279  11.779 -0.2940 -0.7950  0.0830
 6356TIP3    H240560   3.773   3.186  11.673 -0.1424 -0.7659  0.1366
 6357TIP3   OH240561   2.673   6.418   5.518  0.4872  0.1788  0.4537
 6357TIP3    H140562   2.644   6.327   5.518 -0.1579  0.3656  1.2381
 6357TIP3    H240563   2.638   6.454   5.600  0.6419  1.1609  0.1058
 6358TIP3   OH240564   4.690   6.353   3.877 -0.2342 -0.6107  0.0496
 6358TIP3    H140565   4.760   6.297   3.910 -1.4210 -1.5176  1.1533
 6358TIP3    H240566   4.724   6.390   3.796  1.2622 -1.5291  0.2305
 6359TIP3   OH240567   6.111   1.762  12.343 -0.4633 -0.3144  0.2439
 6359TIP3    H140568   6.204   1.746  12.358 -0.5385 -0.7494  0.2463
 6359TIP3    H240569   6.108   1.844  12.294 -0.2157  1.4398  2.9107
 6360TIP3   OH240570   0.600   2.548  16.516  0.0127  0.3074  0.1894
 6360TIP3    H140571   0.593   2.581  16.606 -0.3171  1.2777 -0.1791
 6360TIP3    H240572   0.620   2.626  16.464 -0.1827 -0.1856 -0.6302
 6361TIP3   OH240573   1.026   3.806   5.972  0.2186 -0.0714 -0.6589
 6361TIP3    H140574   0.934   3.801   5.947 -0.3916  0.9770  1.2078
 6361TIP3    H240575   1.052   3.715   5.987 -0.8118 -0.3026 -0.2317
 6362TIP3   OH240576   6.489   4.329   4.683 -0.0790 -0.2269  0.0115
 6362TIP3    H140577   6.511   4.304   4.773  2.0107  0.5715 -0.2190
 6362TIP3    H240578   6.407   4.377   4.691 -0.2700 -0.7383  1.4030
 6363TIP3   OH240579   0.297   0.776  11.618 -0.1274  0.3294 -0.1896
 6363TIP3    H140580   0.361   0.718  11.577  0.6424  0.0825  1.3113
 6363TIP3    H240581   0.317   0.862  11.581  1.5559  0.3873  0.7345
 6364TIP3   OH240582   0.572   1.756  14.748  0.4065 -0.1522 -0.1488
 6364TIP3    H140583   0.568   1.667  14.712  2.2574 -0.8386  1.2262
 6364TIP3    H240584   0.497   1.762  14.807 -0.3805 -0.3735 -1.0980
 6365TIP3   OH240585   2.157   3.515   4.799  0.0882 -0.0466 -0.6304
 6365TIP3    H140586   2.142   3.543   4.708  1.3830 -1.1601 -1.2269
 6365TIP3    H240587   2.078   3.541   4.846  0.3368  2.6615 -1.5655
 6366TIP3   OH240588   3.495   6.685  15.381  0.0486  0.3941  0.3867
 6366TIP3    H140589   3.500   6.662  15.473  0.2722  0.8279  0.4831
 6366TIP3    H240590   3.413   6.645  15.351 -1.7831  2.9918  1.5537
 6367TIP3   OH240591   1.214   0.031   2.576 -0.0152  0.2117  0.6048
 6367TIP3    H140592   1.292   0.035   2.632  1.5206  1.3668 -1.4689
 6367TIP3    H240593   1.152  -0.022   2.626  2.3490 -1.4378  2.0286
 6368TIP3   OH240594   2.844   3.233   1.778  0.2170  0.2796  0.1061
 6368TIP3    H140595   2.872   3.141   1.776 -0.1975  0.1330  0.7026
 6368TIP3    H240596   2.897   3.275   1.710  0.0085 -0.5112 -0.5708
 6369TIP3   OH240597   3.472   2.988   4.932  0.3883  0.4005 -0.1228
 6369TIP3    H140598   3.397   2.965   4.988  0.6549  2.1588  1.0303
 6369TIP3    H240599   3.432   3.028   4.855  0.0415 -1.5820 -1.0384
 6370TIP3   OH240600   0.517   5.401  16.269 -0.2512 -0.4838 -0.8932
 6370TIP3    H140601   0.446   5.435  16.215  1.2880 -0.4750 -3.0543
 6370TIP3    H240602   0.584   5.374  16.206  1.4122 -1.0690  1.0222
 6371TIP3   OH240603   0.125   3.469  12.997 -0.2881  0.0934 -0.0722
 6371TIP3    H140604   0.059   3.464  13.066 -1.0427  0.7909 -0.7303
 6371TIP3    H240605   0.080   3.442  12.918 -0.1474  1.7131 -0.7548
 6372TIP3   OH240606   1.943   3.437   0.048 -0.2308 -0.2957  0.2991
 6372TIP3    H140607   2.035   3.416   0.062 -0.0938  0.0020 -0.1117
 6372TIP3    H240608   1.904   3.355   0.019 -0.3819 -0.7496  1.7226
 6373TIP3   OH240609   0.863   0.405   4.682  0.0535 -0.3848 -0.0857
 6373TIP3    H140610   0.938   0.418   4.740  0.2406 -2.1219  0.1179
 6373TIP3    H240611   0.787   0.420   4.739  0.1809  2.0856 -0.4649
 6374TIP3   OH240612   0.264   0.051  17.150  0.2357 -0.1154 -0.1700
 6374TIP3    H140613   0.337   0.107  17.125  0.3873 -0.6889 -1.0543
 6374TIP3    H240614   0.305  -0.030  17.180 -0.0285 -0.4683 -0.7425
 6375TIP3   OH240615   5.195   0.149  13.179  0.3248 -0.1388  0.5219
 6375TIP3    H140616   5.194   0.054  13.193  0.2284 -0.2645 -0.3153
 6375TIP3    H240617   5.281   0.167  13.139 -0.2649 -0.0992 -0.7772
 6376TIP3   OH240618   1.606   2.709   0.056 -0.0344 -0.1532 -0.1769
 6376TIP3    H140619   1.526   2.731   0.103  0.2139 -0.9329  0.6195
 6376TIP3    H240620   1.576   2.657  -0.019 -0.3609  0.4677 -0.4866
 6377TIP3   OH240621   0.931   0.780   2.231  0.2727 -0.2411 -0.6390
 6377TIP3    H140622   0.878   0.847   2.274  0.3595 -0.6350  0.1139
 6377TIP3    H240623   0.963   0.822   2.151 -1.5528 -0.1445 -1.3718
 6378TIP3   OH240624   5.321   0.497   1.884  0.0351  0.9169 -0.3728
 6378TIP3    H140625   5.331   0.578   1.934 -0.6258  1.4929 -1.1552
 6378TIP3    H240626   5.409   0.458   1.884  0.0794  0.9531  1.1197
 6379TIP3   OH240627   2.976   1.800  15.893  0.4227 -0.4978  0.0018
 6379TIP3    H140628   2.980   1.895  15.900 -1.8196 -0.2827 -0.7903
 6379TIP3    H240629   2.920   1.784  15.817  0.6552 -2.4597  0.1889
 6380TIP3   OH240630   4.949   0.344   0.759 -0.0007  0.2545  0.1749
 6380TIP3    H140631   5.025   0.304   0.716 -0.3464  1.1404 -1.3459
 6380TIP3    H240632   4.987   0.413   0.813  0.2556  1.7238 -1.7606
 6381TIP3   OH240633   6.039   6.416   4.804  0.8933 -0.3223 -0.1972
 6381TIP3    H140634   6.011   6.329   4.834  0.3821  0.5321  2.0629
 6381TIP3    H240635   6.134   6.415   4.813  0.8153 -0.3737  0.7429
 6382TIP3   OH240636   3.728   4.468   3.673 -0.1906  0.6633 -0.1245
 6382TIP3    H140637   3.703   4.380   3.703 -0.3532  0.9793  0.6973
 6382TIP3    H240638   3.765   4.454   3.586 -0.8904 -0.1296 -0.3114
 6383TIP3   OH240639   5.469   4.964   3.171 -0.1692 -0.7438  0.2695
 6383TIP3    H140640   5.504   4.892   3.118 -1.6603 -2.0856  1.0384
 6383TIP3    H240641   5.546   5.015   3.194  0.9330 -2.0108 -0.4170
 6384TIP3   OH240642   0.452   1.056  13.671  0.1221  0.1768 -0.5798
 6384TIP3    H140643   0.485   1.145  13.683 -3.0214  1.2941  0.6960
 6384TIP3    H240644   0.436   1.023  13.759  2.0662 -2.1160 -0.9638
 6385TIP3   OH240645   4.923   4.844   6.212  0.0895  0.1305  0.6428
 6385TIP3    H140646   4.854   4.785   6.243 -0.9055  0.6180 -0.5272
 6385TIP3    H240647   4.935   4.906   6.284  0.1278 -0.6420  1.3130
 6386TIP3   OH240648   6.300   5.954  12.316 -0.0852  0.1290  0.1030
 6386TIP3    H140649   6.238   6.006  12.265 -0.2794  0.7989  0.9814
 6386TIP3    H240650   6.337   6.017  12.378  1.6459 -0.2093 -0.5389
 6387TIP3   OH240651   0.875   2.056  16.941  0.3225 -0.1120  0.8302
 6387TIP3    H140652   0.820   1.980  16.921  0.6598  0.0728 -0.9647
 6387TIP3    H240653   0.932   2.026  17.011 -0.4456 -1.0766  1.0704
 6388TIP3   OH240654   4.592   0.636  14.494 -0.1752  0.2362  0.2695
 6388TIP3    H140655   4.549   0.627  14.409  0.4892 -2.0707  0.0902
 6388TIP3    H240656   4.522   0.626  14.558 -0.3429 -0.5649 -0.0234
 6389TIP3   OH240657   5.760   2.560  13.863 -0.3853 -0.1222 -0.2107
 6389TIP3    H140658   5.757   2.573  13.768 -0.7521  0.2329 -0.1560
 6389TIP3    H240659   5.748   2.648  13.899  1.1373 -0.0430  0.1630
 6390TIP3   OH240660   5.349   4.986   0.688  0.3044 -0.2285  0.1444
 6390TIP3    H140661   5.396   4.940   0.758 -0.6065  0.3712  1.1946
 6390TIP3    H240662   5.315   4.916   0.632  0.4667 -0.7591  0.6972
 6391TIP3   OH240663   3.667   0.543   6.136 -0.2855 -0.0006 -0.1238
 6391TIP3    H140664   3.659   0.636   6.153 -0.3791  0.5874 -2.8976
 6391TIP3    H240665   3.627   0.501   6.213 -3.3757  2.3090 -0.2514
 6392TIP3   OH240666   4.776   2.071  16.095 -0.2019 -0.7570 -0.4593
 6392TIP3    H140667   4.851   2.070  16.155 -0.4369 -0.2429 -0.1445
 6392TIP3    H240668   4.808   2.116  16.017  0.3090 -2.0423 -1.0052
 6393TIP3   OH240669   1.207   0.646  14.935  0.1247 -0.1253 -0.2350
 6393TIP3    H140670   1.112   0.659  14.927  0.1624 -0.0025 -0.5063
 6393TIP3    H240671   1.227   0.672  15.025 -0.3494 -1.7265  0.3641
 6394TIP3   OH240672   1.623   2.362  14.605  0.1918  0.3841  0.2730
 6394TIP3    H140673   1.581   2.429  14.660  1.0871  0.4310  0.9286
 6394TIP3    H240674   1.709   2.399  14.585 -0.5242  0.8764 -2.1647
 6395TIP3   OH240675   1.107   1.224  15.469  0.4667 -0.6698  0.3361
 6395TIP3    H140676   1.091   1.316  15.446 -0.3027 -0.0652  2.9353
 6395TIP3    H240677   1.021   1.188  15.486  0.7296 -2.0588 -1.0594
 6396TIP3   OH240678   6.270   6.228  16.267 -0.0020  0.1283  0.1294
 6396TIP3    H140679   6.337   6.287  16.302 -2.1667  1.8939  1.5919
 6396TIP3    H240680   6.244   6.267  16.184 -0.1613  0.2273  0.2245
 6397TIP3   OH240681   3.082   4.722  12.108  0.1195  0.5327  0.3511
 6397TIP3    H140682   2.990   4.698  12.121  0.6867 -3.7812 -1.7955
 6397TIP3    H240683   3.128   4.683  12.183  0.5609 -0.9922 -0.6738
 6398TIP3   OH240684   4.959   5.511  10.783 -0.3264  0.0426 -0.3819
 6398TIP3    H140685   4.902   5.582  10.812  0.1799  0.0304  0.6891
 6398TIP3    H240686   4.904   5.433  10.782 -0.4319  0.0994  0.2984
 6399TIP3   OH240687   0.222   5.568  12.871  0.1181  1.0434 -0.0362
 6399TIP3    H140688   0.227   5.632  12.800  0.0985  1.9988  0.8126
 6399TIP3    H240689   0.175   5.494  12.832  1.2275  1.0134 -1.4011
 6400TIP3   OH240690   6.183   1.769  16.900 -0.0768 -0.3432  0.0211
 6400TIP3    H140691   6.199   1.774  16.806  1.2478 -1.3955  0.1626
 6400TIP3    H240692   6.127   1.692  16.911 -1.1846  0.4360  0.0099
 6401TIP3   OH240693   4.012   1.549   3.564  0.2239  0.2435 -0.4292
 6401TIP3    H140694   3.976   1.460   3.557 -0.9050  0.7660 -1.8747
 6401TIP3    H240695   4.077   1.543   3.634  0.5593 -1.8463 -0.8427
 6402TIP3   OH240696   0.376   2.301   4.065  0.2400 -0.1747  0.1372
 6402TIP3    H140697   0.374   2.244   3.988 -1.1625  0.9846 -0.7356
 6402TIP3    H240698   0.463   2.342   4.063 -0.1757  0.6997 -1.5210
 6403TIP3   OH240699   4.237   5.047   4.543  0.2254  0.5892  0.4515
 6403TIP3    H140700   4.198   4.960   4.532  2.5140 -0.4095 -0.4480
 6403TIP3    H240701   4.254   5.053   4.637 -0.6857  0.4382  0.6390
 6404TIP3   OH240702   1.774   1.769   4.112  0.1908 -0.3346  0.2222
 6404TIP3    H140703   1.820   1.750   4.030 -1.5074  0.9582 -1.0973
 6404TIP3    H240704   1.734   1.685   4.137  1.5911 -0.9982  0.3583
 6405TIP3   OH240705   1.567   2.786  10.246 -0.1154 -0.0486  0.3152
 6405TIP3    H140706   1.662   2.772  10.253 -0.1765 -0.2966  0.6740
 6405TIP3    H240707   1.531   2.697  10.242 -0.2926  0.0503 -0.4067
 6406TIP3   OH240708   0.733   6.156   3.116 -0.1452 -0.4793  0.3272
 6406TIP3    H140709   0.733   6.139   3.022  0.5858 -0.0463  0.2373
 6406TIP3    H240710   0.711   6.249   3.125  0.4153 -0.3585  0.5357
 6407TIP3   OH240711   1.412   0.885  16.652  0.9776 -0.2039 -1.1738
 6407TIP3    H140712   1.496   0.911  16.615  1.1472 -2.4215 -2.5696
 6407TIP3    H240713   1.419   0.790  16.661 -0.3450 -0.1194  1.4674
 6408TIP3   OH240714   4.816   4.255   1.727 -0.0322 -0.6858  0.7833
 6408TIP3    H140715   4.798   4.247   1.633 -0.4950 -0.4661  0.8477
 6408TIP3    H240716   4.900   4.212   1.739 -0.2265 -1.1991  0.3559
 6409TIP3   OH240717   6.283   1.277  10.859 -0.0777  0.3007 -0.4531
 6409TIP3    H140718   6.372   1.306  10.878 -0.3498  1.2240 -0.5194
 6409TIP3    H240719   6.268   1.303  10.768 -0.0678 -0.7776 -0.7835
 6410TIP3   OH240720   1.841   1.697  14.673 -0.6592 -0.7161  0.1947
 6410TIP3    H140721   1.834   1.705  14.578 -1.2009 -2.4237  0.0513
 6410TIP3    H240722   1.914   1.755  14.697 -1.7648  1.2490 -0.9801
 6411TIP3   OH240723   5.283   3.233   4.890 -0.2235 -0.2984  0.2947
 6411TIP3    H140724   5.327   3.317   4.876  0.6248 -0.7975 -0.1092
 6411TIP3    H240725   5.193   3.249   4.862 -0.4580  0.8844  1.6262
 6412TIP3   OH240726   6.521   1.277   0.888 -0.0490  0.3726  0.5775
 6412TIP3    H140727   6.438   1.314   0.918 -0.6948 -0.7166  0.1851
 6412TIP3    H240728   6.500   1.233   0.806  1.0883  0.7402  0.0575
 6413TIP3   OH240729   0.672   2.248   4.043  0.2778  0.1019  0.0451
 6413TIP3    H140730   0.724   2.275   3.968  1.0111  2.2947  1.2487
 6413TIP3    H240731   0.734   2.243   4.116 -0.8257  0.8595  1.0954
 6414TIP3   OH240732   1.164   6.807  14.234  0.3594 -0.1116 -0.1192
 6414TIP3    H140733   1.255   6.797  14.203  0.3568  1.0318 -0.5502
 6414TIP3    H240734   1.114   6.747  14.180  0.9384 -1.2779  0.5919
 6415TIP3   OH240735   4.201   0.700   2.099 -0.0882  0.3483 -0.3468
 6415TIP3    H140736   4.114   0.688   2.137 -0.5193  2.0674 -0.7164
 6415TIP3    H240737   4.189   0.691   2.005  0.1715  0.3820 -0.3859
 6416TIP3   OH240738   5.819   5.550   6.226  0.7704 -0.6697 -0.1939
 6416TIP3    H140739   5.903   5.505   6.230  0.9819 -0.2119  1.1842
 6416TIP3    H240740   5.841   5.642   6.216  0.3804 -0.6641 -1.1811
 6417TIP3   OH240741   0.789   4.396   2.067  0.4517  0.1925  0.4298
 6417TIP3    H140742   0.739   4.476   2.053  0.1640  0.3479  2.1163
 6417TIP3    H240743   0.866   4.405   2.012 -1.6678 -0.4225 -2.9429
 6418TIP3   OH240744   5.504   6.227   0.002 -0.4547  0.2553  0.4539
 6418TIP3    H140745   5.528   6.184  -0.081  0.5696  1.3922  0.1370
 6418TIP3    H240746   5.491   6.155   0.063  1.1503 -0.5296 -0.0816
 6419TIP3   OH240747   5.930   4.629  15.125  0.1085 -0.1340  0.5587
 6419TIP3    H140748   5.876   4.592  15.056  1.0840 -0.1401 -0.2344
 6419TIP3    H240749   5.951   4.555  15.181  1.1460 -0.6091 -0.4091
 6420TIP3   OH240750   0.911   4.991   3.803  0.0553  0.0561 -0.1620
 6420TIP3    H140751   0.850   4.964   3.734 -0.3565  0.1633  0.1559
 6420TIP3    H240752   0.859   4.986   3.883 -0.0323  1.7606 -0.0780
 6421TIP3   OH240753   6.120   6.393  11.206  0.6303  0.0523 -0.3209
 6421TIP3    H140754   6.159   6.401  11.119  0.3084 -0.8080 -0.5627
 6421TIP3    H240755   6.194   6.380  11.265  0.7385 -1.7214 -0.7944
 6422TIP3   OH240756   3.386   0.470  14.069 -0.0365  0.2609  0.2160
 6422TIP3    H140757   3.297   0.446  14.045 -0.0232 -0.8085  1.1530
 6422TIP3    H240758   3.436   0.460  13.988 -0.9583  2.1570 -0.6610
 6423TIP3   OH240759   5.023   4.486  11.552  0.0125  0.8171  0.0298
 6423TIP3    H140760   5.100   4.465  11.604 -0.5559  1.2609  1.0803
 6423TIP3    H240761   4.963   4.528  11.614 -2.1729 -1.8740 -0.0794
 6424TIP3   OH240762   4.312   5.257  16.347  0.5527 -0.2903 -0.0929
 6424TIP3    H140763   4.374   5.318  16.385  0.9794 -0.7061 -0.1160
 6424TIP3    H240764   4.335   5.172  16.384 -0.8617 -0.2591  0.9619
 6425TIP3   OH240765   4.864   5.542  11.749  0.3057 -0.3004 -0.1387
 6425TIP3    H140766   4.954   5.509  11.746 -0.0076 -1.1386 -2.7531
 6425TIP3    H240767   4.849   5.578  11.662 -2.5666 -2.1210 -0.5152
 6426TIP3   OH240768   2.829   1.339   1.363  0.1187  0.4100  0.4925
 6426TIP3    H140769   2.872   1.255   1.347 -0.3867  0.0494  0.9716
 6426TIP3    H240770   2.770   1.350   1.288  0.0921  0.2792  0.4941
 6427TIP3   OH240771   4.706   6.412  15.995  0.3543  0.3682  0.0299
 6427TIP3    H140772   4.668   6.435  16.080 -1.3445  0.2787 -0.6638
 6427TIP3    H240773   4.725   6.497  15.955 -2.5101  0.5995 -1.0410
 6428TIP3   OH240774   1.048   6.294   1.094 -0.5900  0.2152 -0.5058
 6428TIP3    H140775   1.129   6.276   1.046 -0.2260  0.7847 -0.1215
 6428TIP3    H240776   0.983   6.236   1.054  0.0508 -0.3893 -0.6895
 6429TIP3   OH240777   3.842   4.073  13.480 -0.3641 -0.7290 -0.3802
 6429TIP3    H140778   3.799   3.988  13.475  1.5810 -1.9153  1.3156
 6429TIP3    H240779   3.925   4.061  13.434  0.2373  0.0328  0.4586
 6430TIP3   OH240780   4.970   4.317   4.936 -0.5844  0.2107  0.1684
 6430TIP3    H140781   4.942   4.242   4.884  1.3914 -0.3044 -0.2237
 6430TIP3    H240782   4.890   4.347   4.979 -1.8357 -0.7465 -1.3785
 6431TIP3   OH240783   6.494   5.171   5.549  0.1659  0.1898 -0.1677
 6431TIP3    H140784   6.499   5.158   5.454  2.3293 -1.8958  0.1476
 6431TIP3    H240785   6.424   5.112   5.578 -2.7054  3.0597 -0.6672
 6432TIP3   OH240786   2.492   3.680  12.508  0.6287  0.2397  0.6836
 6432TIP3    H140787   2.587   3.674  12.517  0.6242 -0.8549  0.2156
 6432TIP3    H240788   2.465   3.591  12.485 -0.1363  1.2058 -2.6977
 6433TIP3   OH240789   3.697   3.123  15.423 -0.0186  0.3760 -0.0115
 6433TIP3    H140790   3.633   3.174  15.472  1.2085 -0.2615  2.3878
 6433TIP3    H240791   3.656   3.037  15.411  0.0922  0.1817  0.9261
 6434TIP3   OH240792   0.010   3.296  14.044 -0.3215  0.0129  0.0131
 6434TIP3    H140793   0.002   3.285  13.949 -0.6734  0.3853 -0.0084
 6434TIP3    H240794  -0.057   3.362  14.065 -0.8050 -0.6649  0.6342
 6435TIP3   OH240795   0.302   3.949   5.103  0.2093 -0.1972 -0.2408
 6435TIP3    H140796   0.250   3.869   5.113  1.2599 -1.1571 -1.9083
 6435TIP3    H240797   0.248   4.018   5.141 -0.6768 -1.7061  1.4011
 6436TIP3   OH240798   2.594   3.839   0.191  0.5408  0.1586  0.5995
 6436TIP3    H140799   2.561   3.885   0.114  1.5999  2.2467  1.3159
 6436TIP3    H240800   2.519   3.831   0.250 -0.6540 -2.7221 -1.0880
 6437TIP3   OH240801   0.212   5.462   1.869  0.0577  0.6397  0.5308
 6437TIP3    H140802   0.227   5.432   1.959  1.4751  0.6378  0.3118
 6437TIP3    H240803   0.116   5.467   1.862 -0.1459 -0.9823  1.5095
 6438TIP3   OH240804   0.718   5.450   5.730 -0.8183  0.2449  0.3855
 6438TIP3    H140805   0.792   5.416   5.781  0.1186  1.0080 -0.4203
 6438TIP3    H240806   0.641   5.424   5.779  0.0136 -0.0097  1.5973
 6439TIP3   OH240807   3.521   5.061   3.934 -0.3551 -0.0850  0.3877
 6439TIP3    H140808   3.508   4.987   3.994  2.8273 -1.4517 -0.4249
 6439TIP3    H240809   3.583   5.118   3.979 -0.5634  0.6143 -0.1964
 6440TIP3   OH240810   0.267   6.821  11.738  0.0049 -0.3413  0.3717
 6440TIP3    H140811   0.292   6.908  11.770  0.6339  0.0867 -1.1914
 6440TIP3    H240812   0.172   6.823  11.734 -0.0451 -0.1471  1.4551
 6441TIP3   OH240813   0.365   5.415   2.665  0.2599 -0.2108  0.2856
 6441TIP3    H140814   0.270   5.427   2.662  0.3953  1.2997  0.8804
 6441TIP3    H240815   0.392   5.464   2.743  1.4559 -1.1867  0.5019
 6442TIP3   OH240816   5.945   4.620   5.600 -0.1609  0.1435  0.2923
 6442TIP3    H140817   5.987   4.704   5.582  1.4228  0.0183  2.9637
 6442TIP3    H240818   5.909   4.629   5.688 -0.6300 -1.7162  0.3328
 6443TIP3   OH240819   4.625   0.739   3.200 -0.1564 -0.3577  0.5646
 6443TIP3    H140820   4.620   0.664   3.141  0.3201 -0.6866  0.9409
 6443TIP3    H240821   4.574   0.807   3.156  0.9137 -0.3093 -0.6538
 6444TIP3   OH240822   0.428   4.536   0.529 -0.6356 -0.0788 -0.1676
 6444TIP3    H140823   0.354   4.556   0.586  0.3158  1.0622  0.7190
 6444TIP3    H240824   0.489   4.609   0.543  0.3088 -0.5874 -1.4699
 6445TIP3   OH240825   3.947   6.402   2.280 -0.2310 -0.6779 -0.1988
 6445TIP3    H140826   3.907   6.417   2.194 -0.6739 -0.3517  0.0628
 6445TIP3    H240827   3.929   6.310   2.299 -2.0835 -0.2209  0.5248
 6446TIP3   OH240828   5.493   0.775  11.773  0.5366 -0.3542  0.3878
 6446TIP3    H140829   5.425   0.838  11.748  2.0524  1.3136  0.2570
 6446TIP3    H240830   5.445   0.699  11.805 -1.3871  0.3922 -0.5923
 6447TIP3   OH240831   5.723   4.646   2.639  0.2338  0.3232 -0.5850
 6447TIP3    H140832   5.653   4.708   2.660 -1.7849 -1.2539 -2.2335
 6447TIP3    H240833   5.705   4.569   2.692  1.4249  0.2979 -0.1776
 6448TIP3   OH240834   3.472   0.123   5.774  0.4241  0.9605  0.4051
 6448TIP3    H140835   3.525   0.079   5.708 -0.7266 -0.8493  0.6423
 6448TIP3    H240836   3.534   0.145   5.844  1.2053  0.6980 -0.1967
 6449TIP3   OH240837   1.183   2.141   0.410 -0.9798  0.4981 -0.0808
 6449TIP3    H140838   1.211   2.062   0.363  3.5656  2.2308 -0.8070
 6449TIP3    H240839   1.209   2.125   0.501 -1.0690  0.7327 -0.0134
 6450TIP3   OH240840   2.016   6.032   2.539 -0.6208 -0.7959  0.2916
 6450TIP3    H140841   2.039   6.124   2.534  0.4647 -1.0002  1.2311
 6450TIP3    H240842   2.055   5.993   2.460  0.5496 -0.7750  0.8435
 6451TIP3   OH240843   0.818   3.718  13.286  0.1686 -0.0369 -0.1071
 6451TIP3    H140844   0.771   3.730  13.369 -0.5947 -0.3853 -0.4756
 6451TIP3    H240845   0.833   3.807  13.255 -0.2913  0.0802 -0.0044
 6452TIP3   OH240846   1.367   4.734  14.312 -0.0863 -0.1988  0.1186
 6452TIP3    H140847   1.289   4.698  14.353 -0.8597  0.7287 -0.4765
 6452TIP3    H240848   1.440   4.698  14.362 -0.9564  0.4251  1.9479
 6453TIP3   OH240849   6.615   0.846   4.880 -0.1989 -0.0814  0.0366
 6453TIP3    H140850   6.711   0.852   4.880 -0.2839  1.8598  0.5903
 6453TIP3    H240851   6.595   0.799   4.961  0.2815 -1.4029 -0.5708
 6454TIP3   OH240852   0.594   3.408   1.625  0.0166 -0.3372 -0.3285
 6454TIP3    H140853   0.530   3.475   1.603  1.4373  0.5619 -1.9711
 6454TIP3    H240854   0.592   3.347   1.551  1.6047  0.1810 -0.8453
 6455TIP3   OH240855   2.551   6.318  12.402 -0.0363 -0.0976  0.7086
 6455TIP3    H140856   2.633   6.290  12.361 -0.0345  1.7723 -0.7169
 6455TIP3    H240857   2.574   6.332  12.494  0.4668 -2.4334  1.0028
 6456TIP3   OH240858   1.419   6.268   4.438 -0.0059  0.2807 -0.2870
 6456TIP3    H140859   1.420   6.314   4.522  0.6442 -0.7610  0.2915
 6456TIP3    H240860   1.331   6.233   4.430 -0.5833  1.7665 -0.8357
 6457TIP3   OH240861   6.045   0.569  13.448 -0.7602  0.2491 -0.6004
 6457TIP3    H140862   5.950   0.552  13.454 -0.5138 -1.8164 -1.5227
 6457TIP3    H240863   6.056   0.658  13.482 -2.8100 -0.0859  1.1570
 6458TIP3   OH240864   4.206   1.092  12.298  0.5905 -0.2898  0.5807
 6458TIP3    H140865   4.293   1.066  12.329  0.4961 -0.4339  0.7269
 6458TIP3    H240866   4.148   1.024  12.332  0.2917  0.2981  1.2613
 6459TIP3   OH240867   0.497   5.189  12.541 -0.1450  0.2282  0.0440
 6459TIP3    H140868   0.533   5.190  12.629 -1.4280 -1.1320  0.6180
 6459TIP3    H240869   0.403   5.205  12.553 -0.4009 -0.3536 -1.0385
 6460TIP3   OH240870   4.251   6.219  16.234  0.2144 -0.0023 -0.1832
 6460TIP3    H140871   4.274   6.286  16.170  2.5386 -0.3706  0.1949
 6460TIP3    H240872   4.229   6.143  16.181  0.9454  0.0498 -0.5807
 6461TIP3   OH240873   3.851   5.637   2.081  0.2814  0.2752 -0.3005
 6461TIP3    H140874   3.926   5.623   2.023  0.0273  2.8224 -1.3860
 6461TIP3    H240875   3.885   5.692   2.151 -0.1336 -0.2154  0.2954
 6462TIP3   OH240876   0.873   3.395   1.407  0.2525 -0.6375 -0.3968
 6462TIP3    H140877   0.838   3.321   1.358 -0.9193 -0.0710 -0.4592
 6462TIP3    H240878   0.818   3.469   1.380  0.6871  0.0268  0.4916
 6463TIP3   OH240879   4.309   1.447  12.091  0.1444 -0.3815 -0.4352
 6463TIP3    H140880   4.322   1.419  12.182  2.3454  0.1290 -0.5243
 6463TIP3    H240881   4.252   1.381  12.053 -0.9720 -0.5115  1.3566
 6464TIP3   OH240882   6.169   0.458  15.767  0.1592 -0.0903 -0.4442
 6464TIP3    H140883   6.182   0.364  15.776  0.0562 -0.0734 -0.0938
 6464TIP3    H240884   6.074   0.469  15.765  0.1672  0.0320 -0.1834
 6465TIP3   OH240885   3.744   0.956   2.203  0.5056 -0.4394  0.0505
 6465TIP3    H140886   3.794   0.989   2.129  2.6516 -1.2140  1.0671
 6465TIP3    H240887   3.749   1.026   2.268 -0.3839 -0.2319 -0.0922
 6466TIP3   OH240888   1.985   5.954  16.765 -0.0847  0.6099  0.3920
 6466TIP3    H140889   1.911   6.015  16.772  0.0397  0.8479 -0.2501
 6466TIP3    H240890   2.020   5.949  16.854 -0.5497  0.9053  0.5981
 6467TIP3   OH240891   4.536   6.109   0.739  0.0552  0.0876  0.2469
 6467TIP3    H140892   4.519   6.180   0.801  0.4887  0.3895  0.0316
 6467TIP3    H240893   4.449   6.079   0.711 -0.1294  0.7312  0.1202
 6468TIP3   OH240894   5.007   5.469  17.035 -0.2887 -0.2736 -0.1883
 6468TIP3    H140895   4.978   5.493  16.947  0.1009  1.2548  0.0765
 6468TIP3    H240896   4.927   5.471  17.088 -0.4499 -0.7670 -0.4039
 6469TIP3   OH240897   6.653   2.842   4.389 -0.6560 -0.0547  0.6281
 6469TIP3    H140898   6.713   2.770   4.369 -0.6279 -0.4309  1.9984
 6469TIP3    H240899   6.696   2.892   4.458 -1.2482  0.5411  0.5786
 6470TIP3   OH240900   3.316   3.775   3.661  0.2899  0.5618 -0.0545
 6470TIP3    H140901   3.350   3.715   3.727  2.5193  0.5770 -1.0859
 6470TIP3    H240902   3.254   3.723   3.610  0.2436 -0.0856  0.6500
 6471TIP3   OH240903   3.961   2.934  16.014  0.2032 -0.0415 -0.5118
 6471TIP3    H140904   3.957   2.981  16.097 -2.0452  0.9144 -1.0995
 6471TIP3    H240905   4.054   2.930  15.993  0.6237  2.0994  0.7144
 6472TIP3   OH240906   1.583   6.658  15.401  0.4171  0.1593  0.0510
 6472TIP3    H140907   1.670   6.679  15.368 -0.4719  1.1090 -1.8082
 6472TIP3    H240908   1.547   6.597  15.337 -0.5643  0.3460  0.4096
 6473TIP3   OH240909   1.388   2.974  17.152 -0.7574  0.2949  0.0842
 6473TIP3    H140910   1.457   2.952  17.215 -0.0311  0.7189 -0.5460
 6473TIP3    H240911   1.363   2.890  17.114 -1.3891 -0.0017  1.1083
 6474TIP3   OH240912   0.318   6.821  15.658 -0.6688 -0.1900 -0.3067
 6474TIP3    H140913   0.317   6.759  15.585 -2.3839  0.3288 -0.7833
 6474TIP3    H240914   0.406   6.857  15.658 -0.3153 -0.9934 -1.4496
 6475TIP3   OH240915   4.870   2.300  14.238 -0.2769 -0.2320 -0.5859
 6475TIP3    H140916   4.793   2.353  14.219 -0.1967  0.7786  1.5578
 6475TIP3    H240917   4.915   2.291  14.154 -2.6762 -0.8415 -1.8891
 6476TIP3   OH240918   3.374   3.717  12.257 -0.1560 -0.1615 -0.3736
 6476TIP3    H140919   3.351   3.631  12.292 -0.5880 -0.0239 -0.3219
 6476TIP3    H240920   3.449   3.745  12.311 -0.0508 -0.4770 -0.3537
 6477TIP3   OH240921   6.415   0.750   0.189 -0.1851 -0.3027  0.3453
 6477TIP3    H140922   6.469   0.796   0.125 -0.0270  0.8728  1.3095
 6477TIP3    H240923   6.353   0.700   0.135  2.0671 -2.0569 -0.8155
 6478TIP3   OH240924   2.413   3.257  15.993  0.0329  0.0905  0.5063
 6478TIP3    H140925   2.345   3.252  15.926 -0.5313  1.6257  0.9320
 6478TIP3    H240926   2.467   3.180  15.978 -1.3145 -0.7219 -0.3694
 6479TIP3   OH240927   4.453   3.419  15.475 -0.1075 -0.0261  0.1135
 6479TIP3    H140928   4.408   3.390  15.396  0.2146  1.9508 -0.8711
 6479TIP3    H240929   4.540   3.380  15.469  0.4074  1.2089 -1.3101
 6480TIP3   OH240930   1.342   1.680   5.639 -0.4115 -0.1164  0.3148
 6480TIP3    H140931   1.249   1.659   5.636 -0.7458  1.3154 -0.2088
 6480TIP3    H240932   1.348   1.756   5.698  0.3464  0.1252 -0.0564
 6481TIP3   OH240933   5.354   3.602   1.537 -0.0514  0.0448 -0.2852
 6481TIP3    H140934   5.360   3.589   1.631  1.0779 -2.6792 -0.6597
 6481TIP3    H240935   5.444   3.604   1.506 -0.4123  0.1145 -1.3987
 6482TIP3   OH240936   5.896   5.300   1.555 -0.3154  0.4254  0.3753
 6482TIP3    H140937   5.932   5.290   1.467 -2.4863  3.1977 -0.9885
 6482TIP3    H240938   5.971   5.323   1.610  0.9496 -0.5128 -0.9109
 6483TIP3   OH240939   2.442   6.438   5.259 -0.6612 -0.3397  0.0776
 6483TIP3    H140940   2.373   6.466   5.318 -0.5370 -1.4298  0.7772
 6483TIP3    H240941   2.465   6.516   5.209 -1.9578  0.1837  0.2707
 6484TIP3   OH240942   2.106   4.197   4.037 -0.0393 -0.7001 -0.3987
 6484TIP3    H140943   2.021   4.199   3.993 -0.5711  0.9434  0.6092
 6484TIP3    H240944   2.088   4.158   4.123  0.0104  0.4570  0.1585
 6485TIP3   OH240945   1.187   6.272   2.504  0.2563  0.1431  0.0570
 6485TIP3    H140946   1.231   6.335   2.447  0.9173 -0.2956  0.0629
 6485TIP3    H240947   1.145   6.211   2.444  0.2096  0.1894  0.0431
 6486TIP3   OH240948   6.065   1.918   5.516 -0.7977 -0.5090 -0.5661
 6486TIP3    H140949   6.065   1.827   5.489  0.1317 -0.8172  0.4053
 6486TIP3    H240950   5.975   1.948   5.501 -0.8913 -1.3272 -1.6823
 6487TIP3   OH240951   3.266   3.078  14.621  0.1626 -0.4158  0.5674
 6487TIP3    H140952   3.298   3.013  14.559  1.5363  0.6506  0.0952
 6487TIP3    H240953   3.282   3.040  14.707  1.0447 -0.6828  0.2988
 6488TIP3   OH240954   0.936   2.650   3.627  0.2214 -0.8191 -0.4626
 6488TIP3    H140955   1.020   2.686   3.599  0.4720 -1.8975 -1.1616
 6488TIP3    H240956   0.929   2.566   3.581 -1.4639 -0.5388 -0.8052
 6489TIP3   OH240957   1.092   5.060  13.150 -0.8510  0.5903  0.3526
 6489TIP3    H140958   1.172   5.070  13.203 -0.6520  1.4174 -0.0761
 6489TIP3    H240959   1.097   5.132  13.087 -1.5019  0.1179 -0.2505
 6490TIP3   OH240960   3.437   5.043   4.724 -0.7004  0.4278  0.3918
 6490TIP3    H140961   3.489   5.000   4.656 -0.9334  0.4628  0.1932
 6490TIP3    H240962   3.346   5.029   4.698 -0.8717 -1.2107  1.6813
 6491TIP3   OH240963   5.197   5.373  17.283  0.1126 -0.1928 -0.4026
 6491TIP3    H140964   5.217   5.426  17.360  1.4518 -0.8874 -0.2300
 6491TIP3    H240965   5.134   5.425  17.234  1.2644  1.5085 -0.1816
 6492TIP3   OH240966   6.729   0.513   5.513  0.3328  0.3963 -0.7394
 6492TIP3    H140967   6.816   0.532   5.479  0.5674  0.8891  0.1101
 6492TIP3    H240968   6.739   0.429   5.558 -0.1310 -0.5906 -2.3945
 6493TIP3   OH240969   1.610   4.769   6.366 -0.4820  0.0667 -0.3314
 6493TIP3    H140970   1.583   4.713   6.439 -0.0972  1.0404  0.6046
 6493TIP3    H240971   1.663   4.837   6.408 -1.0725  1.2182 -1.3816
 6494TIP3   OH240972   3.250   1.319  15.142  0.5226 -0.2606  0.2728
 6494TIP3    H140973   3.174   1.289  15.193  0.7373  0.6693  1.1665
 6494TIP3    H240974   3.226   1.407  15.113  1.4366  0.2417  0.9803
 6495TIP3   OH240975   1.957   5.934  11.420 -0.0497  0.2300  0.0724
 6495TIP3    H140976   2.037   5.886  11.443 -0.3578  0.8359  2.7403
 6495TIP3    H240977   1.987   6.019  11.391  0.3050  0.4550  1.0690
 6496TIP3   OH240978   0.256   1.425  16.283  0.2259 -0.0671 -0.1194
 6496TIP3    H140979   0.279   1.413  16.376  0.4797 -0.9572 -0.2804
 6496TIP3    H240980   0.315   1.494  16.252  0.2828  0.0928  0.3355
 6497TIP3   OH240981   1.279   3.462  17.129 -0.4332 -0.4509  0.2082
 6497TIP3    H140982   1.210   3.507  17.178  0.7054  0.6833  0.8397
 6497TIP3    H240983   1.261   3.482  17.038 -1.9485 -1.6744  0.1828
 6498TIP3   OH240984   2.013   2.217   0.648 -0.3496  0.5828 -0.0584
 6498TIP3    H140985   1.944   2.264   0.601 -2.8803 -2.5932  0.1098
 6498TIP3    H240986   2.009   2.251   0.737 -2.0684  0.2380  0.0417
 6499TIP3   OH240987   2.117   3.282   1.606 -0.3268  0.1237  0.1328
 6499TIP3    H140988   2.193   3.251   1.656 -1.6229 -0.3749  1.9229
 6499TIP3    H240989   2.057   3.207   1.606 -0.7300  0.4188 -1.4831
 6500TIP3   OH240990   1.904   5.039   3.567 -0.0200 -0.8596  0.2559
 6500TIP3    H140991   1.986   5.025   3.521 -0.4062 -0.8702 -0.4408
 6500TIP3    H240992   1.891   4.959   3.618  0.6727 -0.6310  0.8199
 6501TIP3   OH240993   2.619   2.635  14.584 -0.2730  0.0264 -0.3217
 6501TIP3    H140994   2.688   2.691  14.621 -0.4071  0.8065 -1.2183
 6501TIP3    H240995   2.601   2.571  14.652  1.9824 -0.7618 -0.3900
 6502TIP3   OH240996   2.941   6.087   0.684  0.0739 -0.6004  0.0741
 6502TIP3    H140997   3.037   6.085   0.688  0.2264  0.1954 -1.8948
 6502TIP3    H240998   2.919   6.020   0.619 -0.8004 -1.3891  1.1400
 6503TIP3   OH240999   4.285   2.666   0.511 -0.3275  0.5139  0.0467
 6503TIP3    H141000   4.255   2.641   0.424  3.6305 -0.3469 -1.2704
 6503TIP3    H241001   4.282   2.585   0.562  0.5502  0.2281 -0.3471
 6504TIP3   OH241002   5.127   1.892  12.485  0.0298 -0.2176 -0.3519
 6504TIP3    H141003   5.140   1.907  12.578 -1.2361  0.7893 -0.3097
 6504TIP3    H241004   5.158   1.972  12.443 -0.0936 -0.3655 -0.7326
 6505TIP3   OH241005   2.800   1.490  11.153 -0.7463 -0.0434 -0.0586
 6505TIP3    H141006   2.793   1.409  11.204 -3.6328  0.3242  0.2991
 6505TIP3    H241007   2.725   1.489  11.094 -0.0573  1.7293 -1.0659
 6506TIP3   OH241008   6.199   0.824   0.893  0.7686 -0.5884  0.2983
 6506TIP3    H141009   6.289   0.805   0.919  1.2232 -1.9762 -1.9680
 6506TIP3    H241010   6.156   0.738   0.892 -0.3840 -0.0312  0.6746
 6507TIP3   OH241011   1.667   4.152  14.526  0.3669  0.2537  0.1090
 6507TIP3    H141012   1.625   4.152  14.612 -0.7452  0.0750 -0.4121
 6507TIP3    H241013   1.759   4.171  14.544 -0.0254  1.2144  1.2484
 6508TIP3   OH241014   3.171   4.824   3.459 -0.2565 -0.6529 -0.2712
 6508TIP3    H141015   3.094   4.880   3.454 -0.0213 -0.3521 -0.6674
 6508TIP3    H241016   3.222   4.859   3.532 -0.0069 -0.2097 -0.6529
 6509TIP3   OH241017   0.435   1.292   0.933 -0.1840  0.1887  0.2225
 6509TIP3    H141018   0.385   1.256   0.860  1.0441 -0.1705 -0.4706
 6509TIP3    H241019   0.396   1.252   1.011 -0.0275 -1.2312 -0.3958
 6510TIP3   OH241020   1.634   5.088  13.047 -0.6952  0.2903 -0.1839
 6510TIP3    H141021   1.607   5.049  13.130  1.6378  0.8770  0.9282
 6510TIP3    H241022   1.671   5.173  13.071  1.9107 -0.3822 -1.5096
 6511TIP3   OH241023   5.210   3.081   1.426 -0.2496 -0.1794  0.4378
 6511TIP3    H141024   5.188   2.989   1.441 -0.0643 -0.1544  0.8622
 6511TIP3    H241025   5.237   3.084   1.334 -0.5438 -0.4928  0.3382
 6512TIP3   OH241026   2.746   5.315   3.535  0.5918  0.4237 -0.6305
 6512TIP3    H141027   2.746   5.371   3.613 -2.0614  0.3343 -0.4980
 6512TIP3    H241028   2.718   5.229   3.566  0.4865  0.1230 -1.5127
 6513TIP3   OH241029   6.184   5.148  16.791 -0.5686 -0.2327  0.0087
 6513TIP3    H141030   6.147   5.195  16.716 -0.5124  2.3619  1.4805
 6513TIP3    H241031   6.204   5.217  16.855  0.7924 -2.1808  1.8282
 6514TIP3   OH241032   2.095   3.688  15.133 -0.5420 -0.2016 -0.0766
 6514TIP3    H141033   2.186   3.716  15.140 -0.7357  0.8624 -1.4608
 6514TIP3    H241034   2.046   3.756  15.179 -0.7441 -0.0506 -0.5133
 6515TIP3   OH241035   6.614   6.746  12.099 -0.3065  0.5505 -0.4611
 6515TIP3    H141036   6.670   6.706  12.033  0.2331  0.7108 -0.1072
 6515TIP3    H241037   6.673   6.803  12.150 -0.3883 -0.7073  1.1200
 6516TIP3   OH241038   2.713   5.393   5.784  0.1053  0.0958 -0.9262
 6516TIP3    H141039   2.782   5.386   5.718 -1.0254  0.9043 -2.2542
 6516TIP3    H241040   2.712   5.308   5.827  1.7120 -0.0253 -1.0966
 6517TIP3   OH241041   4.656   2.293   3.805 -0.1022 -0.7204  0.0810
 6517TIP3    H141042   4.561   2.301   3.813  0.0611  0.7148  1.1354
 6517TIP3    H241043   4.671   2.273   3.712 -1.3624  1.0679 -0.5779
 6518TIP3   OH241044   3.673   5.115  15.498  0.2709 -0.2602 -0.3079
 6518TIP3    H141045   3.658   5.159  15.415  0.4600 -1.2527 -0.8884
 6518TIP3    H241046   3.594   5.061  15.511 -0.2961  0.7772  0.7612
 6519TIP3   OH241047   6.324   1.539  13.068  0.7163  0.5726  0.5081
 6519TIP3    H141048   6.330   1.618  13.015  2.4033 -0.4465 -0.9003
 6519TIP3    H241049   6.258   1.485  13.025  1.1118  0.3193  0.2111
 6520TIP3   OH241050   2.888   1.404   3.697  0.0044  0.0576  0.1910
 6520TIP3    H141051   2.804   1.394   3.743  0.2002  1.0322  0.7845
 6520TIP3    H241052   2.920   1.314   3.687 -1.0776 -0.3256  0.0029
 6521TIP3   OH241053   6.045   0.838  13.507 -0.3384  0.3700  0.4110
 6521TIP3    H141054   6.116   0.884  13.553  0.6607 -0.8772  0.1910
 6521TIP3    H241055   6.051   0.871  13.417  2.2584 -2.0727 -0.4920
 6522TIP3   OH241056   4.031   3.913  15.152 -0.1420  0.2918  0.7794
 6522TIP3    H141057   4.062   3.951  15.234  0.1776 -1.2349  1.3937
 6522TIP3    H241058   4.088   3.837  15.138 -2.6752 -1.8352  1.2352
 6523TIP3   OH241059   0.522   0.374  14.192  0.4351  0.2381  0.0670
 6523TIP3    H141060   0.509   0.462  14.158 -1.3330  0.3746  0.9829
 6523TIP3    H241061   0.439   0.351  14.233 -0.0929 -2.8270 -2.2932
 6524TIP3   OH241062   5.571   1.748  13.787 -0.2445  0.7010 -0.5763
 6524TIP3    H141063   5.511   1.807  13.831 -0.1054  1.7557 -1.7569
 6524TIP3    H241064   5.656   1.791  13.793 -0.1559  0.6735 -1.5200
 6525TIP3   OH241065   5.328   4.369   4.259 -0.3721  0.0025 -0.6238
 6525TIP3    H141066   5.236   4.387   4.236 -0.3583 -0.0289 -0.7060
 6525TIP3    H241067   5.376   4.444   4.225 -0.6535  1.3364  1.7168
 6526TIP3   OH241068   3.464   6.819   3.947  0.0814  0.2393  0.1979
 6526TIP3    H141069   3.521   6.793   3.875 -0.5489  0.2968 -0.3367
 6526TIP3    H241070   3.489   6.762   4.020  0.8380  0.2957 -0.0101
 6527TIP3   OH241071   3.066   2.040  14.027 -0.6089  0.2134 -0.0497
 6527TIP3    H141072   3.075   2.127  13.990  0.2647 -0.4272 -1.4065
 6527TIP3    H241073   3.130   2.036  14.098  3.3819 -1.0185 -3.3697
 6528TIP3   OH241074   0.634   5.681  14.107  0.0193  0.5602 -0.0791
 6528TIP3    H141075   0.549   5.651  14.075  0.1315  1.0569 -0.8768
 6528TIP3    H241076   0.661   5.747  14.043  0.4738  1.2452  0.8099
 6529TIP3   OH241077   0.400   1.286  13.124  0.0639  0.1593  0.5076
 6529TIP3    H141078   0.475   1.345  13.133 -1.0516  1.6403  0.4793
 6529TIP3    H241079   0.385   1.254  13.213  1.4575 -1.1406  0.3177
 6530TIP3   OH241080   5.220   3.796   2.393 -0.5054  0.2358  0.1464
 6530TIP3    H141081   5.255   3.757   2.473  1.6382  0.4484 -0.5988
 6530TIP3    H241082   5.244   3.734   2.324 -1.1171  0.6931 -0.4886
 6531TIP3   OH241083   3.777   4.980   0.847 -1.2077  0.0948 -0.3647
 6531TIP3    H141084   3.692   4.939   0.832 -2.3938  1.6504  1.5859
 6531TIP3    H241085   3.808   4.943   0.929 -0.3288  0.0681 -0.7028
 6532TIP3   OH241086   5.680   1.784   2.937  0.1941  0.6547 -0.2560
 6532TIP3    H141087   5.656   1.843   3.008 -0.5603  1.1855 -0.9232
 6532TIP3    H241088   5.637   1.821   2.860 -0.3203 -0.7672 -0.6948
 6533TIP3   OH241089   5.645   1.629   1.661  0.8980  0.3614  0.0296
 6533TIP3    H141090   5.631   1.658   1.571  0.5440 -1.3360 -0.5095
 6533TIP3    H241091   5.603   1.696   1.715 -2.1285 -0.3230 -1.2400
 6534TIP3   OH241092   1.101   5.530  13.584  0.5547  0.0671 -0.0173
 6534TIP3    H141093   1.153   5.454  13.556  1.5132  0.4427  0.7002
 6534TIP3    H241094   1.084   5.578  13.503 -0.1465 -0.9447 -0.5002
 6535TIP3   OH241095   4.024   5.434  10.692 -0.2026 -0.3365  0.2434
 6535TIP3    H141096   4.039   5.527  10.706  0.2963 -0.2351 -0.8510
 6535TIP3    H241097   4.102   5.404  10.646 -1.1890 -0.8640 -1.1764
 6536TIP3   OH241098   0.284   5.767  16.784 -0.0655  0.3832  0.2541
 6536TIP3    H141099   0.319   5.725  16.863 -0.9672 -0.6319  0.1428
 6536TIP3    H241100   0.247   5.694  16.734 -0.8261  1.2089 -0.4050
 6537TIP3   OH241101   0.288   2.879  14.642 -0.4046 -0.2069  0.3428
 6537TIP3    H141102   0.357   2.945  14.650 -0.0839 -0.7723  2.9485
 6537TIP3    H241103   0.336   2.797  14.630 -0.7132 -0.3656  0.1928
 6538TIP3   OH241104   1.122   2.131   6.313 -0.1408  0.3749  0.4418
 6538TIP3    H141105   1.069   2.063   6.272 -0.3836  0.3226  0.8352
 6538TIP3    H241106   1.088   2.213   6.277  1.4431  0.2264 -1.5429
 6539TIP3   OH241107   1.035   5.888  13.958 -0.6045  0.0119  0.2065
 6539TIP3    H141108   1.034   5.876  14.053  0.7146 -0.6258  0.1657
 6539TIP3    H241109   1.116   5.935  13.941  0.5359 -2.1970 -0.8150
 6540TIP3   OH241110   0.980   2.427   0.516  0.2540 -0.1385  0.0309
 6540TIP3    H141111   0.964   2.449   0.425 -0.8187 -0.4121  0.1378
 6540TIP3    H241112   0.909   2.471   0.564 -0.2441 -1.4619  0.5394
 6541TIP3   OH241113   3.397   5.369  15.109  0.2824 -0.1103  0.0294
 6541TIP3    H141114   3.473   5.320  15.077 -0.2014 -0.5361 -0.5016
 6541TIP3    H241115   3.335   5.366  15.036 -0.4700 -0.2691  0.6630
 6542TIP3   OH241116   1.205   1.766  13.138 -0.1441  0.1104 -0.1483
 6542TIP3    H141117   1.251   1.850  13.133 -0.1227  0.1069  0.0045
 6542TIP3    H241118   1.122   1.786  13.181  0.5713 -0.2455  1.4650
 6543TIP3   OH241119   1.255   6.679   5.649 -0.1443  0.0271 -0.4142
 6543TIP3    H141120   1.169   6.660   5.613 -0.7868 -1.1089  1.5487
 6543TIP3    H241121   1.313   6.683   5.573 -2.1827  2.9020 -2.0355
 6544TIP3   OH241122   4.003   0.434   2.623 -0.4329 -0.0959 -0.4207
 6544TIP3    H141123   3.913   0.466   2.624 -0.3258  0.2016 -0.2128
 6544TIP3    H241124   4.048   0.485   2.690 -0.4073 -1.0924  0.3546
 6545TIP3   OH241125   5.517   1.891   5.078 -0.1615 -0.1726 -0.1140
 6545TIP3    H141126   5.612   1.892   5.088 -0.1956 -1.9051  0.7413
 6545TIP3    H241127   5.502   1.924   4.989  1.2753 -0.3676 -0.4562
 6546TIP3   OH241128   0.634   3.612  16.934 -0.0741  0.0017  0.8195
 6546TIP3    H141129   0.647   3.552  17.008  0.5143 -2.0909 -0.9090
 6546TIP3    H241130   0.648   3.559  16.856 -2.1336  1.7777 -0.8945
 6547TIP3   OH241131   4.898   5.936  16.829  0.0109  0.0756 -0.5987
 6547TIP3    H141132   4.863   5.859  16.785 -0.6489  0.2160 -0.3423
 6547TIP3    H241133   4.972   5.963  16.776 -1.0146  0.4944 -1.8649
 6548TIP3   OH241134   2.732   3.275   1.119  0.2153 -0.2291 -0.5714
 6548TIP3    H141135   2.675   3.208   1.082  0.3731 -1.5213  1.4242
 6548TIP3    H241136   2.811   3.273   1.064 -0.3893 -0.5660 -1.4526
 6549TIP3   OH241137   6.423   2.702  15.268  0.6349  0.0851 -0.0923
 6549TIP3    H141138   6.389   2.773  15.323 -1.1153 -1.3440  0.7852
 6549TIP3    H241139   6.355   2.689  15.202  0.8346 -0.9021 -0.1140
 6550TIP3   OH241140   1.758   6.383  16.588 -0.3500  0.2016 -0.3185
 6550TIP3    H141141   1.806   6.306  16.558 -0.4470 -0.2502  0.6494
 6550TIP3    H241142   1.825   6.449  16.602  0.0817 -0.5585  1.4497
 6551TIP3   OH241143   5.009   2.554   1.879  0.4336 -0.3312  0.7167
 6551TIP3    H141144   5.096   2.516   1.875  0.9736  0.8096  1.2307
 6551TIP3    H241145   4.963   2.503   1.945  0.4528 -1.4067 -0.0730
 6552TIP3   OH241146   4.454   5.658   6.459  0.4603  0.0043  0.5257
 6552TIP3    H141147   4.385   5.708   6.503  1.1173  0.4550  1.0762
 6552TIP3    H241148   4.427   5.566   6.469 -0.9066  0.2258 -0.7580
 6553TIP3   OH241149   5.639   6.785   3.800  0.2557  0.9504  0.5209
 6553TIP3    H141150   5.679   6.710   3.757 -0.1247  0.4681  0.9934
 6553TIP3    H241151   5.698   6.858   3.781 -1.0344  1.3225 -2.8343
 6554TIP3   OH241152   4.900   5.498  15.009  0.0221 -0.2811 -0.2107
 6554TIP3    H141153   4.871   5.538  14.927  1.1824  0.1339 -0.4384
 6554TIP3    H241154   4.963   5.431  14.982  0.8010  0.2106  0.3536
 6555TIP3   OH241155   4.606   5.532  11.265  0.1263  0.3609  0.2287
 6555TIP3    H141156   4.653   5.524  11.182  1.8502  2.4622  0.8881
 6555TIP3    H241157   4.589   5.626  11.274 -2.4171 -0.0943  1.0624
 6556TIP3   OH241158   5.444   0.290  11.950 -0.2083 -0.2671 -0.2577
 6556TIP3    H141159   5.401   0.244  11.878 -0.8935  1.2739 -0.8706
 6556TIP3    H241160   5.496   0.223  11.993 -2.2207 -1.9439 -0.2708
 6557TIP3   OH241161   6.315   3.707  17.151  0.4476  0.2374  0.3399
 6557TIP3    H141162   6.320   3.675  17.061  0.9890  1.3184 -0.0338
 6557TIP3    H241163   6.244   3.771  17.150  0.7249  0.5566  0.5672
 6558TIP3   OH241164   3.327   2.120  13.323  0.3573 -0.1134 -0.3897
 6558TIP3    H141165   3.403   2.062  13.333  1.6882  1.1690 -2.3024
 6558TIP3    H241166   3.252   2.060  13.318  1.2187 -1.4369  1.2621
 6559TIP3   OH241167   3.951   0.923   0.220 -0.0288  0.3050  0.5821
 6559TIP3    H141168   3.979   0.871   0.295  0.1549 -0.2665  0.1288
 6559TIP3    H241169   4.030   0.972   0.194  0.2328 -0.3756  0.0592
 6560TIP3   OH241170   0.593   5.322   2.547 -0.6809 -0.0773  0.3700
 6560TIP3    H141171   0.500   5.338   2.559 -0.6218 -0.3044  1.2430
 6560TIP3    H241172   0.635   5.371   2.618 -0.1023  0.4022 -0.2918
 6561TIP3   OH241173   5.388   0.307   0.415  0.1490 -0.5756  0.5174
 6561TIP3    H141174   5.432   0.235   0.459 -0.9387 -0.3020  2.1134
 6561TIP3    H241175   5.460   0.366   0.388  1.0313 -2.1118 -0.6732
 6562TIP3   OH241176   3.066   4.992   5.902  0.4967 -0.2283  0.3605
 6562TIP3    H141177   3.128   4.918   5.899 -0.4740 -1.1701  1.8133
 6562TIP3    H241178   3.022   4.982   5.987 -0.9023  1.0194 -0.1820
 6563TIP3   OH241179   1.764   3.702   1.476 -0.2983 -0.0132 -0.1930
 6563TIP3    H141180   1.783   3.622   1.428  2.1952  1.8208 -2.5543
 6563TIP3    H241181   1.842   3.718   1.530 -1.0532  0.4858  0.7920
 6564TIP3   OH241182   1.766   6.170  15.225  0.0439  0.4322  0.4189
 6564TIP3    H141183   1.820   6.183  15.147  0.2630 -4.1702 -0.4489
 6564TIP3    H241184   1.681   6.208  15.203  1.1081  2.3454 -0.5884
 6565TIP3   OH241185   1.030   6.712   4.606 -0.5117  0.0188  0.3173
 6565TIP3    H141186   1.119   6.681   4.594  0.1501  0.0401  3.9341
 6565TIP3    H241187   1.026   6.794   4.556  0.9950 -0.6911 -1.0475
 6566TIP3   OH241188   5.907   2.560  12.810  0.3694  0.2520  0.9290
 6566TIP3    H141189   5.863   2.475  12.805 -0.2954  0.6612 -1.3031
 6566TIP3    H241190   5.919   2.576  12.904 -1.0683 -1.4991  1.4562
 6567TIP3   OH241191   4.622   4.488  13.309  0.2898 -0.2413 -0.3664
 6567TIP3    H141192   4.698   4.440  13.340  0.9519  0.7479 -0.3896
 6567TIP3    H241193   4.549   4.454  13.360  1.2026  0.6809  1.6687
 6568TIP3   OH241194   6.232   4.053  12.643 -0.4201  0.1655  0.3571
 6568TIP3    H141195   6.255   3.997  12.717  1.1505  1.7576  1.1432
 6568TIP3    H241196   6.174   4.120  12.680  0.1074  0.7770  0.1067
 6569TIP3   OH241197   4.957   2.778  14.163  0.0675  0.3658  0.4354
 6569TIP3    H141198   4.893   2.717  14.125  0.8462 -0.0020 -0.3243
 6569TIP3    H241199   4.914   2.812  14.241 -0.2980 -1.3561  1.0413
 6570TIP3   OH241200   0.215   6.761   4.843 -0.4753  0.0412 -0.5024
 6570TIP3    H141201   0.284   6.781   4.906 -1.2291  1.6257 -0.1396
 6570TIP3    H241202   0.218   6.833   4.781 -0.7465 -0.7268 -1.4386
 6571TIP3   OH241203   2.745   6.607   0.914 -0.5551 -0.2491  0.9056
 6571TIP3    H141204   2.722   6.700   0.920 -0.6197 -0.3122  1.6685
 6571TIP3    H241205   2.711   6.579   0.829 -3.0074 -0.2462  1.8204
 6572TIP3   OH241206   0.850   3.801  15.054 -0.1671 -0.1626 -0.1035
 6572TIP3    H141207   0.909   3.736  15.016 -2.2976 -1.5296 -1.2753
 6572TIP3    H241208   0.794   3.827  14.981 -1.6362  0.3403  1.1599
 6573TIP3   OH241209   5.197   0.140   1.583  0.0501  0.6352  0.2753
 6573TIP3    H141210   5.254   0.208   1.619 -0.5054 -0.1671  2.8887
 6573TIP3    H241211   5.130   0.127   1.650 -1.7165 -0.2882 -1.5568
 6574TIP3   OH241212   0.713   6.758   0.979  0.3725 -0.3049 -0.3858
 6574TIP3    H141213   0.758   6.690   1.030 -0.1914  1.0516  2.1093
 6574TIP3    H241214   0.625   6.723   0.965 -0.4814  0.4636  2.3985
 6575TIP3   OH241215   4.922   1.239  17.042  0.4430 -0.2275  0.1747
 6575TIP3    H141216   4.928   1.144  17.047 -1.3600 -0.4299 -0.6459
 6575TIP3    H241217   4.953   1.261  16.954 -0.1725 -0.1712 -0.0308
 6576TIP3   OH241218   1.188   5.822  10.971  0.5679  0.2182  0.1311
 6576TIP3    H141219   1.119   5.889  10.971 -0.1520 -0.4057  2.7635
 6576TIP3    H241220   1.269   5.872  10.980  0.2870  0.8442 -0.6631
 6577TIP3   OH241221   0.220   0.907  13.607 -0.4094 -0.2668 -0.1694
 6577TIP3    H141222   0.315   0.899  13.616 -0.2322  0.2757 -1.4329
 6577TIP3    H241223   0.188   0.817  13.617  0.4418 -0.7971 -1.8863
 6578TIP3   OH241224   1.543   2.705   0.531 -0.3693 -0.0538 -0.3289
 6578TIP3    H141225   1.605   2.662   0.472  0.3489  1.5179 -0.7689
 6578TIP3    H241226   1.458   2.667   0.507 -0.2741  1.2321 -3.1736
 6579TIP3   OH241227   5.340   4.157  15.710  0.0163  0.3554  1.0842
 6579TIP3    H141228   5.288   4.219  15.761 -2.8454 -0.5420 -0.5369
 6579TIP3    H241229   5.365   4.206  15.632  0.8234  0.4891  1.4173
 6580TIP3   OH241230   2.997   5.122  13.427  0.0700 -0.5151 -0.3419
 6580TIP3    H141231   3.078   5.103  13.474  1.7704  0.1805 -2.7858
 6580TIP3    H241232   2.936   5.151  13.494  2.6877  1.5654  1.3177
 6581TIP3   OH241233   4.566   0.083   1.203  1.0272  0.3755 -0.2842
 6581TIP3    H141234   4.560   0.031   1.123  2.2810 -2.2097  1.1528
 6581TIP3    H241235   4.487   0.060   1.252  1.7505 -0.4868  0.5076
 6582TIP3   OH241236   2.018   2.138  12.296  0.1433 -0.2870  0.4205
 6582TIP3    H141237   1.956   2.202  12.330 -0.9484 -0.3618 -1.3208
 6582TIP3    H241238   2.095   2.189  12.273 -0.2395  0.2156  0.2226
 6583TIP3   OH241239   3.921   5.296   3.398 -0.1775 -0.0797 -0.4188
 6583TIP3    H141240   3.899   5.359   3.466  0.2554 -0.0451 -0.3104
 6583TIP3    H241241   3.985   5.238   3.439 -1.0766 -1.0149 -0.2844
 6584TIP3   OH241242   1.284   4.385   3.011  0.3345  0.1839 -0.3433
 6584TIP3    H141243   1.196   4.415   2.986  0.4217  0.8675  0.1625
 6584TIP3    H241244   1.321   4.457   3.061  0.3675 -0.9394  1.3132
 6585TIP3   OH241245   0.406   6.379   0.258  0.4513  0.5075 -0.0103
 6585TIP3    H141246   0.470   6.441   0.293  0.5552  1.4643 -1.7823
 6585TIP3    H241247   0.434   6.363   0.168 -0.8609 -0.3704 -0.2923
 6586TIP3   OH241248   3.436   3.941   3.225  0.3193 -0.7300 -0.8215
 6586TIP3    H141249   3.494   3.913   3.154  1.0149 -0.9901 -0.1648
 6586TIP3    H241250   3.349   3.911   3.199  0.7223 -1.6541 -1.1206
 6587TIP3   OH241251   3.795   1.683   2.281  0.6058  0.4388  0.4032
 6587TIP3    H141252   3.819   1.640   2.199 -1.1774  0.0162  0.0734
 6587TIP3    H241253   3.855   1.645   2.346  1.1942 -0.1540 -0.4536
 6588TIP3   OH241254   6.498   2.594   5.294 -0.3786 -0.2197  0.5669
 6588TIP3    H141255   6.411   2.590   5.253 -0.8374  3.2894  0.8346
 6588TIP3    H241256   6.485   2.560   5.382 -2.2286  2.3712  1.4330
 6589TIP3   OH241257   6.824   0.752  12.063 -0.0786  0.1374  0.6406
 6589TIP3    H141258   6.820   0.829  12.120 -1.4248 -0.0691  0.8705
 6589TIP3    H241259   6.802   0.679  12.121 -0.9182 -0.1427 -0.0141
 6590TIP3   OH241260   4.406   4.477   5.628  0.0076 -1.0531  0.5422
 6590TIP3    H141261   4.349   4.536   5.577  0.1199 -1.5765 -0.1920
 6590TIP3    H241262   4.454   4.536   5.686  0.3307 -0.3755 -0.3820
 6591TIP3   OH241263   5.794   6.470   6.231 -0.3970 -0.0162 -0.1184
 6591TIP3    H141264   5.805   6.546   6.288  0.7091  0.6305 -1.1484
 6591TIP3    H241265   5.705   6.439   6.250 -0.1520  0.3043  1.7630
 6592TIP3   OH241266   4.415   6.614  15.197  0.2221  0.2123  0.2553
 6592TIP3    H141267   4.440   6.687  15.255  0.2515  0.4049  0.0033
 6592TIP3    H241268   4.355   6.561  15.249  1.4167 -0.4536  1.0138
 6593TIP3   OH241269   1.746   4.520   6.527 -0.0190  0.0760  0.0693
 6593TIP3    H141270   1.815   4.586   6.531 -0.4471  0.6348 -1.0970
 6593TIP3    H241271   1.672   4.559   6.572  0.8837 -1.2266  2.9342
 6594TIP3   OH241272   3.584   4.220  13.105  0.6212 -0.1383 -0.3078
 6594TIP3    H141273   3.554   4.155  13.169  0.9083  0.7846  0.8058
 6594TIP3    H241274   3.609   4.296  13.159 -2.4845  2.0762 -1.6920
 6595TIP3   OH241275   4.420   5.448  14.118  0.6049 -0.2642 -0.9593
 6595TIP3    H141276   4.394   5.357  14.111 -0.2499 -0.0513 -0.7187
 6595TIP3    H241277   4.338   5.496  14.127  1.1146  0.3847  0.5073
 6596TIP3   OH241278   0.857   6.637   2.950  0.5999  0.1017  0.0924
 6596TIP3    H141279   0.878   6.544   2.939 -0.6896 -0.5143  2.2006
 6596TIP3    H241280   0.892   6.659   3.037  1.5286  1.8182 -0.6641
 6597TIP3   OH241281   6.600   5.761   1.037 -0.1311 -0.3333 -0.1085
 6597TIP3    H141282   6.664   5.696   1.008 -1.1757 -2.5342  2.1087
 6597TIP3    H241283   6.551   5.783   0.958  2.2233  0.1782 -1.5342
 6598TIP3   OH241284   6.704   1.002  12.724  0.0763  0.0464 -0.3654
 6598TIP3    H141285   6.743   0.927  12.768 -1.1878 -0.0396  0.6895
 6598TIP3    H241286   6.643   0.964  12.661 -0.7670  0.1586  0.3608
 6599TIP3   OH241287   4.040   5.154   3.600 -0.0670  0.4174  0.2282
 6599TIP3    H141288   4.076   5.077   3.556  0.9894  0.8599  0.3086
 6599TIP3    H241289   3.974   5.118   3.660 -1.7258 -0.2056 -1.8027
 6600TIP3   OH241290   5.353   5.658  13.078 -0.4345  0.0284 -0.2656
 6600TIP3    H141291   5.328   5.750  13.080  2.7856  1.0752 -1.5390
 6600TIP3    H241292   5.441   5.655  13.116 -1.1164 -2.8740  1.4534
 6601TIP3   OH241293   2.281   5.806  16.347 -0.0132  0.2154  0.0167
 6601TIP3    H141294   2.346   5.737  16.359 -0.5493 -0.3604 -0.3273
 6601TIP3    H241295   2.202   5.760  16.321 -0.7955  0.8214  1.2085
 6602TIP3   OH241296   4.490   3.135  17.297 -0.0961 -0.7347 -0.0008
 6602TIP3    H141297   4.431   3.074  17.341 -1.0320  1.2783  1.6923
 6602TIP3    H241298   4.578   3.103  17.318 -0.5622 -1.1764  1.3536
 6603TIP3   OH241299   4.290   2.766   5.678  0.0557  0.0010  0.3561
 6603TIP3    H141300   4.265   2.700   5.613 -0.0111 -0.6747  1.0457
 6603TIP3    H241301   4.379   2.791   5.654 -0.1876  0.2035 -0.3432
 6604TIP3   OH241302   3.331   4.459  15.019  0.2603  0.2801  0.3748
 6604TIP3    H141303   3.419   4.443  14.985 -0.0392  1.4481 -1.0257
 6604TIP3    H241304   3.343   4.465  15.114  1.8498  1.3134  0.1535
 6605TIP3   OH241305   0.731   6.570   1.643  0.7898  0.1599  0.2709
 6605TIP3    H141306   0.814   6.594   1.602  1.1338 -0.8779  0.3523
 6605TIP3    H241307   0.665   6.610   1.586  1.2056 -2.1922 -2.0408
 6606TIP3   OH241308   0.754   0.610   2.976  0.3606  0.1064  0.4108
 6606TIP3    H141309   0.718   0.522   2.973  0.2382  0.1204  1.2818
 6606TIP3    H241310   0.847   0.597   2.997  0.2247  0.2065  1.0862
 6607TIP3   OH241311   4.900   0.484  14.267 -0.6288  0.1610 -0.6099
 6607TIP3    H141312   4.923   0.453  14.179 -1.9769 -1.5284 -0.4177
 6607TIP3    H241313   4.934   0.417  14.326 -2.0635 -0.0990 -0.0456
 6608TIP3   OH241314   0.711   5.639   3.175 -0.7520 -0.1738 -0.5183
 6608TIP3    H141315   0.769   5.565   3.195 -1.2736 -0.5546 -0.3876
 6608TIP3    H241316   0.688   5.675   3.260 -0.1994  0.3704 -0.6023
 6609TIP3   OH241317   0.473   2.185  13.883 -0.6266 -0.5923 -0.0942
 6609TIP3    H141318   0.387   2.189  13.924 -0.4967  0.9478  0.0877
 6609TIP3    H241319   0.528   2.241  13.938  0.4660 -1.4411 -0.2860
 6610TIP3   OH241320   0.124   5.863  14.760 -0.0395 -0.4978 -0.2766
 6610TIP3    H141321   0.127   5.822  14.673  0.4671 -3.0487  0.8511
 6610TIP3    H241322   0.122   5.789  14.821  1.4802  1.1991  1.9722
 6611TIP3   OH241323   6.422   1.901  11.624 -0.4795 -0.2827 -0.3259
 6611TIP3    H141324   6.459   1.893  11.537 -2.1689  1.2172 -1.2421
 6611TIP3    H241325   6.482   1.959  11.671  1.9695 -3.2179  0.5429
 6612TIP3   OH241326   4.398   1.761  13.104 -0.7069 -0.3459  0.3496
 6612TIP3    H141327   4.365   1.754  13.194  0.8548 -0.7126  0.9288
 6612TIP3    H241328   4.437   1.676  13.086  0.7809  0.3569  0.0828
 6613TIP3   OH241329   2.262   3.445  15.145 -0.3326  0.1709  0.3447
 6613TIP3    H141330   2.317   3.450  15.067  0.3416 -0.3767  0.7767
 6613TIP3    H241331   2.197   3.514  15.132 -0.2262  0.0955 -0.6953
 6614TIP3   OH241332   3.957   3.048  15.499 -0.1992  0.4913  0.6112
 6614TIP3    H141333   4.015   3.106  15.451 -0.0676 -0.7699 -0.8148
 6614TIP3    H241334   3.869   3.068  15.465 -0.1899  0.0801  0.3404
 6615TIP3   OH241335   5.765   0.876   5.655  0.1713 -0.8514 -0.0856
 6615TIP3    H141336   5.749   0.859   5.747  1.9335  0.4928  0.5368
 6615TIP3    H241337   5.715   0.955   5.635  0.8366 -0.3641  0.1180
 6616TIP3   OH241338   1.951   3.352   3.163  0.1961 -0.0891  0.0107
 6616TIP3    H141339   1.903   3.283   3.118 -1.8837  0.3034  1.4932
 6616TIP3    H241340   2.032   3.309   3.192 -0.6140 -1.6416  0.0736
 6617TIP3   OH241341   0.506   5.905   3.220  0.0453 -0.4878 -0.3040
 6617TIP3    H141342   0.481   5.996   3.202 -0.7464 -0.6430  0.0055
 6617TIP3    H241343   0.445   5.853   3.168 -0.9200 -0.8944  1.2042
 6618TIP3   OH241344   0.679   2.795   2.360  0.4242 -0.1072 -0.2845
 6618TIP3    H141345   0.656   2.807   2.268  2.2005  4.3143 -0.4048
 6618TIP3    H241346   0.774   2.782   2.359  0.6291  1.0836  0.8859
 6619TIP3   OH241347   4.367   0.231   3.455 -0.2009  0.4044 -0.8535
 6619TIP3    H141348   4.393   0.139   3.469  5.5253  1.9328  1.7756
 6619TIP3    H241349   4.321   0.255   3.535  2.1234  0.6928  0.4913
 6620TIP3   OH241350   4.039   1.679   2.683 -0.1792  0.0466 -0.0792
 6620TIP3    H141351   4.127   1.647   2.662  0.6526  3.0920 -1.8034
 6620TIP3    H241352   4.046   1.711   2.773  0.4946  0.3244 -0.2265
 6621TIP3   OH241353   0.649   5.232  13.624  0.1081 -0.2102 -0.1588
 6621TIP3    H141354   0.635   5.325  13.604  1.2465  0.3152  1.2748
 6621TIP3    H241355   0.685   5.195  13.543 -0.5639  0.5361 -0.8167
 6622TIP3   OH241356   3.554   2.533  15.835 -0.1999 -0.0182  0.9383
 6622TIP3    H141357   3.641   2.543  15.874 -0.2359  0.7731  0.8353
 6622TIP3    H241358   3.521   2.451  15.871  1.0056 -0.8953  0.1613
 6623TIP3   OH241359   4.395   3.532   0.532 -0.3231 -0.7536  0.3962
 6623TIP3    H141360   4.356   3.503   0.614 -1.3231  1.5869  0.8254
 6623TIP3    H241361   4.469   3.587   0.559 -0.4134 -0.2934 -0.2667
 6624TIP3   OH241362   1.300   1.428   2.655  0.0151 -0.9088 -0.2059
 6624TIP3    H141363   1.288   1.417   2.561 -1.1429  0.0641 -0.1894
 6624TIP3    H241364   1.214   1.453   2.688  0.2772 -1.7400  1.2018
 6625TIP3   OH241365   1.175   2.958  11.284  0.3813  0.4217 -0.5699
 6625TIP3    H141366   1.118   2.931  11.211  0.2202 -1.5405  0.2096
 6625TIP3    H241367   1.226   2.880  11.304 -0.4554  0.4861  2.2132
 6626TIP3   OH241368   3.305   0.814  16.202 -0.1957  0.2409  0.6934
 6626TIP3    H141369   3.356   0.738  16.174 -2.6939 -0.9610 -0.9367
 6626TIP3    H241370   3.271   0.790  16.288  0.4516  0.2651  0.9584
 6627TIP3   OH241371   3.394   6.081  12.076  0.1323  0.0898 -0.2028
 6627TIP3    H141372   3.486   6.057  12.088 -0.1665 -0.5465  0.9343
 6627TIP3    H241373   3.397   6.173  12.050  0.9919  1.7919  4.8256
 6628TIP3   OH241374   0.745   6.073   3.636  0.4763 -0.2857  0.2651
 6628TIP3    H141375   0.661   6.088   3.680 -0.0309 -0.7699 -0.4895
 6628TIP3    H241376   0.720   6.048   3.547  1.4770  0.8496 -0.3581
 6629TIP3   OH241377   0.865   0.774  11.357  0.3825  0.0395  0.2665
 6629TIP3    H141378   0.773   0.787  11.333  0.2605  3.6910  1.9796
 6629TIP3    H241379   0.864   0.695  11.413 -1.8836  0.4583  0.9362
 6630TIP3   OH241380   6.430   4.453  16.919  0.1261 -0.4525  0.4581
 6630TIP3    H141381   6.410   4.413  16.835 -0.7578  0.2410  0.3273
 6630TIP3    H241382   6.444   4.379  16.978 -0.4485 -0.9516 -0.0176
 6631TIP3   OH241383   5.095   0.183   6.438 -0.1108 -0.0396  0.5857
 6631TIP3    H141384   5.165   0.173   6.503  0.2794  1.5691  0.4679
 6631TIP3    H241385   5.136   0.162   6.355 -0.0656 -0.1840  0.6449
 6632TIP3   OH241386   0.755   1.485   5.209 -0.3797 -0.0317  0.1310
 6632TIP3    H141387   0.771   1.445   5.294 -2.5014  0.3261  0.7802
 6632TIP3    H241388   0.755   1.412   5.147  0.9744 -0.3234  0.4595
 6633TIP3   OH241389   6.135   2.879  13.661  0.0992 -0.0840 -0.1151
 6633TIP3    H141390   6.088   2.962  13.659  1.4043  0.6813 -1.1072
 6633TIP3    H241391   6.072   2.814  13.631 -1.2513  0.3387  1.6395
 6634TIP3   OH241392   3.334   5.476   2.737 -0.3044  0.3468  0.0628
 6634TIP3    H141393   3.425   5.505   2.747 -0.4532  0.1607  2.8641
 6634TIP3    H241394   3.295   5.538   2.676  1.1728  1.7624  0.4980
 6635TIP3   OH241395   1.544   3.390  13.137  0.5217 -0.4013  0.0106
 6635TIP3    H141396   1.606   3.447  13.182 -0.2567  0.1487  0.4079
 6635TIP3    H241397   1.584   3.373  13.052  0.8154  0.6374 -0.0665
 6636TIP3   OH241398   3.312   2.921   2.543  0.3854 -0.0964 -0.2614
 6636TIP3    H141399   3.302   3.016   2.555  1.8373  0.1982 -1.1799
 6636TIP3    H241400   3.272   2.883   2.622 -0.4337  1.2512  0.0151
 6637TIP3   OH241401   3.109   2.479  15.562 -0.5515  0.6269  0.3823
 6637TIP3    H141402   3.184   2.443  15.610 -0.7356  2.7388  2.4202
 6637TIP3    H241403   3.060   2.402  15.534  2.6722 -0.9015 -1.7350
 6638TIP3   OH241404   2.159   1.073   2.201 -0.4323 -0.3945 -0.0658
 6638TIP3    H141405   2.088   1.058   2.263 -1.0165  1.1659 -0.3063
 6638TIP3    H241406   2.149   1.165   2.175  0.6206 -0.6300 -1.4276
 6639TIP3   OH241407   2.257   4.331   5.363 -0.0918  0.6242  0.0206
 6639TIP3    H141408   2.348   4.355   5.348 -0.2301  0.1685 -1.6707
 6639TIP3    H241409   2.235   4.270   5.293 -1.5466  0.2948  0.7090
 6640TIP3   OH241410   3.518   5.890   2.546  0.0392  0.1256 -0.7101
 6640TIP3    H141411   3.529   5.884   2.451 -1.6339  2.7363 -1.1770
 6640TIP3    H241412   3.437   5.842   2.563  0.5229 -0.6432 -0.5041
 6641TIP3   OH241413   5.410   2.730  13.733  0.0138  0.1931  0.1936
 6641TIP3    H141414   5.479   2.795  13.718  1.0198 -0.5736  1.2925
 6641TIP3    H241415   5.354   2.770  13.800  0.5467 -0.0010  0.7621
 6642TIP3   OH241416   1.092   6.209   4.175 -0.1024  0.3822  0.4047
 6642TIP3    H141417   1.153   6.161   4.231 -0.0440  0.8093  0.7143
 6642TIP3    H241418   1.054   6.276   4.233  2.1125  2.7805 -0.6784
 6643TIP3   OH241419   2.673   4.652   4.584  0.4898  0.5521  0.2725
 6643TIP3    H141420   2.627   4.577   4.546  2.3157 -1.5379  1.8630
 6643TIP3    H241421   2.611   4.692   4.644 -0.5206  0.3270 -0.6029
 6644TIP3   OH241422   0.728   0.873  10.424  0.5261 -0.4206  0.1426
 6644TIP3    H141423   0.751   0.929  10.498  0.8052 -1.5511  0.9314
 6644TIP3    H241424   0.779   0.908  10.351 -0.1182  1.0131  0.3315
 6645TIP3   OH241425   0.160   3.303   1.599 -0.1550  0.1688 -0.1109
 6645TIP3    H141426   0.218   3.304   1.675 -0.8185 -0.2782  0.4129
 6645TIP3    H241427   0.072   3.309   1.636 -0.4678  0.2970 -0.8645
 6646TIP3   OH241428   6.233   1.166   5.401 -0.0459 -0.7159  0.2602
 6646TIP3    H141429   6.181   1.204   5.330  2.8434 -0.4242 -1.9107
 6646TIP3    H241430   6.218   1.072   5.394 -0.4442 -0.6273 -0.1518
 6647TIP3   OH241431   1.008   1.860  11.283  0.4373  0.1497  0.0915
 6647TIP3    H141432   0.953   1.914  11.226 -0.4869  0.2658  1.0506
 6647TIP3    H241433   1.023   1.915  11.360  0.7260 -0.4142  0.4416
 6648TIP3   OH241434   5.328   3.797  14.857  0.3554  0.0164  0.1385
 6648TIP3    H141435   5.360   3.799  14.947  0.3852  0.5841  0.1143
 6648TIP3    H241436   5.336   3.705  14.832  0.1288 -0.1880  0.7895
 6649TIP3   OH241437   5.380   6.169   2.741 -0.1935 -0.6595 -0.2596
 6649TIP3    H141438   5.328   6.249   2.732 -0.0321 -0.0667  2.8993
 6649TIP3    H241439   5.321   6.099   2.713 -1.6815  0.2617  0.4565
 6650TIP3   OH241440   3.671   5.334   0.074  0.0393 -0.2324  0.5887
 6650TIP3    H141441   3.734   5.386   0.124  1.5642 -0.6423 -0.8299
 6650TIP3    H241442   3.719   5.255   0.049 -0.7622 -0.2151 -1.1842
 6651TIP3   OH241443   0.132   3.263   0.326 -0.1509 -0.1568 -0.2693
 6651TIP3    H141444   0.146   3.349   0.286  0.9487 -0.6958 -1.1170
 6651TIP3    H241445   0.074   3.280   0.401  0.0304  1.3087 -0.4300
 6652TIP3   OH241446   3.898   1.905  15.153  0.4311 -0.5856 -0.2357
 6652TIP3    H141447   3.828   1.926  15.215 -0.2506 -1.0377 -0.8277
 6652TIP3    H241448   3.887   1.812  15.134  2.6073 -1.2442  1.3603
 6653TIP3   OH241449   3.828   0.746  13.502  0.2263 -0.6431 -0.2283
 6653TIP3    H141450   3.811   0.773  13.412 -2.6287 -1.7874 -0.1531
 6653TIP3    H241451   3.767   0.797  13.555  0.0173 -1.8216  0.7294
 6654TIP3   OH241452   0.912   0.463   5.011 -0.1569  0.5959  0.6013
 6654TIP3    H141453   0.993   0.514   5.009 -0.1421  0.6411 -2.3233
 6654TIP3    H241454   0.926   0.399   5.081  1.6704  1.7341  1.3498
 6655TIP3   OH241455   1.676   0.736   3.393 -0.2580 -0.2442  0.0627
 6655TIP3    H141456   1.660   0.663   3.334  0.7914 -0.1860 -0.3269
 6655TIP3    H241457   1.692   0.696   3.478  0.2080 -0.4739 -0.1285
 6656TIP3   OH241458   0.994   0.220  16.219  0.2111  0.2129 -0.7878
 6656TIP3    H141459   1.049   0.272  16.161 -0.7399  0.6680 -1.3013
 6656TIP3    H241460   1.002   0.131  16.186  0.6655  0.2658 -0.8320
 6657TIP3   OH241461   3.571   6.489   0.030  0.1657  0.0951 -0.3926
 6657TIP3    H141462   3.577   6.453   0.118 -2.0942  1.7978  0.5575
 6657TIP3    H241463   3.633   6.562   0.029 -0.5586  0.7315  0.1733
 6658TIP3   OH241464   5.291   3.011  13.331  0.1132 -0.1999 -0.6445
 6658TIP3    H141465   5.359   3.036  13.269 -0.8330 -0.4154 -1.8071
 6658TIP3    H241466   5.270   2.920  13.308 -1.4460  0.2655 -1.1498
 6659TIP3   OH241467   2.479   4.985   0.216 -0.1100 -0.4744  0.1495
 6659TIP3    H141468   2.481   5.052   0.147  1.6299 -1.0127 -0.3860
 6659TIP3    H241469   2.399   4.935   0.199 -1.8139  1.7786  0.9464
 6660TIP3   OH241470   0.225   2.447  11.300 -0.0404 -0.0408  0.2528
 6660TIP3    H141471   0.177   2.506  11.243  0.5009  0.1312 -0.0343
 6660TIP3    H241472   0.308   2.491  11.316 -0.1123 -0.1732  1.0283
 6661TIP3   OH241473   2.256   5.657   1.745 -0.0628 -0.3421  0.5181
 6661TIP3    H141474   2.280   5.693   1.830 -0.4567  0.3629  0.3315
 6661TIP3    H241475   2.207   5.577   1.767  1.2257 -1.0668  0.9176
 6662TIP3   OH241476   0.122   1.283   5.945 -0.1312  0.2499  0.0512
 6662TIP3    H141477   0.039   1.302   5.900  0.1019 -0.5770 -0.7448
 6662TIP3    H241478   0.181   1.253   5.876  0.4326 -0.4520  0.8156
 6663TIP3   OH241479   2.021   1.122  14.750  0.3423  0.0312  0.0671
 6663TIP3    H141480   1.973   1.204  14.742  0.7851  0.3452  0.5773
 6663TIP3    H241481   2.042   1.115  14.843  2.0356  0.3356 -0.2649
 6664TIP3   OH241482   1.195   1.881  11.075 -0.3483 -0.4617 -0.4110
 6664TIP3    H141483   1.154   1.891  11.160  0.7124 -1.0005  0.1805
 6664TIP3    H241484   1.226   1.969  11.052  0.7240 -0.5844  0.4866
 6665TIP3   OH241485   0.112   5.013   1.381 -0.5363  0.0197  0.8766
 6665TIP3    H141486   0.085   5.029   1.472  0.4711 -0.5370  1.2841
 6665TIP3    H241487   0.090   5.094   1.335 -1.6699  0.0761  1.4627
 6666TIP3   OH241488   6.542   3.222  17.023  0.2646 -0.3860  0.0468
 6666TIP3    H141489   6.447   3.218  17.032  0.1460 -2.6165 -1.4306
 6666TIP3    H241490   6.557   3.243  16.930  1.1406 -2.9005 -0.4503
 6667TIP3   OH241491   2.678   5.089   0.497 -0.0014  0.5230  0.2862
 6667TIP3    H141492   2.712   5.055   0.580 -1.4903  0.0238  0.7137
 6667TIP3    H241493   2.717   5.176   0.489  1.0689  0.1277  0.9314
 6668TIP3   OH241494   4.700   4.779  15.712  0.3317 -1.0544 -0.2591
 6668TIP3    H141495   4.771   4.728  15.672  2.4247 -0.7374  2.7265
 6668TIP3    H241496   4.710   4.766  15.806 -1.0002  2.2928  0.5120
 6669TIP3   OH241497   3.224   2.085  16.640 -0.3282  0.2438  0.8514
 6669TIP3    H141498   3.184   2.048  16.719  0.2896 -1.8956  0.2295
 6669TIP3    H241499   3.151   2.100  16.580 -0.7420  1.4131  1.6202
 6670TIP3   OH241500   3.572   0.997  15.937 -0.8287  0.0250  0.3463
 6670TIP3    H141501   3.481   0.992  15.966 -1.5343  2.4713 -1.0847
 6670TIP3    H241502   3.565   1.018  15.843  1.2395 -1.0227 -0.0888
 6671TIP3   OH241503   3.934   6.673  11.008  0.7517  0.2436  0.1601
 6671TIP3    H141504   4.015   6.723  11.011  1.7631 -1.1249 -1.7883
 6671TIP3    H241505   3.950   6.605  10.943 -2.3076  0.4734 -1.0164
 6672TIP3   OH241506   1.375   5.328   2.938  0.0525 -0.0260  0.0351
 6672TIP3    H141507   1.380   5.407   2.884  2.2688 -0.4418 -0.4991
 6672TIP3    H241508   1.336   5.357   3.020 -0.2548  1.3668 -0.5713
 6673TIP3   OH241509   1.571   0.250  13.514  0.6250 -0.1389 -0.2494
 6673TIP3    H141510   1.497   0.307  13.495  0.6752  0.1416  0.4126
 6673TIP3    H241511   1.533   0.175  13.559  0.9565  0.8377  1.7399
 6674TIP3   OH241512   4.204   4.818   4.171  0.3797 -0.1190 -0.0024
 6674TIP3    H141513   4.210   4.738   4.222 -2.9544 -0.7624 -0.3563
 6674TIP3    H241514   4.181   4.789   4.082 -1.7678  1.1388  0.0595
 6675TIP3   OH241515   4.612   1.296   3.823  0.1207 -0.1087  0.2996
 6675TIP3    H141516   4.622   1.226   3.758 -0.7252 -0.8629  0.9602
 6675TIP3    H241517   4.669   1.366   3.791 -0.8748 -0.1343 -1.6909
 6676TIP3   OH241518   6.112   1.409   2.602 -0.4539  0.5259  0.1943
 6676TIP3    H141519   6.166   1.473   2.649 -2.0676  1.7887  0.4223
 6676TIP3    H241520   6.116   1.330   2.655 -0.8386  1.3884  1.5480
 6677TIP3   OH241521   0.993   6.054  11.593  0.4634 -0.1544 -0.1112
 6677TIP3    H141522   1.086   6.063  11.612  0.6528 -0.8449 -0.6341
 6677TIP3    H241523   0.985   6.076  11.500  0.3424 -1.4174 -0.4252
 6678TIP3   OH241524   0.235   1.916   2.577 -0.2222 -0.3966 -0.3466
 6678TIP3    H141525   0.154   1.965   2.588 -0.1051 -0.2745 -0.0100
 6678TIP3    H241526   0.303   1.984   2.574 -0.0483 -0.5406  0.2338
 6679TIP3   OH241527   2.809   3.798   5.185  0.0832  0.2411  0.4151
 6679TIP3    H141528   2.735   3.826   5.132 -0.0665  0.7875  0.8936
 6679TIP3    H241529   2.826   3.708   5.159 -1.4963 -0.2895  1.1289
 6680TIP3   OH241530   1.015   6.457  17.016  0.2463 -0.6589  0.0313
 6680TIP3    H141531   1.087   6.413  17.062  0.0613 -0.6188  0.3645
 6680TIP3    H241532   1.000   6.403  16.939 -0.8073 -1.9239  1.0588
 6681TIP3   OH241533   3.062   1.787   1.194  0.7156  0.0959  0.3266
 6681TIP3    H141534   3.055   1.712   1.254  0.8544 -0.8900 -0.8637
 6681TIP3    H241535   3.150   1.780   1.157  0.1129 -0.1558 -1.0911
 6682TIP3   OH241536   2.927   2.743  15.159  0.0992 -0.2413  0.2410
 6682TIP3    H141537   2.925   2.838  15.147  1.0862 -0.1062  1.0618
 6682TIP3    H241538   3.019   2.720  15.145  0.9912 -0.3895  4.8336
 6683TIP3   OH241539   2.656   4.957  14.142 -0.2783  0.5922 -0.3298
 6683TIP3    H141540   2.606   5.036  14.119  0.4405  1.7904  1.9160
 6683TIP3    H241541   2.725   4.953  14.076 -0.1929  1.9905 -0.3620
 6684TIP3   OH241542   4.039   6.311   0.823  0.2051 -0.1725 -0.0805
 6684TIP3    H141543   4.017   6.378   0.758 -0.0976 -1.1465 -1.0038
 6684TIP3    H241544   3.957   6.265   0.839 -0.1157  1.0346  2.2217
 6685TIP3   OH241545   2.940   3.041  15.146  0.2874  0.4245 -0.1870
 6685TIP3    H141546   2.849   3.071  15.143 -0.2772 -0.9637  1.4521
 6685TIP3    H241547   2.988   3.116  15.183 -0.1802  1.1197 -0.9427
 6686TIP3   OH241548   2.061   3.302  12.872  0.0181 -0.2647 -0.1725
 6686TIP3    H141549   2.101   3.335  12.952  0.5539 -0.5865 -0.3041
 6686TIP3    H241550   2.074   3.208  12.875 -3.5759 -0.8878  1.3543
 6687TIP3   OH241551   6.271   6.347   3.982  0.4230 -0.2808 -0.4749
 6687TIP3    H141552   6.225   6.396   4.051 -0.7022 -0.3743 -1.1423
 6687TIP3    H241553   6.360   6.338   4.015 -0.5767 -2.1893  1.9763
 6688TIP3   OH241554   1.122   0.084  13.430 -0.2685  0.0919 -0.7807
 6688TIP3    H141555   1.182   0.014  13.404 -0.5515  0.0414 -1.3149
 6688TIP3    H241556   1.133   0.151  13.363  1.5133  1.4993  0.8005
 6689TIP3   OH241557   3.801   0.805  11.407  0.0984  0.6578  0.7255
 6689TIP3    H141558   3.735   0.826  11.341  0.9207  1.8695  0.2616
 6689TIP3    H241559   3.767   0.727  11.450  0.3879 -1.3592 -2.3624
 6690TIP3   OH241560   5.522   6.087   0.489  0.3441 -0.3105 -0.3446
 6690TIP3    H141561   5.608   6.058   0.521 -0.1134 -0.2567  0.9800
 6690TIP3    H241562   5.470   6.101   0.568 -0.3734  1.3013 -1.0447
 6691TIP3   OH241563   1.709   0.972  12.713 -0.3824  0.3631 -0.1943
 6691TIP3    H141564   1.757   0.900  12.674  0.5511  0.3112  0.9872
 6691TIP3    H241565   1.657   0.932  12.783  0.1302  0.8165  0.4588
 6692TIP3   OH241566   0.759   5.871  16.426 -0.6879 -0.9623 -0.2546
 6692TIP3    H141567   0.689   5.931  16.451  1.0611  0.6730  1.0260
 6692TIP3    H241568   0.713   5.794  16.393 -3.0676  0.1416  0.2027
 6693TIP3   OH241569   5.323   6.541  10.726  0.2208 -0.0372 -0.7140
 6693TIP3    H141570   5.381   6.477  10.766  1.3751  1.2942 -0.1739
 6693TIP3    H241571   5.270   6.575  10.799  1.6295  1.6628 -0.4124
 6694TIP3   OH241572   0.614   2.577  15.652  0.2240  1.2118  0.0236
 6694TIP3    H141573   0.597   2.493  15.694 -0.5031  0.9101 -0.8391
 6694TIP3    H241574   0.567   2.641  15.706 -0.7808  0.8166 -0.3577
 6695TIP3   OH241575   3.099   3.556   2.156  0.0438 -0.3365  0.4773
 6695TIP3    H141576   3.147   3.486   2.112 -1.3075 -0.7193 -0.4547
 6695TIP3    H241577   3.007   3.531   2.147 -0.7512  2.8031 -2.3132
 6696TIP3   OH241578   1.805   6.658  15.578  0.6666 -0.2010 -0.4937
 6696TIP3    H141579   1.823   6.746  15.610  2.6747 -1.3200  1.8219
 6696TIP3    H241580   1.730   6.628  15.628  0.9234 -0.3113 -0.1688
 6697TIP3   OH241581   3.224   1.992  15.599  0.1742 -0.2604 -0.0881
 6697TIP3    H141582   3.234   1.908  15.645 -1.1699 -0.6405 -0.4169
 6697TIP3    H241583   3.136   1.987  15.561  0.8854  0.4208 -1.9255
 6698TIP3   OH241584   5.064   6.637  12.166 -0.5852 -0.7002  0.3241
 6698TIP3    H141585   5.058   6.541  12.164 -1.8133 -0.6513  0.8981
 6698TIP3    H241586   5.026   6.665  12.083 -3.3991 -0.6200  1.5370
 6699TIP3   OH241587   5.544   6.091  17.080  0.7398 -0.2844 -0.4433
 6699TIP3    H141588   5.531   6.011  17.132 -0.7866  0.3706  0.2513
 6699TIP3    H241589   5.626   6.076  17.033 -0.3950 -3.0682 -1.8051
 6700TIP3   OH241590   2.070   1.231  12.154 -0.1714 -0.1049  0.0302
 6700TIP3    H141591   2.144   1.184  12.115 -0.7829 -1.1009  0.0195
 6700TIP3    H241592   2.005   1.163  12.172 -0.9962  0.7098  0.2557
 6701TIP3   OH241593   2.976   2.606   5.360  0.2403 -0.0466 -0.1962
 6701TIP3    H141594   2.986   2.664   5.436 -2.2169 -0.3439  0.4216
 6701TIP3    H241595   3.014   2.523   5.389 -1.7291 -0.5287  1.2384
 6702TIP3   OH241596   3.759   4.816  15.433 -0.1304  0.0554 -0.5149
 6702TIP3    H141597   3.683   4.822  15.492 -0.8831 -0.8360 -1.3551
 6702TIP3    H241598   3.763   4.723  15.410 -0.8568  0.5971 -3.1175
 6703TIP3   OH241599   4.112   3.719   3.694 -0.5443 -0.3898 -0.0019
 6703TIP3    H141600   4.042   3.653   3.684  0.0274 -0.8379 -1.1968
 6703TIP3    H241601   4.191   3.667   3.710  0.0117 -0.0445 -1.5129
 6704TIP3   OH241602   2.000   5.864   4.757 -0.4045 -0.1127 -0.9008
 6704TIP3    H141603   2.008   5.877   4.662 -1.0379  0.8796 -0.8315
 6704TIP3    H241604   2.042   5.941   4.795  0.2337 -0.7164 -0.3518
 6705TIP3   OH241605   3.322   2.821   0.925  0.2298 -0.2211 -0.9589
 6705TIP3    H141606   3.330   2.882   0.998 -0.6706 -1.8369  0.5838
 6705TIP3    H241607   3.257   2.861   0.867  1.6218  1.5248 -1.4059
 6706TIP3   OH241608   2.313   4.860  15.148 -0.0107 -0.5454  0.7145
 6706TIP3    H141609   2.280   4.865  15.237 -0.5975  0.6846  0.4586
 6706TIP3    H241610   2.234   4.856  15.094  0.1745  2.0413  0.1107
 6707TIP3   OH241611   3.536   0.773   1.376 -0.2807  0.0893 -0.4327
 6707TIP3    H141612   3.618   0.735   1.408  0.5759  1.5462 -0.8139
 6707TIP3    H241613   3.482   0.780   1.454 -0.2445 -1.3154 -0.2500
 6708TIP3   OH241614   3.932   5.101  13.438 -0.3821  0.5249 -0.0661
 6708TIP3    H141615   4.005   5.057  13.393  0.9515  1.8418  0.7307
 6708TIP3    H241616   3.917   5.047  13.516  1.2767  1.4200  0.9328
 6709TIP3   OH241617   0.727   6.746   2.136 -0.3824  0.0314 -0.4308
 6709TIP3    H141618   0.692   6.708   2.056  0.5255  1.8018 -1.7316
 6709TIP3    H241619   0.815   6.708   2.144 -1.3217 -2.0217  1.1394
 6710TIP3   OH241620   4.322   2.100  15.556 -0.4224 -0.4624 -0.5309
 6710TIP3    H141621   4.340   2.143  15.472  0.4059 -0.4928 -0.3816
 6710TIP3    H241622   4.254   2.036  15.536 -0.0415 -0.6608 -1.2497
 6711TIP3   OH241623   0.493   4.243  15.147 -0.3097 -0.0862 -0.6113
 6711TIP3    H141624   0.438   4.276  15.219  1.3142  0.8157  0.2935
 6711TIP3    H241625   0.463   4.291  15.070  2.6043  4.8279  0.7809
 6712TIP3   OH241626   1.503   4.793   5.201  0.0887 -0.0800 -0.4485
 6712TIP3    H141627   1.486   4.879   5.164  2.1509  0.0551 -1.2054
 6712TIP3    H241628   1.556   4.749   5.136  0.5479 -1.2817  0.6927
 6713TIP3   OH241629   5.456   4.348  11.747  0.3768  0.1858  0.4620
 6713TIP3    H141630   5.453   4.302  11.663 -1.5870  0.9358  0.0430
 6713TIP3    H241631   5.378   4.317  11.794 -0.4941  2.3193  0.5351
 6714TIP3   OH241632   6.205   1.750   2.987 -0.3460 -0.0559 -0.4577
 6714TIP3    H141633   6.110   1.740   2.982 -0.4579  1.1033 -1.0379
 6714TIP3    H241634   6.219   1.844   2.974  0.8361 -0.1114  0.3102
 6715TIP3   OH241635   4.262   4.619  15.350  0.3482 -0.2193  0.5803
 6715TIP3    H141636   4.228   4.654  15.268  2.0571  0.7746  0.2434
 6715TIP3    H241637   4.206   4.656  15.417  1.6946  2.8124  0.1812
 6716TIP3   OH241638   5.243   3.454   0.035 -0.0220  0.5388 -0.1376
 6716TIP3    H141639   5.151   3.458   0.008 -0.0311 -0.6953 -0.3822
 6716TIP3    H241640   5.239   3.446   0.130 -0.2284 -0.4981 -0.2181
 6717TIP3   OH241641   0.794   5.089   2.567  0.4119  0.1532 -0.3572
 6717TIP3    H141642   0.885   5.117   2.558 -0.2256  2.0522 -1.3573
 6717TIP3    H241643   0.775   5.101   2.660  0.9675  0.4301 -0.2737
 6718TIP3   OH241644   6.620   3.597  11.582  0.1383  0.2878 -0.3106
 6718TIP3    H141645   6.573   3.546  11.516 -0.5710  0.4318  0.0754
 6718TIP3    H241646   6.602   3.551  11.665  0.3596  0.5633 -0.1090
 6719TIP3   OH241647   3.498   1.892  14.242  0.1740  0.2472  0.0280
 6719TIP3    H141648   3.508   1.946  14.163  1.5266  0.7439  0.5049
 6719TIP3    H241649   3.484   1.955  14.313  2.3522  0.0705  0.6893
 6720TIP3   OH241650   1.232   1.680   1.775  0.0526 -0.5369 -0.0863
 6720TIP3    H141651   1.220   1.743   1.704  3.6371 -0.3989 -0.7625
 6720TIP3    H241652   1.176   1.606   1.752 -0.2268  0.2554 -2.1159
 6721TIP3   OH241653   6.384   5.423   2.693  0.3098  0.6905 -0.1204
 6721TIP3    H141654   6.370   5.517   2.703  1.0062  0.7544  0.3689
 6721TIP3    H241655   6.308   5.392   2.643  0.1407  1.5286 -0.3987
 6722TIP3   OH241656   6.534   2.270   1.340 -0.3689  0.3052  0.2279
 6722TIP3    H141657   6.498   2.198   1.392 -2.0972 -0.2612 -1.6237
 6722TIP3    H241658   6.464   2.334   1.336  0.0196  0.6909 -0.6994
 6723TIP3   OH241659   0.918   5.948  14.513  0.1541 -0.5057 -0.3109
 6723TIP3    H141660   0.864   5.871  14.532  0.7599 -0.5101  1.6322
 6723TIP3    H241661   0.894   6.011  14.581 -0.1900  0.9964 -1.7435
 6724TIP3   OH241662   3.041   5.776   6.038  0.1192 -0.0093  0.3023
 6724TIP3    H141663   3.044   5.759   5.944 -0.3983  3.6820 -0.5357
 6724TIP3    H241664   2.952   5.807   6.054 -0.5016 -2.5451  2.5519
 6725TIP3   OH241665   2.368   5.965   2.763 -0.5250  0.1130 -0.8940
 6725TIP3    H141666   2.403   6.053   2.745  0.5013  0.4261  2.0808
 6725TIP3    H241667   2.427   5.930   2.829 -1.7891 -2.2806 -0.9553
 6726TIP3   OH241668   5.811   5.167   5.451  0.5976 -0.3629 -0.4659
 6726TIP3    H141669   5.811   5.212   5.367  0.0547 -0.2873 -0.4296
 6726TIP3    H241670   5.903   5.147   5.468  0.6322 -1.1403 -1.4803
 6727TIP3   OH241671   5.957   6.551  11.810 -0.6491  0.1316 -0.4079
 6727TIP3    H141672   5.894   6.564  11.739 -0.0489 -0.0138 -0.9694
 6727TIP3    H241673   5.992   6.639  11.828 -1.3369  0.2880  0.2198
 6728TIP3   OH241674   3.658   5.333   4.898 -0.3219  0.7059  0.1941
 6728TIP3    H141675   3.751   5.355   4.901 -0.1595  0.0198  0.4600
 6728TIP3    H241676   3.656   5.240   4.878 -1.0225  1.1467 -2.0634
 6729TIP3   OH241677   1.362   5.552   5.706  0.2711  0.1631  0.0188
 6729TIP3    H141678   1.346   5.581   5.796  0.5874 -0.8434  0.4126
 6729TIP3    H241679   1.452   5.579   5.688 -0.4107  2.1190 -0.7211
 6730TIP3   OH241680   3.515   3.827   1.326 -0.0977  0.0039  0.0407
 6730TIP3    H141681   3.435   3.840   1.376 -0.5724 -0.4575 -0.5823
 6730TIP3    H241682   3.510   3.737   1.296  0.5124  0.0640 -0.2561
 6731TIP3   OH241683   6.736   5.310  16.134  0.6751 -0.5455 -0.2669
 6731TIP3    H141684   6.707   5.305  16.225  0.5426  0.1179 -0.2712
 6731TIP3    H241685   6.721   5.222  16.100 -0.9831 -0.3451 -0.1595
 6732TIP3   OH241686   1.904   0.156   2.385  0.0345  0.3341  0.5162
 6732TIP3    H141687   1.840   0.103   2.431  1.7050 -0.0594  2.5300
 6732TIP3    H241688   1.957   0.196   2.454  2.5934 -0.1688 -1.0025
 6733TIP3   OH241689   2.532   6.443  11.528 -0.2953 -0.1703  0.5957
 6733TIP3    H141690   2.550   6.511  11.463  0.8304  0.3153  1.3871
 6733TIP3    H241691   2.591   6.463  11.601 -0.2719 -1.7317  1.0369
 6734TIP3   OH241692   6.276   6.165  13.592  0.3699 -0.4630 -0.2104
 6734TIP3    H141693   6.197   6.131  13.550 -0.4856 -0.0831  1.0284
 6734TIP3    H241694   6.339   6.093  13.586 -0.1998 -0.9286 -0.8418
 6735TIP3   OH241695   4.281   6.303   3.103  0.0234  0.0408 -0.1707
 6735TIP3    H141696   4.303   6.228   3.047 -0.0314  0.5493 -0.8782
 6735TIP3    H241697   4.358   6.360   3.099  0.4727 -0.4096  1.1494
 6736TIP3   OH241698   6.191   5.185   5.111  0.0937  0.8840 -0.3208
 6736TIP3    H141699   6.114   5.140   5.148  0.6833  1.3860  1.6351
 6736TIP3    H241700   6.192   5.270   5.156  1.2533  1.2623 -1.0383
 6737TIP3   OH241701   5.831   0.242   0.194 -0.0530  0.0631  0.2077
 6737TIP3    H141702   5.876   0.303   0.135  1.8461 -0.4893  1.0223
 6737TIP3    H241703   5.839   0.157   0.152 -0.4793 -0.0296  0.3033
 6738TIP3   OH241704   5.441   4.265   0.294 -0.1608  0.2699 -0.1333
 6738TIP3    H141705   5.433   4.182   0.341  1.3641 -0.5378 -1.2230
 6738TIP3    H241706   5.353   4.281   0.260 -0.4325 -1.0158 -0.0930
 6739TIP3   OH241707   0.053   3.014  14.445  0.5737 -0.4252  0.0480
 6739TIP3    H141708   0.037   2.926  14.410  2.3763 -0.1314 -1.6626
 6739TIP3    H241709   0.058   3.070  14.367 -0.5114  1.2373  1.0970
 6740TIP3   OH241710   0.609   0.202  13.777  0.1350  0.1184  0.2262
 6740TIP3    H141711   0.544   0.246  13.721 -0.5113  0.1386  0.9808
 6740TIP3    H241712   0.687   0.196  13.722 -1.0216 -1.4805 -1.3498
 6741TIP3   OH241713   6.419   5.047  12.792 -0.0040 -0.1648 -0.4825
 6741TIP3    H141714   6.340   5.091  12.824  0.1692  0.9433 -1.4965
 6741TIP3    H241715   6.451   4.997  12.867 -2.1946 -1.4457 -0.3274
 6742TIP3   OH241716   5.421   1.384   0.697  0.2952 -0.2296 -0.8414
 6742TIP3    H141717   5.457   1.306   0.740  1.1800  0.9189  0.5814
 6742TIP3    H241718   5.343   1.405   0.749  2.3128  2.1885  1.5110
 6743TIP3   OH241719   2.202   2.035   4.390 -0.2604  0.8097  0.0149
 6743TIP3    H141720   2.143   1.963   4.367 -0.5079  1.1987 -0.5942
 6743TIP3    H241721   2.282   2.017   4.341 -0.1244  0.6634  0.2869
 6744TIP3   OH241722   1.850   2.537  11.087  0.5215  0.5718  0.5543
 6744TIP3    H141723   1.818   2.621  11.052  0.1929  0.5036  0.6899
 6744TIP3    H241724   1.815   2.533  11.176 -0.9821 -0.5240 -0.0465
 6745TIP3   OH241725   5.798   6.590   3.669  0.2123 -0.0869  0.3827
 6745TIP3    H141726   5.855   6.541   3.610  2.1497  1.3622  0.9485
 6745TIP3    H241727   5.811   6.550   3.755 -0.5907 -0.5091  0.3237
 6746TIP3   OH241728   5.496   4.898  15.912 -0.0181  0.2709 -0.3668
 6746TIP3    H141729   5.506   4.810  15.876 -0.0061  0.3974 -0.6713
 6746TIP3    H241730   5.540   4.894  15.997  1.3722  0.4270 -1.0638
 6747TIP3   OH241731   3.303   4.487   1.741  0.3613  0.0251  0.0747
 6747TIP3    H141732   3.280   4.437   1.820  1.5981  1.5843  1.4957
 6747TIP3    H241733   3.395   4.467   1.726  0.4568  0.6850 -0.2454
 6748TIP3   OH241734   4.814   3.267  14.529 -0.6611  0.2718  0.2756
 6748TIP3    H141735   4.723   3.282  14.557 -0.1989 -0.3021  2.2570
 6748TIP3    H241736   4.820   3.309  14.443 -2.4883  1.3286  0.6056
 6749TIP3   OH241737   0.518   2.137   5.231 -0.2732 -0.5886  0.3133
 6749TIP3    H141738   0.569   2.071   5.184 -2.7286 -1.9760 -0.5938
 6749TIP3    H241739   0.531   2.117   5.323  0.0787 -1.4674  0.0784
 6750TIP3   OH241740   6.554   2.256  14.490 -0.5561 -0.2441  0.3874
 6750TIP3    H141741   6.478   2.215  14.450 -0.3528 -0.8923  0.6525
 6750TIP3    H241742   6.517   2.319  14.552 -0.8693  0.1988 -0.2378
 6751TIP3   OH241743   6.090   2.651   2.372  0.9252  0.5053 -0.6925
 6751TIP3    H141744   6.086   2.607   2.287  1.0020 -1.7893  0.4361
 6751TIP3    H241745   6.003   2.638   2.410  1.3211  0.3133  0.1521
 6752TIP3   OH241746   3.468   4.884  11.419 -0.7531  0.5283  0.4768
 6752TIP3    H141747   3.399   4.944  11.392 -0.7393 -0.2166 -1.3471
 6752TIP3    H241748   3.503   4.922  11.500 -1.3281  2.4891 -0.1394
 6753TIP3   OH241749   6.729   5.463   4.273  0.5762 -0.3991 -0.3336
 6753TIP3    H141750   6.684   5.527   4.219 -3.7596 -1.9362  1.0892
 6753TIP3    H241751   6.750   5.391   4.214  0.6927  0.1215 -0.9309
 6754TIP3   OH241752   2.748   4.529  14.167  0.4240  0.0058  0.1770
 6754TIP3    H141753   2.708   4.455  14.212 -0.2468 -1.0227 -1.9465
 6754TIP3    H241754   2.842   4.511  14.169  0.7993  1.5479  3.6716
 6755TIP3   OH241755   0.232   3.811   0.694  0.9003 -0.4280 -0.1165
 6755TIP3    H141756   0.146   3.780   0.664  1.3547 -1.8642 -0.0228
 6755TIP3    H241757   0.282   3.822   0.614  0.5104  0.8714 -0.2066
 6756TIP3   OH241758   3.259   0.221   5.638 -0.2546 -0.1162  0.4269
 6756TIP3    H141759   3.324   0.155   5.664 -1.7487 -0.4442  3.8544
 6756TIP3    H241760   3.274   0.294   5.697 -2.5303  0.0767  0.8446
 6757TIP3   OH241761   6.217   5.483   0.505  0.1253  0.0954  0.2209
 6757TIP3    H141762   6.207   5.412   0.569 -0.8744 -1.7377 -1.8434
 6757TIP3    H241763   6.309   5.478   0.479  0.1453 -0.2263  0.3400
 6758TIP3   OH241764   2.083   2.621  13.365  0.6004  0.0968 -0.2213
 6758TIP3    H141765   2.115   2.679  13.434 -2.6691  2.2161 -0.2930
 6758TIP3    H241766   2.054   2.542  13.411 -2.5162  1.8826  1.1842
 6759TIP3   OH241767   2.232   3.871   3.762  0.5889 -1.0887 -1.0350
 6759TIP3    H141768   2.236   3.933   3.690 -0.7225  0.1927 -0.0716
 6759TIP3    H241769   2.261   3.921   3.839  1.6249 -2.3196 -0.5778
 6760TIP3   OH241770   3.603   5.581   6.316 -0.4513 -0.2249 -0.3654
 6760TIP3    H141771   3.620   5.489   6.334  0.9671 -0.1453 -1.1852
 6760TIP3    H241772   3.684   5.626   6.341 -1.0702  0.7870 -0.1250
 6761TIP3   OH241773   4.427   5.757  12.336 -0.0139  0.0415  0.4289
 6761TIP3    H141774   4.381   5.765  12.252 -1.1088 -1.8673  0.8053
 6761TIP3    H241775   4.517   5.736  12.311 -0.5803 -1.6774 -0.3114
 6762TIP3   OH241776   2.418   2.820  16.162  0.8623 -0.8611  0.1553
 6762TIP3    H141777   2.462   2.742  16.129  1.3363 -0.0504 -1.2360
 6762TIP3    H241778   2.327   2.809  16.134  0.8754 -1.0154  0.1695
 6763TIP3   OH241779   5.479   2.737  14.199  0.6047 -0.4312  0.5017
 6763TIP3    H141780   5.548   2.802  14.192  0.3344 -0.3548 -2.7758
 6763TIP3    H241781   5.504   2.683  14.274  1.7063  2.3443  2.2852
 6764TIP3   OH241782   5.704   4.700   5.774  0.5902  0.2981  0.2877
 6764TIP3    H141783   5.700   4.778   5.829 -3.1207  0.2242  0.4062
 6764TIP3    H241784   5.735   4.631   5.833  1.3280  1.1461  0.9116
 6765TIP3   OH241785   3.527   2.624   2.017 -0.2261  0.0641 -0.7660
 6765TIP3    H141786   3.523   2.640   1.923 -0.0254  1.8109 -0.5026
 6765TIP3    H241787   3.455   2.563   2.034  0.5008 -1.2624 -2.2044
 6766TIP3   OH241788   2.821   1.121   3.766  0.0642 -0.6719 -0.0242
 6766TIP3    H141789   2.810   1.026   3.772 -0.7468 -0.5881 -0.1478
 6766TIP3    H241790   2.898   1.139   3.820 -0.1058 -1.3298  0.4510
 6767TIP3   OH241791   2.113   1.062  15.750 -0.1170  0.1757 -0.0381
 6767TIP3    H141792   2.126   0.997  15.680  1.7081 -0.3078  0.7022
 6767TIP3    H241793   2.018   1.076  15.751 -0.4078 -1.3589 -1.2219
 6768TIP3   OH241794   4.314   6.773  12.818  0.4477  0.5845 -0.2780
 6768TIP3    H141795   4.271   6.754  12.735 -0.3407 -1.0150  0.4485
 6768TIP3    H241796   4.253   6.830  12.864  0.9441  1.5792 -0.8229
 6769TIP3   OH241797   6.564   5.982  15.645 -0.0020 -0.2744  0.2530
 6769TIP3    H141798   6.605   6.063  15.676 -0.6520  0.1770 -0.0427
 6769TIP3    H241799   6.631   5.942  15.588 -0.2790  0.9077 -0.9535
 6770TIP3   OH241800   5.624   2.225  14.393  0.9001 -0.1090  0.5109
 6770TIP3    H141801   5.718   2.221  14.375  0.8301 -2.4654  0.4037
 6770TIP3    H241802   5.615   2.195  14.483  0.2570  0.2656  0.5749
 6771TIP3   OH241803   3.692   5.038  14.415 -0.2403 -0.2678 -0.4364
 6771TIP3    H141804   3.770   5.045  14.360  1.1413 -1.0477  1.3352
 6771TIP3    H241805   3.705   4.957  14.464 -2.1765 -0.3840 -0.0668
 6772TIP3   OH241806   3.968   6.411   0.534  0.3620  0.0201  0.6911
 6772TIP3    H141807   3.884   6.388   0.494  0.9894  1.7895 -1.9070
 6772TIP3    H241808   3.952   6.495   0.576  0.4499 -0.4498  1.6910
 6773TIP3   OH241809   0.367   4.853   0.952 -0.0011  0.2579 -0.0954
 6773TIP3    H141810   0.357   4.791   0.880 -1.3275 -0.5552  0.7401
 6773TIP3    H241811   0.348   4.801   1.031  1.1960  1.1704  0.8390
 6774TIP3   OH241812   1.392   4.019   2.344 -0.7082  0.4458  0.1964
 6774TIP3    H141813   1.463   3.962   2.314 -1.5246 -0.0955 -0.8084
 6774TIP3    H241814   1.385   4.002   2.438 -0.3314 -0.4290  0.0795
 6775TIP3   OH241815   5.863   5.505   2.759 -0.0538 -0.0515  0.6262
 6775TIP3    H141816   5.869   5.411   2.771 -0.3365 -0.0176  1.0566
 6775TIP3    H241817   5.837   5.516   2.667  0.3288 -0.3784  0.4785
 6776TIP3   OH241818   1.084   0.437   0.421  0.1170 -0.2072 -0.1195
 6776TIP3    H141819   1.086   0.530   0.442 -0.8455 -0.1448 -0.2512
 6776TIP3    H241820   1.076   0.434   0.326  2.0808 -0.4614 -0.3130
 6777TIP3   OH241821   1.255   0.722   1.259  0.2141  0.5519 -0.8135
 6777TIP3    H141822   1.259   0.814   1.283 -2.3791  0.5956 -0.2322
 6777TIP3    H241823   1.256   0.722   1.163 -0.9301  1.3191 -0.8483
 6778TIP3   OH241824   4.268   2.418  10.443  0.1200  0.7295 -0.3043
 6778TIP3    H141825   4.187   2.384  10.404  0.3773 -0.9189  0.5003
 6778TIP3    H241826   4.328   2.344  10.440  0.0963  0.4244  3.3536
 6779TIP3   OH241827   5.701   3.225  16.251  0.0772 -0.5427  0.0383
 6779TIP3    H141828   5.750   3.167  16.192 -0.2412 -0.1662 -0.6119
 6779TIP3    H241829   5.619   3.241  16.205  0.4743  1.0402 -0.1670
 6780TIP3   OH241830   5.552   0.104   1.769  0.1313  0.0350 -0.0373
 6780TIP3    H141831   5.530   0.182   1.718 -1.1561  0.3716  0.9647
 6780TIP3    H241832   5.608   0.051   1.711 -1.0288  0.5236 -1.6563
 6781TIP3   OH241833   3.883   1.435   3.219  0.9088 -0.0167  0.4245
 6781TIP3    H141834   3.844   1.516   3.186  0.5859 -0.2413  0.2459
 6781TIP3    H241835   3.972   1.435   3.185  0.4464 -0.4651 -0.8684
 6782TIP3   OH241836   3.724   0.576  11.060 -0.1532  0.1749 -0.0543
 6782TIP3    H141837   3.740   0.532  10.976 -0.2709  0.9943 -0.5267
 6782TIP3    H241838   3.735   0.669  11.040  1.1600  0.3165  1.1521
 6783TIP3   OH241839   5.111   1.894   4.768  0.0120  0.1972  0.0711
 6783TIP3    H141840   5.107   1.937   4.682  1.9682  0.5668  0.1233
 6783TIP3    H241841   5.073   1.808   4.753  1.1039 -0.0724 -1.4115
 6784TIP3   OH241842   2.202   3.967   3.487 -0.0778 -0.5319  0.2139
 6784TIP3    H141843   2.214   3.873   3.472  0.8441 -0.2506 -0.9182
 6784TIP3    H241844   2.279   4.008   3.449 -1.2761  0.8197 -0.8841
 6785TIP3   OH241845   0.807   2.113   1.225 -0.5749 -0.9464 -0.3744
 6785TIP3    H141846   0.826   2.033   1.274  0.6684 -1.1438 -1.1146
 6785TIP3    H241847   0.887   2.128   1.174  0.8252  2.8547  2.5097
 6786TIP3   OH241848   1.645   1.549  15.568 -0.2984  0.7545 -0.6302
 6786TIP3    H141849   1.669   1.465  15.530  0.7504  1.0673 -0.6864
 6786TIP3    H241850   1.568   1.577  15.518 -0.7819 -0.2533 -0.4697
 6787TIP3   OH241851   1.149   0.423   3.408  0.1361 -0.1991  0.7557
 6787TIP3    H141852   1.241   0.440   3.431  0.6930 -1.5938 -0.2819
 6787TIP3    H241853   1.126   0.345   3.458 -0.3714 -0.0482  0.7554
 6788TIP3   OH241854   1.719   6.499   1.119  0.7196 -0.3689 -0.6135
 6788TIP3    H141855   1.715   6.430   1.052  0.6700 -1.1789  0.1994
 6788TIP3    H241856   1.746   6.577   1.072  0.3469 -0.8462 -1.6435
 6789TIP3   OH241857   3.705   4.933   5.543  0.5061  0.1903  0.4023
 6789TIP3    H141858   3.714   4.923   5.638  0.6738  0.3931  0.4099
 6789TIP3    H241859   3.794   4.941   5.511  0.4415  0.3110  0.2493
 6790TIP3   OH241860   1.619   1.233   5.230 -0.6766 -0.2541 -0.1274
 6790TIP3    H141861   1.615   1.233   5.326  0.0503  1.0258 -0.0756
 6790TIP3    H241862   1.676   1.306   5.208 -0.1189 -1.0661 -1.5255
 6791TIP3   OH241863   0.123   3.360   5.392  0.0926 -0.0850  0.3057
 6791TIP3    H141864   0.125   3.449   5.356 -2.6554  0.3901  1.0665
 6791TIP3    H241865   0.071   3.368   5.472  1.2573 -2.0999  1.3311
 6792TIP3   OH241866   6.103   1.697  14.752 -0.2132  0.1196 -0.4224
 6792TIP3    H141867   6.144   1.767  14.803  1.0167 -0.1180 -1.0524
 6792TIP3    H241868   6.051   1.743  14.686 -1.2956  0.4253  0.6113
 6793TIP3   OH241869   3.557   3.514  11.666 -0.4066 -0.4771  0.3061
 6793TIP3    H141870   3.628   3.504  11.602  0.3235  0.8445  0.8675
 6793TIP3    H241871   3.590   3.470  11.744  0.2765  0.9684  0.8854
 6794TIP3   OH241872   5.684   1.782  15.882  0.4078  0.3815 -0.1381
 6794TIP3    H141873   5.717   1.700  15.846 -1.2780  0.0675 -1.0420
 6794TIP3    H241874   5.687   1.769  15.977  0.8138 -0.4358 -0.2513
 6795TIP3   OH241875   0.395   6.434  16.989 -0.0192 -0.2619  0.1353
 6795TIP3    H141876   0.406   6.345  16.956  0.1050 -0.4119  0.5757
 6795TIP3    H241877   0.485   6.466  17.000  0.0539  1.2064 -3.3638
 6796TIP3   OH241878   0.280   6.531   5.791  0.5803  0.1658  0.5932
 6796TIP3    H141879   0.369   6.535   5.754  0.5146 -0.5024  0.3604
 6796TIP3    H241880   0.288   6.574   5.876  0.5683  2.4733 -0.4851
 6797TIP3   OH241881   1.681   6.109   1.835  0.2433  0.4788  0.0164
 6797TIP3    H141882   1.596   6.076   1.864  1.2908 -1.9914  0.5617
 6797TIP3    H241883   1.715   6.156   1.911 -0.4819  1.2072 -0.0973
 6798TIP3   OH241884   1.201   3.171  14.001 -0.8978 -0.1468  0.4472
 6798TIP3    H141885   1.117   3.173  13.956 -0.9851  0.0538  0.6167
 6798TIP3    H241886   1.264   3.149  13.933 -0.8680  1.3559 -0.0481
 6799TIP3   OH241887   0.907   0.278   0.021  0.2464 -0.1206 -0.3586
 6799TIP3    H141888   1.000   0.297   0.028  0.0613  0.8707 -0.4416
 6799TIP3    H241889   0.903   0.197  -0.029  1.0263  0.5277 -1.5355
 6800TIP3   OH241890   4.193   6.403  11.272 -0.0665 -0.1755  0.2549
 6800TIP3    H141891   4.272   6.456  11.262 -0.2804  0.1012  0.0085
 6800TIP3    H241892   4.127   6.464  11.304  0.1126 -0.6506  1.5962
 6801TIP3   OH241893   4.120   5.584   2.942  0.0999  0.1615 -0.7370
 6801TIP3    H141894   4.097   5.662   2.892 -0.8452 -0.5523 -1.4405
 6801TIP3    H241895   4.061   5.515   2.910  0.8032 -0.8119 -0.0273
 6802TIP3   OH241896   2.643   4.631  16.283  0.2233  0.0092 -0.4492
 6802TIP3    H141897   2.551   4.611  16.264 -0.4938  1.8642  0.7428
 6802TIP3    H241898   2.682   4.646  16.197 -0.2941 -1.7877 -1.0459
 6803TIP3   OH241899   4.557   3.662  13.734 -0.1600  0.0034 -0.6278
 6803TIP3    H141900   4.636   3.672  13.681  0.7756  0.2905  0.7942
 6803TIP3    H241901   4.577   3.705  13.817 -1.6784 -0.2447 -0.0947
 6804TIP3   OH241902   5.599   4.624   1.679 -0.5138 -1.0615 -0.1479
 6804TIP3    H141903   5.575   4.709   1.641  1.0675 -0.7827 -0.6254
 6804TIP3    H241904   5.548   4.560   1.631 -1.8644 -0.3801  0.3327
 6805TIP3   OH241905   4.116   0.755   0.370  0.4906  0.0395 -0.5057
 6805TIP3    H141906   4.119   0.691   0.299  1.8840  0.1606 -0.5767
 6805TIP3    H241907   4.068   0.711   0.440  3.0984 -1.9195  0.2054
 6806TIP3   OH241908   6.256   4.764  10.933 -0.6509  0.3751  0.3488
 6806TIP3    H141909   6.176   4.710  10.927 -1.5046  1.6829 -0.7404
 6806TIP3    H241910   6.238   4.825  11.004 -0.2056  0.0568  0.7404
 6807TIP3   OH241911   4.314   3.615  16.185 -0.5583 -0.0788  0.1680
 6807TIP3    H141912   4.264   3.696  16.195 -0.3516  0.3021 -1.6219
 6807TIP3    H241913   4.290   3.583  16.098  3.3267  0.8522 -1.4223
 6808TIP3   OH241914   4.125   4.912   5.225  0.1036 -0.5945 -0.0928
 6808TIP3    H141915   4.211   4.898   5.264  0.2590 -2.4740 -1.0337
 6808TIP3    H241916   4.134   4.993   5.175  0.5896  0.5251  1.7186
 6809TIP3   OH241917   0.141   4.980  13.308  0.1871  0.0261  0.7391
 6809TIP3    H141918   0.180   5.042  13.246 -0.2248  2.3079  2.6247
 6809TIP3    H241919   0.048   4.978  13.283  0.2798 -0.2071  0.3997
 6810TIP3   OH241920   4.036   1.087  16.040 -0.8562 -0.0180  0.0727
 6810TIP3    H141921   4.093   1.019  16.005 -2.6718 -1.7639  0.3377
 6810TIP3    H241922   4.092   1.164  16.048  1.0479 -1.2237 -1.0758
 6811TIP3   OH241923   4.346   1.133   5.182  0.1282  0.2409 -0.8366
 6811TIP3    H141924   4.326   1.207   5.124 -1.7660  0.7581  0.3572
 6811TIP3    H241925   4.341   1.171   5.270  0.7468 -0.9788 -0.2625
 6812TIP3   OH241926   2.867   1.588   3.136 -0.0913  0.6614 -0.0931
 6812TIP3    H141927   2.879   1.669   3.185  1.3646  0.7011 -0.4501
 6812TIP3    H241928   2.849   1.522   3.203 -0.2245  1.0859  0.2948
 6813TIP3   OH241929   5.410   5.003   2.875 -0.0420  0.2360 -0.1998
 6813TIP3    H141930   5.317   4.980   2.878  0.5571 -2.4631  0.1141
 6813TIP3    H241931   5.421   5.047   2.791 -1.3875 -0.3793 -0.7261
 6814TIP3   OH241932   1.944   1.402  11.384 -0.2732  0.3581  0.4190
 6814TIP3    H141933   2.002   1.326  11.388 -0.1301  0.3998 -0.6292
 6814TIP3    H241934   1.857   1.366  11.402 -0.2994 -0.1797 -0.7098
 6815TIP3   OH241935   4.144   5.343   6.505  0.0873 -0.4222 -0.0187
 6815TIP3    H141936   4.071   5.391   6.465  0.9346  1.1171  0.1985
 6815TIP3    H241937   4.122   5.338   6.598 -0.6741 -1.7428 -0.2538
 6816TIP3   OH241938   4.077   2.712  12.220 -0.9714 -0.2095 -0.1714
 6816TIP3    H141939   4.035   2.791  12.187  1.4575  0.8863 -0.8684
 6816TIP3    H241940   4.120   2.673  12.144 -0.2894 -0.9943  0.5814
 6817TIP3   OH241941   2.405   3.882   1.961 -0.6486  0.0142 -0.2125
 6817TIP3    H141942   2.335   3.942   1.937  0.6300  1.2441 -1.0537
 6817TIP3    H241943   2.420   3.830   1.882  1.1168  1.5615 -0.9453
 6818TIP3   OH241944   4.863   2.382   2.094  0.1095  1.4019 -0.0967
 6818TIP3    H141945   4.876   2.370   2.189  0.3237 -0.8939 -0.3540
 6818TIP3    H241946   4.769   2.397   2.085 -0.6675 -2.1813  0.3048
 6819TIP3   OH241947   0.367   4.532   5.662  0.5420 -0.9118 -0.0004
 6819TIP3    H141948   0.355   4.445   5.700 -1.3709 -0.4337  0.5776
 6819TIP3    H241949   0.391   4.587   5.736 -1.5754 -0.3093  0.2944
 6820TIP3   OH241950   2.413   5.360  15.450 -0.7860 -0.6977 -0.0536
 6820TIP3    H141951   2.348   5.355  15.379 -1.0372  2.2380 -0.1673
 6820TIP3    H241952   2.386   5.437  15.501  0.0325 -2.0791  2.6277
 6821TIP3   OH241953   1.705   0.738  11.275 -0.1659 -0.2343  0.0846
 6821TIP3    H141954   1.757   0.757  11.354  1.6369 -2.2843 -0.5107
 6821TIP3    H241955   1.717   0.644  11.261 -3.2580 -0.6095 -0.7336
 6822TIP3   OH241956   1.250   5.705   5.963  0.1000 -0.2957 -0.0900
 6822TIP3    H141957   1.270   5.673   6.051 -0.6487 -1.5139 -0.3396
 6822TIP3    H241958   1.165   5.666   5.942  0.4047 -0.2598 -1.4746
 6823TIP3   OH241959   6.674   4.861  13.488 -0.0556  0.7905 -0.3837
 6823TIP3    H141960   6.758   4.872  13.532 -0.2364  1.4192 -0.1826
 6823TIP3    H241961   6.610   4.898  13.549 -0.5860 -0.4009 -0.1705
 6824TIP3   OH241962   3.909   0.018  15.534 -0.1785  0.0525 -0.7737
 6824TIP3    H141963   3.827   0.059  15.506  0.4389  0.4824 -2.0490
 6824TIP3    H241964   3.917  -0.059  15.478 -1.2988 -1.8610  1.5557
 6825TIP3   OH241965   3.510   3.429  15.847  0.4477  0.1977  0.0255
 6825TIP3    H141966   3.545   3.371  15.779  0.1576 -0.9488  0.8287
 6825TIP3    H241967   3.571   3.420  15.920  0.6828  1.3216 -0.0273
 6826TIP3   OH241968   0.288   1.635  12.505 -0.0912  0.3455  0.3521
 6826TIP3    H141969   0.366   1.599  12.548  0.0158 -0.0445 -0.1560
 6826TIP3    H241970   0.322   1.676  12.425 -0.5226 -0.6905 -0.3694
 6827TIP3   OH241971   6.229   4.230   6.533  0.0495 -0.9271 -0.1433
 6827TIP3    H141972   6.225   4.135   6.524 -0.2521 -1.1018  1.5152
 6827TIP3    H241973   6.318   4.247   6.566 -0.1464 -0.7200  0.2867
 6828TIP3   OH241974   3.771   3.082   1.397 -0.0690 -0.0328 -0.4590
 6828TIP3    H141975   3.745   3.172   1.382  1.3885  0.2430 -1.6121
 6828TIP3    H241976   3.707   3.048   1.459 -0.1837  2.0263  0.6277
 6829TIP3   OH241977   1.830   2.125  14.603  0.5528 -0.5759 -0.2756
 6829TIP3    H141978   1.896   2.183  14.641  1.1764 -1.5538  0.1652
 6829TIP3    H241979   1.766   2.113  14.673  0.5135 -0.5467 -0.3069
 6830TIP3   OH241980   4.262   2.265   4.445  0.5450  0.3771  0.2858
 6830TIP3    H141981   4.226   2.269   4.357 -0.9503  1.1603  0.8938
 6830TIP3    H241982   4.343   2.317   4.441  1.5039 -1.1370 -1.0250
 6831TIP3   OH241983   2.273   3.465  10.209 -0.1264  0.2172  0.8227
 6831TIP3    H141984   2.306   3.546  10.169 -0.3735 -0.0337  0.0760
 6831TIP3    H241985   2.283   3.478  10.303 -0.1858  1.1308  0.7132
 6832TIP3   OH241986   5.921   0.229  11.215 -0.0715 -0.3185  0.0503
 6832TIP3    H141987   5.979   0.192  11.148  0.5277  0.4722  0.1162
 6832TIP3    H241988   5.974   0.233  11.294 -0.4546 -0.2951  0.3087
 6833TIP3   OH241989   3.944   4.088   1.329  0.0329 -0.0449  0.4960
 6833TIP3    H141990   4.021   4.120   1.282 -0.0443 -0.9080 -0.2506
 6833TIP3    H241991   3.874   4.147   1.304  0.6459  1.3963  2.0109
 6834TIP3   OH241992   0.079   1.721   5.538  0.1824  0.0491 -0.4335
 6834TIP3    H141993   0.003   1.772   5.512 -0.4529 -0.3381  0.5851
 6834TIP3    H241994   0.081   1.729   5.634  1.5677  0.2475 -0.4544
 6835TIP3   OH241995   0.473   0.760  10.443 -0.0622  0.4716 -0.6947
 6835TIP3    H141996   0.481   0.676  10.397  0.2680 -0.6960  1.3663
 6835TIP3    H241997   0.556   0.805  10.425  0.8941 -0.8123  0.2929
 6836TIP3   OH241998   0.340   4.223   0.256 -0.2614 -0.0925  0.1646
 6836TIP3    H141999   0.394   4.299   0.274  0.8231 -0.7967 -0.0211
 6836TIP3    H242000   0.355   4.204   0.164 -0.8770 -0.2600  0.0964
 6837TIP3   OH242001   0.563   4.719  14.708 -0.1502  0.5331 -0.6046
 6837TIP3    H142002   0.481   4.751  14.746  1.1698  0.4931  2.5875
 6837TIP3    H242003   0.606   4.672  14.780  2.4602  0.1365 -2.2940
 6838TIP3   OH242004   5.176   1.329   0.208  0.2425  0.5235 -0.1877
 6838TIP3    H142005   5.223   1.304   0.128  0.3829  0.2113 -0.0073
 6838TIP3    H242006   5.242   1.371   0.263  0.2317  0.3903 -0.0736
 6839TIP3   OH242007   1.834   5.661  12.865 -0.4106 -0.1833  0.2643
 6839TIP3    H142008   1.754   5.630  12.823 -0.3037 -1.2716  0.8387
 6839TIP3    H242009   1.859   5.738  12.814 -2.7606  1.2674  1.0927
 6840TIP3   OH242010   6.335   5.018   5.330  0.4420  0.2045 -0.0962
 6840TIP3    H142011   6.268   5.074   5.290  1.3032  1.0626 -0.3952
 6840TIP3    H242012   6.405   5.015   5.265  1.2558  0.4383  0.7512
 6841TIP3   OH242013   6.101   2.337   0.614  0.1981 -0.6269 -0.3116
 6841TIP3    H142014   6.172   2.305   0.671  0.4448  0.4574  0.0322
 6841TIP3    H242015   6.121   2.430   0.603 -1.1188 -0.3296 -0.3015
 6842TIP3   OH242016   3.634   4.308  12.813  0.0090 -0.1118 -0.0924
 6842TIP3    H142017   3.581   4.296  12.892 -1.7452  1.2398 -1.0041
 6842TIP3    H242018   3.591   4.255  12.746 -0.3074  1.1104 -0.8830
 6843TIP3   OH242019   1.022   5.237   4.705  1.0813 -0.3716  0.1636
 6843TIP3    H142020   0.960   5.165   4.695 -1.0950  1.1256  1.8859
 6843TIP3    H242021   1.012   5.264   4.797  0.8278  2.9024 -0.7127
 6844TIP3   OH242022   1.861   0.609  16.130 -0.1397  0.1726 -0.4988
 6844TIP3    H142023   1.942   0.606  16.079  0.5484  0.4811  0.5483
 6844TIP3    H242024   1.807   0.538  16.093  0.0673  0.7818 -2.0619
 6845TIP3   OH242025   5.069   3.717  11.283  0.4605  0.5489 -0.1661
 6845TIP3    H142026   5.002   3.775  11.320 -0.3521  0.0563 -0.8089
 6845TIP3    H242027   5.151   3.749  11.319 -0.1995  0.6784  1.2918
 6846TIP3   OH242028   4.646   4.089   3.510 -0.3293 -0.1597 -0.4104
 6846TIP3    H142029   4.684   4.058   3.592 -0.9565  0.3387  0.0773
 6846TIP3    H242030   4.608   4.011   3.470 -1.2304 -0.1765  0.4401
 6847TIP3   OH242031   0.839   5.398   1.967 -0.9744  0.0690 -0.2221
 6847TIP3    H142032   0.771   5.443   2.017  0.0223  1.6134 -0.1798
 6847TIP3    H242033   0.833   5.435   1.879  0.2482  0.7585 -0.0347
 6848TIP3   OH242034   2.173   1.757   2.984 -0.3076 -0.0007 -0.3238
 6848TIP3    H142035   2.166   1.828   2.920 -0.2967  0.0751 -0.2415
 6848TIP3    H242036   2.111   1.781   3.053 -1.2311 -0.7035 -0.8886
 6849TIP3   OH242037   1.912   0.905   1.448  0.1922  0.1772  0.3451
 6849TIP3    H142038   1.982   0.970   1.445  0.8920 -0.3837  2.5313
 6849TIP3    H242039   1.832   0.956   1.456  0.2104  0.8483 -2.6855
 6850TIP3   OH242040   1.413   0.057   1.726  0.0497  0.3404  0.6964
 6850TIP3    H142041   1.481   0.006   1.683 -1.3168 -0.2357 -0.9276
 6850TIP3    H242042   1.418   0.143   1.684 -0.6026  0.0964  0.0815
 6851TIP3   OH242043   1.949   2.371   0.897  0.3049 -0.2927  0.1671
 6851TIP3    H142044   1.988   2.330   0.974 -0.0301 -2.9719 -0.9618
 6851TIP3    H242045   1.858   2.386   0.921  0.2522 -0.9222  0.3697
 6852TIP3   OH242046   4.135   6.660   5.829 -0.0735  0.3024  0.0652
 6852TIP3    H142047   4.179   6.575   5.828  0.8416  0.7355  1.4220
 6852TIP3    H242048   4.044   6.640   5.806  0.1145 -1.0497  0.4452
 6853TIP3   OH242049   4.823   5.680  13.490  0.0277 -0.9122 -0.1525
 6853TIP3    H142050   4.744   5.725  13.522  1.0634  0.6230  0.3676
 6853TIP3    H242051   4.895   5.728  13.530  1.2983 -1.0971 -2.0826
 6854TIP3   OH242052   2.505   3.570   5.707 -0.1046 -0.4876  0.7594
 6854TIP3    H142053   2.568   3.639   5.686 -0.4561 -0.1816  0.6888
 6854TIP3    H242054   2.534   3.536   5.792 -0.1032 -0.0383  0.9419
 6855TIP3   OH242055   2.823   4.328  14.892 -0.3284 -0.1183 -0.5320
 6855TIP3    H142056   2.912   4.350  14.863 -0.5194  0.7354 -0.4859
 6855TIP3    H242057   2.830   4.320  14.987 -0.3305  0.0812 -0.5154
 6856TIP3   OH242058   2.991   0.329  16.920  0.3839  1.0520  0.2693
 6856TIP3    H142059   2.960   0.253  16.970  2.5091  1.4053  2.2846
 6856TIP3    H242060   2.935   0.401  16.949 -0.2037  0.7055  0.0171
 6857TIP3   OH242061   5.211   0.765  12.057  0.8925  0.0698  0.0688
 6857TIP3    H142062   5.280   0.808  12.108 -0.3140 -1.1595  2.9205
 6857TIP3    H242063   5.135   0.822  12.066  0.5214 -0.4238  0.0962
 6858TIP3   OH242064   2.468   4.372  17.153 -0.1638 -1.5558 -0.7711
 6858TIP3    H142065   2.396   4.386  17.214  0.3113 -0.2646 -0.4812
 6858TIP3    H242066   2.542   4.347  17.209  0.2290 -0.5317 -0.8099
 6859TIP3   OH242067   1.622   4.384  13.249 -0.1489  0.0685  0.1561
 6859TIP3    H142068   1.679   4.385  13.171  0.2830  2.2107  0.4247
 6859TIP3    H242069   1.670   4.331  13.313  0.2846 -0.3253 -0.4778
 6860TIP3   OH242070   3.194   6.785   2.990 -0.1320 -0.0460 -0.4505
 6860TIP3    H142071   3.187   6.865   3.041 -2.3869 -1.0231  0.9144
 6860TIP3    H242072   3.134   6.797   2.917  0.5844  0.0325 -1.0412
 6861TIP3   OH242073   0.052   1.592   1.613 -0.6366  0.1631 -0.1847
 6861TIP3    H142074  -0.040   1.594   1.587 -0.3753  0.3927 -1.1397
 6861TIP3    H242075   0.069   1.680   1.648 -1.0784 -0.2529  1.1124
 6862TIP3   OH242076   6.349   4.311   0.316 -0.4341 -0.1212  0.0452
 6862TIP3    H142077   6.443   4.297   0.320 -0.5949 -0.9613  2.0202
 6862TIP3    H242078   6.311   4.223   0.319 -1.3115  0.1356 -1.7729
 6863TIP3   OH242079   6.665   2.001  16.268  0.1587  0.5868  0.6545
 6863TIP3    H142080   6.678   2.082  16.318 -0.1637 -0.0014  1.7338
 6863TIP3    H242081   6.677   1.931  16.333 -0.0904 -0.2098 -0.1395
 6864TIP3   OH242082   0.994   1.107  12.298 -0.1363 -0.0440 -0.7628
 6864TIP3    H142083   1.008   1.189  12.251  0.9135  0.3426  0.1791
 6864TIP3    H242084   1.059   1.108  12.368  0.8404 -2.3250 -1.5478
 6865TIP3   OH242085   4.953   4.718   5.057 -0.1082  0.3813  0.6103
 6865TIP3    H142086   5.049   4.717   5.055  0.0101  2.9313  1.5547
 6865TIP3    H242087   4.931   4.787   5.120 -2.5919 -1.4661  1.9535
 6866TIP3   OH242088   0.092   1.207   0.505 -0.4732 -0.6791 -0.3524
 6866TIP3    H142089   0.172   1.157   0.487  0.1204 -0.2382  0.9077
 6866TIP3    H242090   0.028   1.142   0.531  0.1276 -0.8782  0.7126
 6867TIP3   OH242091   3.834   0.523  13.983 -0.3765 -0.1681  0.0333
 6867TIP3    H142092   3.882   0.563  14.056  0.7647 -0.4715 -0.5192
 6867TIP3    H242093   3.897   0.526  13.910 -0.6775 -1.9278 -0.3235
 6868TIP3   OH242094   0.778   4.656   5.705  0.0659 -0.8277  0.0442
 6868TIP3    H142095   0.781   4.564   5.730 -3.4672 -0.9949  0.3488
 6868TIP3    H242096   0.740   4.656   5.617  1.5200  0.3252 -0.6325
 6869TIP3   OH242097   5.698   1.843   0.907 -0.4249  0.0492  0.0235
 6869TIP3    H142098   5.744   1.918   0.869 -2.3247  0.8128 -0.8837
 6869TIP3    H242099   5.767   1.780   0.925  1.2243  1.9470  0.7092
 6870TIP3   OH242100   5.473   0.834  14.613 -0.2451 -0.7884 -0.5222
 6870TIP3    H142101   5.389   0.787  14.608 -0.5640 -0.4128  0.7856
 6870TIP3    H242102   5.468   0.900  14.544 -0.9826 -0.8413 -0.5291
 6871TIP3   OH242103   3.297   1.746   0.659  0.2998  0.3025 -0.6904
 6871TIP3    H142104   3.243   1.823   0.643 -0.3414 -0.4120 -2.2251
 6871TIP3    H242105   3.347   1.734   0.578  0.8901 -0.5089 -0.2341
 6872TIP3   OH242106   1.647   2.576   5.538 -0.5125  0.1740  0.1204
 6872TIP3    H142107   1.718   2.528   5.495 -1.7610 -1.4976 -0.2062
 6872TIP3    H242108   1.608   2.512   5.597 -0.8728  1.4870  1.3626
 6873TIP3   OH242109   2.167   5.341   2.076  0.1000  0.4021  0.4195
 6873TIP3    H142110   2.174   5.269   2.139 -0.6205  0.9805  1.1774
 6873TIP3    H242111   2.225   5.316   2.005  1.1091 -0.1666  1.4134
 6874TIP3   OH242112   4.531   3.570   5.701 -0.2607  0.2126 -0.1060
 6874TIP3    H142113   4.567   3.657   5.688  1.3515 -0.3990 -0.0119
 6874TIP3    H242114   4.585   3.513   5.647  0.2269 -1.0311  1.6090
 6875TIP3   OH242115   4.302   1.273  17.145  0.1802 -0.4775  0.1190
 6875TIP3    H142116   4.393   1.276  17.115  0.1662 -2.6365 -0.2641
 6875TIP3    H242117   4.255   1.330  17.083  1.1840  0.3611  0.0980
 6876TIP3   OH242118   2.957   5.264   5.070  0.3044 -0.4268 -0.0805
 6876TIP3    H142119   2.896   5.199   5.104  1.8019 -0.9349  1.7759
 6876TIP3    H242120   3.044   5.228   5.088  1.1855  1.0804 -1.0558
 6877TIP3   OH242121   5.388   0.657   3.464  0.0471 -0.7280  0.6586
 6877TIP3    H142122   5.453   0.688   3.401  0.6054 -1.9461  0.6050
 6877TIP3    H242123   5.307   0.700   3.437  0.3215 -1.0612 -0.7763
 6878TIP3   OH242124   3.405   6.110   4.655  0.1873 -0.5974 -0.2693
 6878TIP3    H142125   3.366   6.074   4.734 -0.2727  1.2253  0.3700
 6878TIP3    H242126   3.483   6.056   4.640  0.5344 -0.6898  1.6658
 6879TIP3   OH242127   1.410   4.854  15.695 -0.3750 -0.1606  0.1612
 6879TIP3    H142128   1.324   4.882  15.725 -0.2165  0.5050  0.0188
 6879TIP3    H242129   1.398   4.763  15.670 -0.8539 -0.2998  0.8564
 6880TIP3   OH242130   5.961   3.049  16.695 -0.6342 -0.0284 -0.2229
 6880TIP3    H142131   5.962   2.979  16.761 -0.0741  0.6487  0.5064
 6880TIP3    H242132   5.975   3.004  16.612  1.3618 -0.6280  0.3995
 6881TIP3   OH242133   5.434   3.970   2.439 -0.0479  0.1234 -0.2093
 6881TIP3    H142134   5.506   3.907   2.432 -0.3564 -0.3986  0.9787
 6881TIP3    H242135   5.358   3.924   2.403 -0.0003  0.3016 -0.5388
 6882TIP3   OH242136   5.888   2.743   0.617 -0.1786 -0.0379 -0.3018
 6882TIP3    H142137   5.911   2.720   0.527  0.2433 -0.0753 -0.1861
 6882TIP3    H242138   5.886   2.838   0.618 -0.2710 -0.0394 -0.3739
 6883TIP3   OH242139   1.520   2.679  16.868  0.3816 -0.2738  0.3042
 6883TIP3    H142140   1.559   2.765  16.856  1.0470 -0.5705  0.3225
 6883TIP3    H242141   1.434   2.685  16.826  1.1037 -0.1186 -1.1871
 6884TIP3   OH242142   0.478   3.981   4.382  0.0129 -0.3073 -0.3579
 6884TIP3    H142143   0.434   3.942   4.307 -2.0226  0.1281  0.5419
 6884TIP3    H242144   0.408   4.021   4.433  1.5175  0.7635  0.9824
 6885TIP3   OH242145   2.443   6.500   2.449  0.2228 -0.4010 -0.8401
 6885TIP3    H142146   2.516   6.441   2.467 -0.6435 -1.9238 -2.0412
 6885TIP3    H242147   2.439   6.505   2.353 -1.8767 -1.2065 -0.8414
 6886TIP3   OH242148   5.269   1.987  15.996 -0.1624  0.1244 -0.2394
 6886TIP3    H142149   5.293   1.912  15.942 -2.8604  0.2458 -1.7458
 6886TIP3    H242150   5.188   1.962  16.039  0.7917  0.8710  2.1636
 6887TIP3   OH242151   3.314   5.276   0.598 -0.1995 -0.7771  0.0891
 6887TIP3    H142152   3.300   5.335   0.523  0.4816  0.6487  1.0494
 6887TIP3    H242153   3.226   5.249   0.623 -0.4969 -0.5237 -0.6481
 6888TIP3   OH242154   3.286   2.469   1.991  0.3184 -0.2333 -0.3388
 6888TIP3    H142155   3.241   2.385   1.978 -2.6980  1.0311  0.9100
 6888TIP3    H242156   3.265   2.521   1.913  0.7077 -0.0489 -0.3237
 6889TIP3   OH242157   0.154   0.270  13.075  0.1959  0.1357 -1.1147
 6889TIP3    H142158   0.124   0.212  13.145  0.2023  1.2387 -0.1829
 6889TIP3    H242159   0.081   0.272  13.013  0.2769 -1.0237 -1.2766
 6890TIP3   OH242160   6.137   1.846  13.093 -0.6352 -0.5512  0.2686
 6890TIP3    H142161   6.219   1.826  13.047  0.1165  1.7557  0.4737
 6890TIP3    H242162   6.069   1.813  13.036  0.3529  0.3322 -1.5066
 6891TIP3   OH242163   4.853   6.280  16.277  0.3109  0.1083 -0.4775
 6891TIP3    H142164   4.762   6.277  16.247 -0.0117 -0.6900  0.5316
 6891TIP3    H242165   4.872   6.374  16.283 -0.7765  0.3157  0.2255
 6892TIP3   OH242166   3.345   5.918  14.973  0.4908 -1.0104  0.4619
 6892TIP3    H142167   3.321   5.945  14.884  0.5031  1.7449  1.2036
 6892TIP3    H242168   3.329   5.824  14.974 -0.1114 -1.0340 -2.2584
 6893TIP3   OH242169   0.052   2.133  12.309 -0.2246  0.2395  0.1839
 6893TIP3    H142170   0.132   2.083  12.292 -0.9044 -0.5811 -0.7208
 6893TIP3    H242171   0.063   2.214  12.260 -0.1277 -0.0647 -0.3049
 6894TIP3   OH242172   5.085   2.900   3.715  0.1960 -0.4212 -0.1022
 6894TIP3    H142173   5.170   2.914   3.674  0.0457  1.7743  0.2022
 6894TIP3    H242174   5.105   2.864   3.802  0.7985 -0.0738 -0.0927
 6895TIP3   OH242175   6.201   5.652   1.451  0.3064 -0.2953  0.1859
 6895TIP3    H142176   6.180   5.683   1.539  0.8843  1.1035 -0.1462
 6895TIP3    H242177   6.193   5.557   1.456 -1.3447 -0.1367  1.3028
 6896TIP3   OH242178   0.277   3.989  15.281 -0.0236 -0.2273 -0.2481
 6896TIP3    H142179   0.344   3.982  15.349 -0.9380  1.5997  0.9294
 6896TIP3    H242180   0.198   4.015  15.328 -0.8556  0.4059 -1.9302
 6897TIP3   OH242181   6.488   4.848  12.994  0.3638 -0.3340 -0.2180
 6897TIP3    H142182   6.425   4.809  13.055  1.5525 -1.7838  0.1272
 6897TIP3    H242183   6.493   4.786  12.921  0.2040  0.5765 -1.0324
 6898TIP3   OH242184   2.130   2.118   3.805 -0.2761 -0.1652 -0.3428
 6898TIP3    H142185   2.035   2.115   3.796 -0.2562  0.4031 -0.7958
 6898TIP3    H242186   2.161   2.038   3.762 -0.4906  0.1799 -1.1693
 6899TIP3   OH242187   5.698   1.444   0.758  0.8416 -0.1318 -0.0209
 6899TIP3    H142188   5.749   1.400   0.690  1.0554  0.9886 -0.6075
 6899TIP3    H242189   5.607   1.436   0.729  1.0767  2.5635 -1.8664
 6900TIP3   OH242190   2.794   1.225   4.304 -0.0071 -0.0600  0.1979
 6900TIP3    H142191   2.760   1.223   4.394 -1.9575 -0.9089 -0.4965
 6900TIP3    H242192   2.885   1.196   4.312  0.6689  2.3062  2.1599
 6901TIP3   OH242193   2.626   3.512   1.233  0.4621  0.4037  0.0301
 6901TIP3    H142194   2.637   3.425   1.195 -1.4134 -0.1110  0.5506
 6901TIP3    H242195   2.571   3.559   1.169  1.8926  1.4222 -0.5083
 6902TIP3   OH242196   2.950   0.578   2.708  0.0549 -0.1115  0.5322
 6902TIP3    H142197   2.953   0.662   2.753 -1.2228  1.4811 -2.1501
 6902TIP3    H242198   2.996   0.593   2.625  0.5453 -2.3363  0.3218
 6903TIP3   OH242199   3.079   0.594   2.430  0.3242 -0.3188  0.2115
 6903TIP3    H142200   3.164   0.634   2.413  0.2487 -0.4873 -0.6008
 6903TIP3    H242201   3.087   0.505   2.397 -0.6284  0.1144 -1.3242
 6904TIP3   OH242202   2.860   3.625   2.643  0.9282  0.2502  0.1382
 6904TIP3    H142203   2.828   3.709   2.675 -0.2840  0.1853 -0.8305
 6904TIP3    H242204   2.899   3.645   2.558 -2.0311 -0.5260 -1.5366
 6905TIP3   OH242205   2.099   1.060   1.871  0.3438  0.3151  0.7281
 6905TIP3    H142206   2.144   1.003   1.808 -1.2875  0.6361 -0.7999
 6905TIP3    H242207   2.060   0.999   1.934  0.1694 -0.1644  0.1713
 6906TIP3   OH242208   0.546   0.748  12.508 -0.0049 -0.3655  1.4578
 6906TIP3    H142209   0.556   0.722  12.416 -1.7458  0.4159  1.0105
 6906TIP3    H242210   0.576   0.672  12.558 -0.2255 -1.2838  0.2426
 6907TIP3   OH242211   6.080   6.799  14.600 -0.3885 -0.1652 -0.0680
 6907TIP3    H142212   6.045   6.771  14.516  0.6028  1.0271 -0.9118
 6907TIP3    H242213   6.004   6.798  14.659 -0.9216 -1.8929 -0.7065
 6908TIP3   OH242214   1.135   3.181  11.580  0.8550 -0.0887 -0.1127
 6908TIP3    H142215   1.109   3.196  11.671  1.2379  1.9224 -0.2971
 6908TIP3    H242216   1.140   3.086  11.573 -0.1349 -0.3324  1.6940
 6909TIP3   OH242217   0.482   5.887   6.981 -0.4903  0.0503  0.0949
 6909TIP3    H142218   0.458   5.968   6.935  0.5230  0.5994  0.4777
 6909TIP3    H242219   0.427   5.820   6.943 -2.5538  1.1959  0.8970
 6910TIP3   OH242220   5.120   1.576  14.522  0.0556 -0.0430  0.5574
 6910TIP3    H142221   5.048   1.636  14.541  0.6462  0.7653  0.2812
 6910TIP3    H242222   5.175   1.622  14.459  0.7351 -0.7137  0.6380
 6911TIP3   OH242223   3.506   3.660  14.980 -0.0892  0.4445 -0.3554
 6911TIP3    H142224   3.511   3.569  14.950 -1.3648  0.6845 -1.3763
 6911TIP3    H242225   3.576   3.667  15.045  2.1651 -0.3581 -2.5601
 6912TIP3   OH242226   0.719   3.987  11.508 -0.2632  0.2343  0.9560
 6912TIP3    H142227   0.800   3.943  11.481 -0.0019  1.4846 -0.4305
 6912TIP3    H242228   0.720   4.070  11.461 -2.5272  0.1329  0.6067
 6913TIP3   OH242229   4.186   6.793  15.375  0.6456 -0.0965  0.1553
 6913TIP3    H142230   4.276   6.761  15.376  0.0382 -1.9887  1.9094
 6913TIP3    H242231   4.142   6.740  15.441 -1.7740  0.7610 -0.6817
 6914TIP3   OH242232   3.859   3.255   1.859 -0.3962  0.1812 -0.4633
 6914TIP3    H142233   3.886   3.342   1.890  0.0750 -0.1055 -0.0746
 6914TIP3    H242234   3.908   3.193   1.912  0.5434 -0.3247 -1.8565
 6915TIP3   OH242235   4.315   0.513   4.229 -0.1190 -0.2519  0.2603
 6915TIP3    H142236   4.226   0.478   4.222  0.8920 -2.8550 -0.8396
 6915TIP3    H242237   4.330   0.521   4.323 -1.3301 -0.3418  0.4729
 6916TIP3   OH242238   1.414   1.784   2.059  0.5506 -0.4396  0.5766
 6916TIP3    H142239   1.408   1.829   2.143 -0.0667  0.4479  0.0643
 6916TIP3    H242240   1.358   1.834   2.000  0.5387 -1.3716 -0.2333
 6917TIP3   OH242241   4.189   5.667  16.813 -0.2791 -0.1152 -0.1027
 6917TIP3    H142242   4.204   5.579  16.780  0.3098 -0.6956  1.6193
 6917TIP3    H242243   4.107   5.660  16.862 -0.2198  0.3018  0.0548
 6918TIP3   OH242244   5.566   0.341   5.097 -0.2806 -0.1363 -0.5112
 6918TIP3    H142245   5.475   0.341   5.125  0.0070 -1.7278  0.5386
 6918TIP3    H242246   5.609   0.275   5.152  1.8814  1.7563  0.2610
 6919TIP3   OH242247   1.793   5.477   0.829 -0.4451  0.1170  0.0785
 6919TIP3    H142248   1.855   5.465   0.757 -0.6904 -0.2565 -0.0733
 6919TIP3    H242249   1.757   5.389   0.844 -0.4127  0.1976  0.6406
 6920TIP3   OH242250   2.429   3.673   2.161  0.5435  0.5891 -0.1841
 6920TIP3    H142251   2.452   3.749   2.215  0.0466  1.8899 -1.7046
 6920TIP3    H242252   2.408   3.711   2.075 -0.5268 -1.1980 -0.7563
 6921TIP3   OH242253   4.554   1.371  13.296  0.2348 -0.0343  0.1032
 6921TIP3    H142254   4.490   1.339  13.360 -0.3539  1.1391  0.1439
 6921TIP3    H242255   4.617   1.300  13.286 -1.4745 -1.5587 -0.4944
 6922TIP3   OH242256   3.284   1.859  10.935  0.4915 -0.2561 -0.1812
 6922TIP3    H142257   3.197   1.836  10.968 -0.2797  2.0501 -0.3816
 6922TIP3    H242258   3.271   1.872  10.841  0.5670  1.8822  0.0500
 6923TIP3   OH242259   1.781   2.880   4.390 -0.0862  0.4149  0.1312
 6923TIP3    H142260   1.829   2.800   4.370  0.8174  0.9315  0.1718
 6923TIP3    H242261   1.840   2.951   4.364 -1.0933  1.0704 -0.4298
 6924TIP3   OH242262   4.079   6.104  16.571 -0.2824 -0.0850  0.1187
 6924TIP3    H142263   4.092   6.009  16.564 -0.0543 -0.2831  2.5022
 6924TIP3    H242264   4.167   6.139  16.583 -0.5547  0.1695  1.4651
 6925TIP3   OH242265   0.774   3.366   1.112 -0.4477 -0.0908 -0.2036
 6925TIP3    H142266   0.825   3.364   1.031 -1.9432  1.1671 -1.2445
 6925TIP3    H242267   0.796   3.450   1.152 -1.7005  0.4911 -0.6958
 6926TIP3   OH242268   5.980   1.014   2.031  0.5711 -0.1806 -0.1688
 6926TIP3    H142269   5.981   0.935   2.084  1.1740  1.1527  1.9272
 6926TIP3    H242270   6.062   1.012   1.982  0.7886 -0.6263  0.2133
 6927TIP3   OH242271   1.532   3.281   3.850  0.3004  0.9123 -0.3368
 6927TIP3    H142272   1.609   3.260   3.796  1.7811  0.3537  1.8433
 6927TIP3    H242273   1.494   3.196   3.873 -1.1152  1.1914 -1.5160
 6928TIP3   OH242274   0.560   0.628  13.847 -0.4012  0.0723 -0.2745
 6928TIP3    H142275   0.584   0.541  13.814  2.5053  1.3071 -1.7338
 6928TIP3    H242276   0.575   0.623  13.941 -1.3928 -1.2979 -0.1532
 6929TIP3   OH242277   1.862   1.844   5.920 -0.4907  0.3388 -0.3993
 6929TIP3    H142278   1.830   1.844   6.010 -0.2959  1.3462 -0.3093
 6929TIP3    H242279   1.957   1.830   5.928 -0.1537  2.3748 -0.2697
 6930TIP3   OH242280   2.358   5.945  11.964  0.0917 -0.1143  0.4808
 6930TIP3    H142281   2.422   5.970  12.031 -0.5519 -1.7720  1.7825
 6930TIP3    H242282   2.408   5.940  11.883  1.0337  1.2254  0.9395
 6931TIP3   OH242283   3.346   4.318   4.357 -0.2279  0.3972  0.0918
 6931TIP3    H142284   3.323   4.319   4.450  0.2596  0.1605  0.2124
 6931TIP3    H242285   3.307   4.399   4.322 -1.6536 -0.2116  0.1969
 6932TIP3   OH242286   4.677   4.506   1.469 -0.1691  0.4352 -0.2849
 6932TIP3    H142287   4.612   4.436   1.469  1.4247 -1.1128  0.3253
 6932TIP3    H242288   4.627   4.585   1.487 -1.8433 -0.7411  0.4656
 6933TIP3   OH242289   2.410   3.786  14.517 -0.0051  0.4310  0.8281
 6933TIP3    H142290   2.345   3.826  14.574  0.1014  0.5106  0.8945
 6933TIP3    H242291   2.390   3.820  14.430 -0.5431 -0.1562  0.7107
 6934TIP3   OH242292   6.587   1.586   3.424 -0.1637  0.4368  0.2932
 6934TIP3    H142293   6.592   1.668   3.473 -1.8563  0.7902 -0.0872
 6934TIP3    H242294   6.516   1.599   3.362 -0.3491 -1.2688  0.1065
 6935TIP3   OH242295   2.523   1.135   0.075 -0.6136 -0.1821 -0.1325
 6935TIP3    H142296   2.601   1.176   0.040 -0.9704  0.3750 -0.2899
 6935TIP3    H242297   2.554   1.081   0.147 -0.2224  0.9480  0.5625
 6936TIP3   OH242298   0.995   4.432   3.589 -0.3259  0.1240  0.1303
 6936TIP3    H142299   1.018   4.381   3.512 -1.3893 -0.4368  0.1812
 6936TIP3    H242300   1.046   4.513   3.579  1.3737 -0.8996  0.0544
 6937TIP3   OH242301   3.745   1.548   1.146 -0.5173  0.4851  0.0036
 6937TIP3    H142302   3.671   1.587   1.192 -2.1866 -2.1891 -0.1989
 6937TIP3    H242303   3.707   1.474   1.098  2.2263 -0.7540 -0.4570
 6938TIP3   OH242304   4.281   3.601   2.665 -0.2125 -0.0757 -0.3692
 6938TIP3    H142305   4.271   3.595   2.570 -1.3968  3.1951 -0.5999
 6938TIP3    H242306   4.192   3.599   2.700 -0.0006  1.3152  0.3601
 6939TIP3   OH242307   3.121   5.008  15.651  0.1284 -0.0569 -0.0995
 6939TIP3    H142308   3.136   5.076  15.716 -1.9172  0.4785 -0.1302
 6939TIP3    H242309   3.029   4.984  15.661  0.3918 -1.7374 -1.1361
 6940TIP3   OH242310   2.845   5.474  11.833 -0.0406  0.2477  0.2271
 6940TIP3    H142311   2.778   5.439  11.774 -0.3743 -0.6960  1.1160
 6940TIP3    H242312   2.892   5.539  11.781 -0.4274 -0.4254 -1.0066
 6941TIP3   OH242313   4.234   5.659   2.418  0.9695 -0.2957 -0.4263
 6941TIP3    H142314   4.305   5.666   2.354  1.1144 -2.7015 -0.6398
 6941TIP3    H242315   4.276   5.622   2.496  0.3723  0.4703  0.2716
 6942TIP3   OH242316   1.227   2.967   0.292 -0.0687 -0.5331 -0.3146
 6942TIP3    H142317   1.164   2.916   0.343 -0.5678  0.4188  0.0414
 6942TIP3    H242318   1.309   2.957   0.339 -0.3491 -0.3317  0.2240
 6943TIP3   OH242319   0.121   4.224  16.903 -0.8026 -0.4668 -0.2409
 6943TIP3    H142320   0.088   4.220  16.993  2.2273 -0.2048  1.0023
 6943TIP3    H242321   0.149   4.135  16.884  0.5259 -0.1081 -0.0650
 6944TIP3   OH242322   5.039   3.986   4.134  0.6045 -0.6357 -0.4933
 6944TIP3    H142323   5.012   4.025   4.217 -1.1860 -0.9173 -0.8964
 6944TIP3    H242324   5.093   3.911   4.159  0.3082 -0.5553  0.4111
 6945TIP3   OH242325   0.893   3.285  16.832  0.0665  0.0319  0.7367
 6945TIP3    H142326   0.939   3.359  16.793  1.3971  0.2725  2.6347
 6945TIP3    H242327   0.958   3.215  16.834  0.0469  0.0320  2.4560
 6946TIP3   OH242328   5.564   3.997  11.428  0.2434 -0.0812 -0.1125
 6946TIP3    H142329   5.630   4.058  11.397  0.9795 -1.7358 -2.0077
 6946TIP3    H242330   5.614   3.927  11.470 -0.5434  0.2460  1.4557
 6947TIP3   OH242331   3.182   3.576  16.337  0.4212 -0.2090 -0.2827
 6947TIP3    H142332   3.113   3.632  16.301  0.1061  0.4103  1.2134
 6947TIP3    H242333   3.135   3.508  16.386  0.8464 -0.2202  0.1220
 6948TIP3   OH242334   2.261   5.113  13.350 -0.3553  0.7146  0.4828
 6948TIP3    H142335   2.350   5.099  13.382  0.0725  1.4586 -0.3286
 6948TIP3    H242336   2.241   5.203  13.374 -1.3369  0.2084  1.6608
 6949TIP3   OH242337   1.648   0.222  16.489 -0.0610 -0.0012 -0.2926
 6949TIP3    H142338   1.728   0.259  16.525 -0.8428  0.5409  0.9439
 6949TIP3    H242339   1.640   0.261  16.402  1.6461 -1.0186 -0.9495
 6950TIP3   OH242340   3.630   5.015  15.214 -0.0883  0.4331  0.3909
 6950TIP3    H142341   3.666   5.080  15.155 -1.2597  1.1839  0.4690
 6950TIP3    H242342   3.706   4.964  15.243  0.7937  1.4773 -0.0066
 6951TIP3   OH242343   0.317   0.724  15.714  0.0935  0.0580 -0.1415
 6951TIP3    H142344   0.223   0.728  15.731 -0.8452 -4.6302 -2.5272
 6951TIP3    H242345   0.357   0.714  15.801 -2.0892 -1.8390  0.7297
 6952TIP3   OH242346   6.359   6.797  16.915  0.0600 -0.3164 -0.1729
 6952TIP3    H142347   6.264   6.803  16.926 -0.1842  0.8620 -2.2941
 6952TIP3    H242348   6.395   6.834  16.995 -1.3923  4.4511 -1.4332
 6953TIP3   OH242349   5.551   2.006  10.646 -0.1561 -0.2716  0.0953
 6953TIP3    H142350   5.490   2.048  10.586 -0.9028 -0.1026  0.9456
 6953TIP3    H242351   5.590   1.935  10.595 -0.9603 -0.2956 -0.4991
 6954TIP3   OH242352   3.644   4.418   2.838 -0.2744  0.3674 -0.1187
 6954TIP3    H142353   3.645   4.425   2.933 -1.9155 -0.5847  0.0066
 6954TIP3    H242354   3.667   4.505   2.806  1.6831  0.3629  1.1097
 6955TIP3   OH242355   2.990   6.470   6.257 -0.3661 -0.8480  0.3272
 6955TIP3    H142356   2.901   6.505   6.250  0.2479  0.5069 -1.8146
 6955TIP3    H242357   3.045   6.548   6.270  0.5521 -1.6308  1.2942
 6956TIP3   OH242358   0.861   4.321  12.710 -0.0216 -0.7919 -0.1652
 6956TIP3    H142359   0.936   4.311  12.651 -0.3120 -1.1014 -0.4907
 6956TIP3    H242360   0.897   4.308  12.797  0.3890 -0.4718 -0.2825
 6957TIP3   OH242361   6.519   2.801   3.485 -0.1240  0.1302 -0.1319
 6957TIP3    H142362   6.509   2.707   3.502  3.0236 -0.3482 -0.4343
 6957TIP3    H242363   6.575   2.832   3.556 -1.2496  1.8910  0.0508
 6958TIP3   OH242364   0.082   2.880   5.929  0.0218  0.1423  0.5860
 6958TIP3    H142365   0.102   2.964   5.969 -0.0471 -0.3374  1.6603
 6958TIP3    H242366  -0.004   2.856   5.964  0.3480 -0.6951  0.8220
 6959TIP3   OH242367   6.727   3.654   0.944 -0.4718  0.0565  0.3462
 6959TIP3    H142368   6.673   3.660   0.865 -0.3621  1.2390  0.3331
 6959TIP3    H242369   6.693   3.722   1.002 -0.1027 -0.3356  1.0352
 6960TIP3   OH242370   2.563   3.728   0.944  0.0931 -0.1005  0.0405
 6960TIP3    H142371   2.543   3.821   0.956 -2.3095 -0.8838  3.5026
 6960TIP3    H242372   2.500   3.698   0.879 -0.9598  0.1944  0.9009
 6961TIP3   OH242373   4.683   0.017  10.679  0.7360  0.2843 -0.0909
 6961TIP3    H142374   4.742   0.086  10.647  1.5580 -0.5134 -0.3068
 6961TIP3    H242375   4.616   0.009  10.610  0.1387  1.4387  0.3199
 6962TIP3   OH242376   2.923   0.972   2.652  0.5885 -0.0821  0.4207
 6962TIP3    H142377   2.874   1.001   2.575  0.6264 -0.4244  0.2649
 6962TIP3    H242378   2.942   1.053   2.701 -0.0415  0.0588  0.4316
 6963TIP3   OH242379   3.039   5.643  13.355 -0.2612  0.6855 -0.3277
 6963TIP3    H142380   3.123   5.616  13.318 -0.1690  1.0017 -0.3505
 6963TIP3    H242381   2.973   5.605  13.297 -0.2102 -1.4740  0.9232
 6964TIP3   OH242382   3.451   6.604   4.451  0.0262  0.1876 -0.1415
 6964TIP3    H142383   3.396   6.672   4.415 -0.4696  0.0318  0.3039
 6964TIP3    H242384   3.459   6.626   4.544 -0.6133 -0.6618  0.1279
 6965TIP3   OH242385   4.215   0.202   1.994  0.4257 -0.3889  0.3312
 6965TIP3    H142386   4.147   0.266   1.972  1.5942  0.8842  0.2953
 6965TIP3    H242387   4.168   0.133   2.040 -0.8251  0.7038  0.7871
 6966TIP3   OH242388   1.825   1.281  16.307 -0.2836 -0.1142 -0.0563
 6966TIP3    H142389   1.852   1.281  16.399  0.5975 -1.1625 -0.2985
 6966TIP3    H242390   1.883   1.345  16.265 -2.6783  2.7155  0.6077
 6967TIP3   OH242391   5.981   0.452   0.097  0.6483  0.0243 -0.6595
 6967TIP3    H142392   6.036   0.477   0.172  1.4412  1.3893 -1.6582
 6967TIP3    H242393   6.033   0.476   0.021 -0.7162 -0.0832 -1.6519
 6968TIP3   OH242394   4.636   4.919   5.141  0.7564  0.2299 -0.0361
 6968TIP3    H142395   4.590   4.966   5.210  2.9030  1.5084  0.6397
 6968TIP3    H242396   4.729   4.935   5.159  1.4543 -0.9966 -2.1343
 6969TIP3   OH242397   5.382   0.363   4.377 -0.3326 -0.4504 -0.1876
 6969TIP3    H142398   5.358   0.456   4.382 -3.2844 -1.1188 -0.1091
 6969TIP3    H242399   5.371   0.341   4.285  0.4387 -0.7068 -0.2168
 6970TIP3   OH242400   3.658   4.943  11.926  0.0940  0.5686 -0.4124
 6970TIP3    H142401   3.652   4.894  11.844  0.8329  0.8821 -0.6551
 6970TIP3    H242402   3.583   5.003  11.923 -1.4748 -1.2250  0.3661
 6971TIP3   OH242403   5.311   3.127  12.245  0.2376  0.2492 -0.2319
 6971TIP3    H142404   5.382   3.133  12.182  1.0096 -0.0377  0.5906
 6971TIP3    H242405   5.306   3.034  12.269 -0.7756  0.1723 -0.6774
 6972TIP3   OH242406   4.755   2.984  14.054  0.5016  0.5800 -0.1058
 6972TIP3    H142407   4.785   2.897  14.030  0.6736  0.3822  0.7784
 6972TIP3    H242408   4.743   2.980  14.149 -0.8948  1.0896 -0.2365
 6973TIP3   OH242409   2.248   5.592   0.773 -0.0237 -0.2575 -0.3715
 6973TIP3    H142410   2.200   5.569   0.852 -0.7558  0.4371 -0.6079
 6973TIP3    H242411   2.321   5.530   0.771 -0.2412 -0.5614  0.6123
 6974TIP3   OH242412   0.514   4.815  16.007  0.2174  0.3094  0.8226
 6974TIP3    H142413   0.429   4.820  16.051 -0.6576  0.4741 -0.7919
 6974TIP3    H242414   0.511   4.886  15.942  0.7526 -0.9271 -0.6035
 6975TIP3   OH242415   5.257   0.727   3.932  0.0279 -0.4059  0.0878
 6975TIP3    H142416   5.196   0.767   3.994  0.0624  1.1942 -0.8478
 6975TIP3    H242417   5.203   0.700   3.858  0.4009  1.0521 -0.7616
 6976TIP3   OH242418   1.818   2.371   0.139 -0.1883 -0.2180  0.1692
 6976TIP3    H142419   1.877   2.299   0.118 -0.9356 -0.2615 -2.0631
 6976TIP3    H242420   1.855   2.447   0.094  0.6973  0.9325  2.6326
 6977TIP3   OH242421   3.625   2.634   3.645  0.5066 -0.1048  0.2344
 6977TIP3    H142422   3.592   2.565   3.587  3.3049  0.1735 -1.9329
 6977TIP3    H242423   3.577   2.623   3.727 -1.9080 -2.1029 -1.3269
 6978TIP3   OH242424   2.418   2.881  16.450  0.1436  0.2976  0.5050
 6978TIP3    H142425   2.362   2.821  16.498  0.0556  0.8965  1.1591
 6978TIP3    H242426   2.412   2.852  16.359 -0.5460 -0.1695  0.6966
 6979TIP3   OH242427   5.641   6.667  13.901  0.4059 -0.5922  0.2200
 6979TIP3    H142428   5.702   6.642  13.972  1.9193 -0.1162 -0.8515
 6979TIP3    H242429   5.619   6.758  13.920  1.6170 -0.1407 -0.4294
 6980TIP3   OH242430   2.922   1.298  12.681 -0.1654 -0.1672  0.6702
 6980TIP3    H142431   2.978   1.360  12.634  0.0543 -0.0265  1.1134
 6980TIP3    H242432   2.979   1.224  12.702  0.2062  0.5109  2.2137
 6981TIP3   OH242433   4.783   6.393   5.922  0.0735 -0.0732 -0.7383
 6981TIP3    H142434   4.720   6.450   5.879  0.0011 -0.5148 -1.2343
 6981TIP3    H242435   4.859   6.448   5.938 -0.6042  0.5916  0.2951
 6982TIP3   OH242436   1.058   2.429  16.629  0.1252  0.3914 -0.2566
 6982TIP3    H142437   1.132   2.469  16.675  0.1489  0.0781 -0.0196
 6982TIP3    H242438   1.051   2.341  16.666  0.1485  0.1318 -0.8591
 6983TIP3   OH242439   6.730   6.774   4.397 -0.4720 -0.0597  0.1479
 6983TIP3    H142440   6.775   6.745   4.477 -0.2100  0.8234  0.3385
 6983TIP3    H242441   6.638   6.777   4.422 -0.5626 -1.1514 -0.0166
 6984TIP3   OH242442   5.360   2.454   1.278  0.5443  0.9202  0.2610
 6984TIP3    H142443   5.306   2.492   1.208 -0.4696 -0.4814  0.2443
 6984TIP3    H242444   5.450   2.461   1.246  0.0216 -0.9993 -1.9122
 6985TIP3   OH242445   1.289   6.549  15.004  0.3443 -0.1119 -0.3611
 6985TIP3    H142446   1.213   6.504  14.966  0.3470 -2.2043  1.8930
 6985TIP3    H242447   1.363   6.492  14.984  0.5877 -0.4198  1.3085
 6986TIP3   OH242448   1.248   1.254   4.225 -0.1366  0.0447 -0.1268
 6986TIP3    H142449   1.166   1.299   4.202  0.7341  1.6840 -0.2192
 6986TIP3    H242450   1.303   1.324   4.261  1.2492 -1.0061 -0.1507
 6987TIP3   OH242451   0.067   1.827  13.401  0.0476 -0.4222  0.4963
 6987TIP3    H142452   0.032   1.829  13.312 -1.3102  3.0238  0.9547
 6987TIP3    H242453   0.002   1.777  13.451 -1.4979  1.2119  0.2552
 6988TIP3   OH242454   2.618   3.009  11.449 -0.0081  0.3189  0.0362
 6988TIP3    H142455   2.684   3.023  11.517 -0.2213 -1.9542  0.7785
 6988TIP3    H242456   2.537   2.993  11.498 -0.4974  0.2101 -0.7950
 6989TIP3   OH242457   4.906   3.732   5.493 -0.2346  0.4310  0.0977
 6989TIP3    H142458   4.945   3.813   5.459  1.7034 -1.2754 -2.0827
 6989TIP3    H242459   4.812   3.746   5.483  0.0607  2.2275 -0.6789
 6990TIP3   OH242460   2.031   0.588   3.933  0.0449  0.2112  0.7375
 6990TIP3    H142461   1.984   0.662   3.973 -0.9132 -0.6115  1.1750
 6990TIP3    H242462   2.124   0.610   3.944 -0.2251  1.2119  1.1200
 6991TIP3   OH242463   4.932   6.216  12.918  0.1902 -0.2162 -0.5559
 6991TIP3    H142464   4.861   6.209  12.854 -0.0356 -0.9397 -0.2355
 6991TIP3    H242465   4.913   6.298  12.964 -1.5850 -1.3053  0.8287
 6992TIP3   OH242466   2.186   5.957   0.265 -0.0764  0.4373 -0.2928
 6992TIP3    H142467   2.270   5.953   0.219 -0.1161  3.3612 -0.8132
 6992TIP3    H242468   2.120   5.958   0.196 -0.4154  0.3486  0.0243
 6993TIP3   OH242469   1.389   6.182  11.772  0.7181  0.1657  0.2692
 6993TIP3    H142470   1.438   6.264  11.779  1.7518 -0.4707  0.7096
 6993TIP3    H242471   1.369   6.159  11.863 -1.6473  1.1116  0.0614
 6994TIP3   OH242472   5.369   0.747  10.502 -0.2537 -0.0602  0.1226
 6994TIP3    H142473   5.383   0.834  10.538  0.1879  0.8310 -2.0302
 6994TIP3    H242474   5.304   0.760  10.432 -1.7456 -1.8313  1.0965
 6995TIP3   OH242475   2.774   3.917  16.151 -0.8400 -0.4424  0.3824
 6995TIP3    H142476   2.809   3.926  16.062  0.5127 -1.0278  0.8229
 6995TIP3    H242477   2.786   4.003  16.191  0.1770 -0.6414  0.5367
 6996TIP3   OH242478   5.601   4.115   6.148  0.6561 -0.3682  0.4682
 6996TIP3    H142479   5.522   4.168   6.139  1.9128  1.3475 -1.1143
 6996TIP3    H242480   5.569   4.024   6.150 -1.3521  0.2973  0.3126
 6997TIP3   OH242481   4.835   3.525  11.357  0.4849  0.1053  0.4040
 6997TIP3    H142482   4.895   3.465  11.400  1.3066  0.9077  0.4001
 6997TIP3    H242483   4.821   3.595  11.421  0.6486  0.6190 -0.1125
 6998TIP3   OH242484   5.224   3.363   0.324  0.1304 -0.5582  0.1479
 6998TIP3    H142485   5.201   3.429   0.389 -1.3557  1.4381 -2.2208
 6998TIP3    H242486   5.159   3.294   0.337 -1.2541  0.5996 -0.2161
 6999TIP3   OH242487   6.243   0.220   0.262  1.2254 -0.3251  0.1108
 6999TIP3    H142488   6.240   0.128   0.288 -0.9122 -0.4908 -0.4898
 6999TIP3    H242489   6.234   0.219   0.167  0.4734  0.4906  0.1527
 7000TIP3   OH242490   0.666   2.278   6.167 -0.4023  0.0453  0.0863
 7000TIP3    H142491   0.656   2.318   6.253  0.1561 -0.3074  0.3194
 7000TIP3    H242492   0.685   2.186   6.184 -1.9541 -0.4089 -0.4522
 7001TIP3   OH242493   3.150   3.566   5.181  0.0705  0.2028  0.2565
 7001TIP3    H142494   3.094   3.536   5.252  1.0842  0.7787  1.3333
 7001TIP3    H242495   3.134   3.660   5.175  1.1583  0.4313  0.8061
 7002TIP3   OH242496   1.263   1.101   2.697  0.3227  0.6770 -0.5851
 7002TIP3    H142497   1.248   1.189   2.662  0.4792  1.0111  0.1620
 7002TIP3    H242498   1.182   1.079   2.742  0.9808  1.2980  0.9832
 7003TIP3   OH242499   3.786   2.092   0.285  0.3296  0.1213  0.1181
 7003TIP3    H142500   3.717   2.149   0.318 -0.4449 -1.4166  1.3006
 7003TIP3    H242501   3.829   2.143   0.217 -1.8714  1.1909 -0.5520
 7004TIP3   OH242502   3.897   5.230   4.019 -0.3632 -0.4400 -0.0540
 7004TIP3    H142503   3.960   5.234   4.091 -1.4873 -0.8863  0.9913
 7004TIP3    H242504   3.944   5.184   3.949  2.1706  3.4523 -1.2163
 7005TIP3   OH242505   3.675   6.379   0.687 -0.3242  0.1918 -0.2306
 7005TIP3    H142506   3.653   6.445   0.620  1.1190 -1.0082 -1.9973
 7005TIP3    H242507   3.607   6.313   0.679 -0.3689  0.2382 -0.2361
 7006TIP3   OH242508   4.861   6.821  12.798  0.5005 -0.0723  0.8772
 7006TIP3    H142509   4.806   6.744  12.812  0.3129  0.1073  1.1549
 7006TIP3    H242510   4.802   6.886  12.759  1.0646 -0.6354 -1.0268
 7007TIP3   OH242511   5.977   2.243   4.711  0.1642 -0.1106 -0.6979
 7007TIP3    H142512   6.001   2.292   4.632  1.9802  0.8552  0.4010
 7007TIP3    H242513   5.906   2.295   4.751  0.4483  0.3440 -0.7772
 7008TIP3   OH242514   6.070   0.284  14.345 -0.5148  0.1725 -0.0406
 7008TIP3    H142515   6.077   0.189  14.350 -0.1391  0.1376 -1.0884
 7008TIP3    H242516   5.980   0.300  14.318 -0.7216  0.1430  0.6058
 7009TIP3   OH242517   5.887   2.813   5.786  0.1957  0.1077  0.5156
 7009TIP3    H142518   5.926   2.728   5.767  3.0124  1.8069 -2.2509
 7009TIP3    H242519   5.817   2.823   5.721 -0.4769 -0.2473  1.1681
 7010TIP3   OH242520   2.235   0.422   3.736 -0.1386 -0.2152 -0.2428
 7010TIP3    H142521   2.216   0.345   3.683 -2.7650 -0.0775  0.3675
 7010TIP3    H242522   2.223   0.496   3.677 -0.5831 -0.1767 -0.1135
 7011TIP3   OH242523   4.605   2.847   3.415  0.2121  0.2711  0.1862
 7011TIP3    H142524   4.641   2.779   3.358 -1.9533  0.7459 -1.8844
 7011TIP3    H242525   4.543   2.801   3.471 -1.0784  0.4165 -1.0558
 7012TIP3   OH242526   1.259   2.490   1.963  0.1259 -0.0550  0.2101
 7012TIP3    H142527   1.218   2.404   1.975  0.8398 -0.6529 -1.4147
 7012TIP3    H242528   1.195   2.541   1.914 -0.6812  0.6839  1.9663
 7013TIP3   OH242529   0.489   1.526   1.970  0.3228 -0.3306 -0.6146
 7013TIP3    H142530   0.444   1.443   1.954 -1.4294  0.3014  0.6814
 7013TIP3    H242531   0.566   1.524   1.914 -0.1703 -2.4400 -1.2657
 7014TIP3   OH242532   5.682   6.666   4.989  0.2915 -0.3727  0.1701
 7014TIP3    H142533   5.765   6.630   4.957 -0.5871 -1.5418 -0.8535
 7014TIP3    H242534   5.705   6.753   5.022  2.3606 -1.5305  2.0971
 7015TIP3   OH242535   4.930   5.866  15.229  0.2035 -0.2035  0.4265
 7015TIP3    H142536   4.849   5.852  15.180 -0.7844  0.0425  1.9222
 7015TIP3    H242537   4.917   5.951  15.271  1.0917 -0.3335  0.9746
 7016TIP3   OH242538   0.972   3.931   3.469 -0.0270 -0.1997  0.0016
 7016TIP3    H142539   1.063   3.907   3.487 -0.2761 -0.1747  1.3779
 7016TIP3    H242540   0.948   3.989   3.541 -1.5462 -1.2814  0.4170
 7017TIP3   OH242541   4.300   0.409  13.852  0.5728  0.2514 -0.4929
 7017TIP3    H142542   4.268   0.410  13.942  1.5337 -1.5742 -0.0817
 7017TIP3    H242543   4.283   0.497  13.819  1.6903  1.4824  2.0086
 7018TIP3   OH242544   5.235   6.356   2.403 -0.1008  0.0003  0.6091
 7018TIP3    H142545   5.242   6.295   2.329 -0.2458 -0.4621  0.9664
 7018TIP3    H242546   5.183   6.308   2.468  1.0736 -0.0981  1.5063
 7019TIP3   OH242547   4.397   5.672  15.800 -0.6438 -0.0275  0.5734
 7019TIP3    H142548   4.328   5.622  15.845 -0.3740  0.0349  1.0704
 7019TIP3    H242549   4.385   5.762  15.830 -0.8022  0.1171  0.0858
 7020TIP3   OH242550   5.810   5.783   3.234  0.3863 -0.2117  0.2512
 7020TIP3    H142551   5.824   5.776   3.328 -0.0090  0.9971  0.4227
 7020TIP3    H242552   5.745   5.717   3.213  0.3729 -0.3874  0.8473
 7021TIP3   OH242553   4.569   3.490  16.041  0.1036 -0.2114 -0.2585
 7021TIP3    H142554   4.662   3.511  16.055  0.2732 -0.7910 -0.4827
 7021TIP3    H242555   4.529   3.504  16.127  0.7417 -1.6965  0.3258
 7022TIP3   OH242556   6.492   6.745   6.135 -0.7628 -0.0316  0.2222
 7022TIP3    H142557   6.476   6.688   6.059 -0.9623 -0.7918  0.8181
 7022TIP3    H242558   6.411   6.795   6.145  0.4592  2.7660 -2.2288
 7023TIP3   OH242559   4.509   5.114   3.082 -0.6630  0.2045 -0.4169
 7023TIP3    H142560   4.532   5.195   3.127  0.2198 -1.0804  1.5772
 7023TIP3    H242561   4.418   5.098   3.107 -0.4573 -0.0398  0.1769
 7024TIP3   OH242562   3.264   0.214   2.796  0.0484  0.1319  0.6454
 7024TIP3    H142563   3.230   0.159   2.726  0.9704  0.4897 -0.1107
 7024TIP3    H242564   3.192   0.274   2.816 -0.3708 -0.2474  0.3012
 7025TIP3   OH242565   4.772   6.287  14.218 -0.9144  0.3399  0.4650
 7025TIP3    H142566   4.761   6.226  14.145 -1.2736 -1.0714  1.6438
 7025TIP3    H242567   4.713   6.360  14.197 -1.4976 -0.3456 -0.3567
 7026TIP3   OH242568   5.588   5.940  11.622  0.2004  0.4654 -0.3118
 7026TIP3    H142569   5.671   5.900  11.647  0.6422  1.4487 -0.1825
 7026TIP3    H242570   5.523   5.894  11.675  0.4267 -1.4448 -1.5661
 7027TIP3   OH242571   2.930   1.660   0.529 -0.9446  0.2791  0.3787
 7027TIP3    H142572   2.982   1.713   0.469 -2.8265  3.6946  1.4829
 7027TIP3    H242573   2.857   1.627   0.476 -1.4323  1.4889  0.2484
 7028TIP3   OH242574   1.622   3.122  10.651 -0.1421  0.3183  0.6923
 7028TIP3    H142575   1.594   3.047  10.598 -0.0199  1.9717 -1.9004
 7028TIP3    H242576   1.699   3.090  10.699 -1.6652 -1.9518  1.8392
 7029TIP3   OH242577   5.454   4.079   4.456  0.6981  0.5152 -0.2493
 7029TIP3    H142578   5.513   4.098   4.529  2.7251  1.4759 -2.0481
 7029TIP3    H242579   5.394   4.153   4.454  0.9695  0.7507  0.1067
 7030TIP3   OH242580   1.875   6.202   4.943  0.3747 -0.2435  0.3501
 7030TIP3    H142581   1.895   6.118   4.983 -1.1113 -0.4386  0.7446
 7030TIP3    H242582   1.953   6.224   4.892  1.4975 -0.9722  1.6846
 7031TIP3   OH242583   3.447   2.207  11.982 -0.0371  0.2984 -0.0787
 7031TIP3    H142584   3.368   2.199  11.929 -0.2707  0.9525  0.1607
 7031TIP3    H242585   3.454   2.123  12.027 -0.3953  0.1063 -0.3736
 7032TIP3   OH242586   5.472   6.796  15.725  0.0323  0.9111  0.0347
 7032TIP3    H142587   5.399   6.752  15.768 -1.9031  1.6443 -2.2966
 7032TIP3    H242588   5.490   6.743  15.647  1.7973  0.9265  0.3880
 7033TIP3   OH242589   2.363   2.120  14.112 -0.6907  0.3212  0.2657
 7033TIP3    H142590   2.450   2.122  14.151 -0.6256 -0.0892  0.1462
 7033TIP3    H242591   2.332   2.211  14.117 -0.8352  0.2145  1.6118
 7034TIP3   OH242592   1.198   1.015  13.966 -0.1603 -0.6871  0.4129
 7034TIP3    H142593   1.272   1.047  13.915  1.0928 -0.1969  2.4561
 7034TIP3    H242594   1.207   1.056  14.052 -2.5891 -0.9269  0.8655
 7035TIP3   OH242595   3.221   4.914   5.342  0.5005  0.3704 -0.8062
 7035TIP3    H142596   3.303   4.953   5.373 -0.0020  1.1977 -0.4847
 7035TIP3    H242597   3.186   4.869   5.419  0.3296  0.5739 -0.7655
 7036TIP3   OH242598   3.297   5.997   3.168  0.2530 -0.3890 -0.3978
 7036TIP3    H142599   3.339   5.928   3.219  2.8786 -0.6130 -2.6511
 7036TIP3    H242600   3.281   5.957   3.083 -0.1237  1.1639 -1.0877
 7037TIP3   OH242601   2.362   4.835   2.461  0.3550  0.1985 -0.4361
 7037TIP3    H142602   2.333   4.924   2.482 -1.1884  0.2078 -2.3042
 7037TIP3    H242603   2.431   4.846   2.397 -0.9266  0.0870 -1.8963
 7038TIP3   OH242604   4.833   5.858  12.090  0.3714  0.1362  0.4796
 7038TIP3    H142605   4.760   5.910  12.125  0.3430  0.0961  0.4792
 7038TIP3    H242606   4.791   5.783  12.048  0.4743 -0.5837  1.6318
 7039TIP3   OH242607   2.487   4.606  14.052 -0.2472 -0.1162  0.3424
 7039TIP3    H142608   2.494   4.574  13.962 -0.5657  1.0884 -0.1297
 7039TIP3    H242609   2.575   4.597  14.088  0.1795  0.5482 -0.5081
 7040TIP3   OH242610   1.395   4.113   5.611  0.3659 -0.1477 -0.1509
 7040TIP3    H142611   1.324   4.177   5.608  0.1229 -0.4310 -0.7398
 7040TIP3    H242612   1.399   4.078   5.522  4.5489  3.3950 -1.7509
 7041TIP3   OH242613   0.829   1.041   0.500 -0.2364 -0.2903 -0.0194
 7041TIP3    H142614   0.818   1.099   0.424 -1.0916  1.2507  1.2253
 7041TIP3    H242615   0.761   0.976   0.491  0.2134 -0.6419 -1.0138
 7042TIP3   OH242616   4.786   2.085  14.786  0.3410  0.3889  0.3968
 7042TIP3    H142617   4.696   2.066  14.815  0.6072  0.2594  1.1533
 7042TIP3    H242618   4.792   2.044  14.700 -0.7388  1.5238 -0.2490
 7043TIP3   OH242619   1.981   1.603   2.645  0.1961  0.0451  0.1180
 7043TIP3    H142620   1.967   1.670   2.712 -1.9724  1.7453 -1.8720
 7043TIP3    H242621   2.059   1.632   2.598 -0.7494  1.2801 -0.7547
 7044TIP3   OH242622   4.176   6.243  14.495 -0.5610 -0.3221 -0.5315
 7044TIP3    H142623   4.238   6.255  14.423 -0.5252  0.5801 -0.3620
 7044TIP3    H242624   4.190   6.318  14.552 -1.1165 -0.6314  0.0318
 7045TIP3   OH242625   3.196   1.016   1.652 -0.2185 -0.3970 -0.2001
 7045TIP3    H142626   3.133   1.077   1.614 -0.9668 -0.5429  0.7633
 7045TIP3    H242627   3.273   1.070   1.669 -1.1896  0.5372  1.5103
 7046TIP3   OH242628   0.649   6.067  12.646 -0.6251 -1.2589  0.0101
 7046TIP3    H142629   0.727   6.068  12.590 -0.5498 -0.8379  0.1140
 7046TIP3    H242630   0.577   6.084  12.585 -0.4843 -0.2090  0.1084
 7047TIP3   OH242631   1.693   4.732  15.635 -0.0105 -0.0982  0.1170
 7047TIP3    H142632   1.769   4.688  15.674  0.1921 -0.0602 -0.2270
 7047TIP3    H242633   1.617   4.687  15.672  0.1215  1.0220  1.8649
 7048TIP3   OH242634   2.293   5.354   0.001  0.3789  0.2989 -0.0113
 7048TIP3    H142635   2.279   5.409  -0.076 -0.2521  1.5080  0.9304
 7048TIP3    H242636   2.271   5.266  -0.028 -0.7431  0.8651 -0.9628
 7049TIP3   OH242637   2.787   2.342   3.173 -0.2425 -0.2236 -0.9873
 7049TIP3    H142638   2.766   2.339   3.267 -0.0064  0.6164 -0.9015
 7049TIP3    H242639   2.793   2.250   3.147 -0.2833 -0.4658 -0.1735
 7050TIP3   OH242640   3.386   0.287  13.216  0.5369  0.8047  0.7914
 7050TIP3    H142641   3.415   0.367  13.260 -0.2792  1.2404  0.5605
 7050TIP3    H242642   3.443   0.279  13.140  0.1365  1.6019  0.3919
 7051TIP3   OH242643   4.274   6.731  14.978 -0.2906  0.1442  0.5558
 7051TIP3    H142644   4.196   6.759  15.026  1.0020  2.7933  1.3163
 7051TIP3    H242645   4.338   6.710  15.047 -0.3189 -2.2025 -0.0498
 7052TIP3   OH242646   3.901   1.844  14.229 -0.0617 -0.2165 -0.3229
 7052TIP3    H142647   3.938   1.929  14.203  0.7018 -0.7157 -0.9208
 7052TIP3    H242648   3.853   1.863  14.310  2.3676  0.3018  1.0900
 7053TIP3   OH242649   4.894   2.621   2.617 -0.6421  0.0183 -0.1229
 7053TIP3    H142650   4.965   2.562   2.643 -0.4615  0.2301 -0.1432
 7053TIP3    H242651   4.937   2.696   2.577 -0.8753  0.1700 -0.0927
 7054TIP3   OH242652   4.686   3.938   1.261 -0.0559  0.1986 -0.0451
 7054TIP3    H142653   4.661   3.927   1.352 -2.9027  0.0021 -0.7385
 7054TIP3    H242654   4.645   4.020   1.234  3.0446  1.7505 -0.5326
 7055TIP3   OH242655   2.850   2.932  16.178 -0.5044  0.2919 -0.1034
 7055TIP3    H142656   2.842   2.845  16.217 -0.7446 -0.1271 -1.0509
 7055TIP3    H242657   2.807   2.923  16.092 -2.7543  1.9862  0.7523
 7056TIP3   OH242658   4.810   1.849   2.441 -0.2776  0.2230 -0.2040
 7056TIP3    H142659   4.810   1.812   2.353 -2.0679  1.8256 -0.9467
 7056TIP3    H242660   4.738   1.913   2.440  0.8565  1.6316  1.8458
 7057TIP3   OH242661   5.917   2.426  15.314 -0.3149  0.5567  0.4147
 7057TIP3    H142662   5.913   2.480  15.235 -0.9951 -0.3290 -0.1731
 7057TIP3    H242663   5.870   2.346  15.290  3.2166 -1.6601  0.1955
 7058TIP3   OH242664   5.721   3.662   4.235 -0.6458  0.0620 -0.2482
 7058TIP3    H142665   5.791   3.700   4.183 -0.3512 -1.2068 -0.7970
 7058TIP3    H242666   5.703   3.728   4.303  1.3201  0.2564  0.1369
 7059TIP3   OH242667   6.809   1.899   0.629 -0.5866 -0.0945 -0.1794
 7059TIP3    H142668   6.816   1.840   0.704 -0.1616 -1.6085 -1.3475
 7059TIP3    H242669   6.749   1.854   0.569 -0.1628  0.5917 -1.1525
 7060TIP3   OH242670   6.122   2.733  13.243 -0.1112  0.0300  0.0993
 7060TIP3    H142671   6.204   2.705  13.200 -0.0122 -0.5445  0.6403
 7060TIP3    H242672   6.142   2.820  13.277 -0.0542  0.3165 -0.6419
 7061TIP3   OH242673   5.754   1.582  15.252  0.0019  0.8056  0.1642
 7061TIP3    H142674   5.703   1.638  15.311  0.7286 -0.0479  1.6581
 7061TIP3    H242675   5.801   1.523  15.310  0.6272 -0.1914 -1.3026
 7062TIP3   OH242676   4.558   2.780   5.690 -0.1747 -0.3631 -0.2813
 7062TIP3    H142677   4.542   2.727   5.768 -1.2718 -0.8374 -0.8053
 7062TIP3    H242678   4.653   2.790   5.687 -0.0849 -0.6442  0.9054
 7063TIP3   OH242679   2.505   2.866  15.467  0.1934 -0.2180  0.1875
 7063TIP3    H142680   2.419   2.866  15.427  0.3929 -1.4580 -0.2953
 7063TIP3    H242681   2.525   2.773  15.480  1.9607 -0.0232 -0.8214
 7064TIP3   OH242682   5.666   1.984  17.190 -0.1454  0.2764 -0.2517
 7064TIP3    H142683   5.611   2.002  17.266  0.8123 -2.8072  1.3118
 7064TIP3    H242684   5.743   2.039  17.202 -0.2125  0.1562  0.7695
 7065TIP3   OH242685   0.159   0.540   2.515  0.1674  0.2547  0.1449
 7065TIP3    H142686   0.183   0.480   2.444 -1.4579 -0.4382  0.1451
 7065TIP3    H242687   0.243   0.576   2.545  0.9434  0.0419 -1.6473
 7066TIP3   OH242688   0.499   2.962  13.759 -0.4029 -0.3788 -0.4019
 7066TIP3    H142689   0.414   2.935  13.725  0.8235 -2.3090 -2.1965
 7066TIP3    H242690   0.562   2.926  13.697  1.8158 -0.2628  1.6231
 7067TIP3   OH242691   1.796   6.399   0.887  0.0133  0.2465 -0.4979
 7067TIP3    H142692   1.851   6.324   0.867 -1.4777 -0.3785 -2.5282
 7067TIP3    H242693   1.812   6.460   0.815 -1.2833  0.4009 -0.6779
 7068TIP3   OH242694   3.435   4.362  15.659  0.0390 -0.1878 -0.1606
 7068TIP3    H142695   3.424   4.274  15.622 -1.7237 -1.3592  2.8287
 7068TIP3    H242696   3.514   4.356  15.713 -1.7780 -1.0161  2.5747
 7069TIP3   OH242697   0.036   6.362  12.131  0.2089  0.6357 -0.0864
 7069TIP3    H142698   0.065   6.278  12.094 -1.3302 -1.4200  2.9021
 7069TIP3    H242699  -0.007   6.407  12.058  1.0829 -1.1404 -1.8033
 7070TIP3   OH242700   1.082   1.578   5.558  0.2533 -0.4499  0.1441
 7070TIP3    H142701   1.031   1.542   5.486  0.1911 -0.9907  0.4554
 7070TIP3    H242702   1.049   1.534   5.636  0.6436 -0.2153  0.4494
 7071TIP3   OH242703   1.306   6.704  12.424 -0.1609 -0.1096  0.7020
 7071TIP3    H142704   1.228   6.755  12.445  0.1596  0.4879  0.4460
 7071TIP3    H242705   1.361   6.710  12.501 -0.6779 -1.1489  1.1735
 7072TIP3   OH242706   5.321   1.978  12.212  0.1832  0.0790 -0.2792
 7072TIP3    H142707   5.397   1.990  12.155  1.0532 -1.6309  0.4440
 7072TIP3    H242708   5.359   1.963  12.298 -1.0507  0.5268  0.3582
 7073TIP3   OH242709   6.549   0.402  11.024  0.1169  0.1104 -0.4517
 7073TIP3    H142710   6.514   0.349  10.952  0.0249  1.1004 -1.1678
 7073TIP3    H242711   6.504   0.486  11.015  0.6371  0.4831  0.3316
 7074TIP3   OH242712   3.368   2.790   6.077 -0.5460 -0.3439 -0.2602
 7074TIP3    H142713   3.444   2.831   6.035 -0.2854 -0.4461  0.1008
 7074TIP3    H242714   3.406   2.740   6.150 -1.0684  0.4759  0.5858
 7075TIP3   OH242715   4.236   3.455   5.003 -0.0425 -0.1369  0.2288
 7075TIP3    H142716   4.241   3.546   5.030  1.2149 -0.3355  0.6976
 7075TIP3    H242717   4.153   3.424   5.038 -0.4075  0.7740  0.1960
 7076TIP3   OH242718   5.010   4.302  15.224 -0.6102 -0.1842 -0.0234
 7076TIP3    H142719   5.007   4.274  15.132  0.7613  0.1640 -0.1851
 7076TIP3    H242720   5.032   4.222  15.272  0.7929  0.0498 -0.2332
 7077TIP3   OH242721   1.282   6.185  15.975  0.1903  0.0303  0.0590
 7077TIP3    H142722   1.348   6.218  16.036  0.0058 -1.1410  0.9240
 7077TIP3    H242723   1.290   6.242  15.898  0.1428  1.7908  1.3096
 7078TIP3   OH242724   1.104   4.840   3.021  0.4930 -0.1552  0.0816
 7078TIP3    H142725   1.104   4.933   2.998 -0.8050 -0.0139  0.5836
 7078TIP3    H242726   1.120   4.795   2.938 -2.3660  0.4032 -0.8700
 7079TIP3   OH242727   0.282   1.148   0.219  0.1617  0.3025  0.3703
 7079TIP3    H142728   0.367   1.114   0.191  0.4593  0.2487  1.3123
 7079TIP3    H242729   0.253   1.089   0.288 -0.1905  0.8689  0.7204
 7080TIP3   OH242730   4.542   0.831  15.281  0.1293 -0.2716  0.2366
 7080TIP3    H142731   4.572   0.919  15.302  0.8038 -0.6962  1.0822
 7080TIP3    H242732   4.479   0.810  15.349 -1.0604  0.0560 -0.7206
 7081TIP3   OH242733   6.739   3.724  15.951 -0.3871 -0.1567  0.3325
 7081TIP3    H142734   6.739   3.817  15.925 -1.9274 -0.6688 -1.7883
 7081TIP3    H242735   6.831   3.698  15.943  0.2743  1.4252  2.0835
 7082TIP3   OH242736   6.205   0.320  16.966 -0.1573 -0.0578  0.0053
 7082TIP3    H142737   6.290   0.359  16.948 -0.7705  1.3965  0.1209
 7082TIP3    H242738   6.148   0.395  16.987 -1.8913 -0.8217 -1.7230
 7083TIP3   OH242739   5.862   2.358  13.005 -0.1763  0.7510  0.5181
 7083TIP3    H142740   5.896   2.290  12.947 -2.6764 -0.2448  0.0978
 7083TIP3    H242741   5.933   2.374  13.067  0.5040 -2.3239  0.6945
 7084TIP3   OH242742   5.599   0.361   5.975  0.2082 -0.3025  0.4303
 7084TIP3    H142743   5.537   0.321   6.037  0.7658 -0.7670  0.7029
 7084TIP3    H242744   5.639   0.432   6.025 -0.2050  0.0881  0.2078
 7085TIP3   OH242745   1.053   0.733  12.452 -0.7256  0.1042 -0.0164
 7085TIP3    H142746   0.991   0.745  12.380 -0.3922  0.2413 -0.2842
 7085TIP3    H242747   1.131   0.782  12.425 -0.7741  0.5660  0.6672
 7086TIP3   OH242748   2.751   4.890  16.927 -0.2141  0.1477 -0.0467
 7086TIP3    H142749   2.730   4.949  16.999  0.9113  1.1117 -0.4817
 7086TIP3    H242750   2.827   4.840  16.958 -0.7237 -0.5942  0.0434
 7087TIP3   OH242751   0.656   6.788  14.537  0.1765 -0.1361  0.3429
 7087TIP3    H142752   0.611   6.852  14.481 -0.4522  0.7284  1.7518
 7087TIP3    H242753   0.746   6.820  14.542 -0.0436  0.4538  0.7290
 7088TIP3   OH242754   3.507   0.777  14.816 -0.0599  0.2070  0.0582
 7088TIP3    H142755   3.514   0.714  14.887  0.9621  2.1073  1.7657
 7088TIP3    H242756   3.540   0.731  14.739  0.1216 -1.4961  1.1112
 7089TIP3   OH242757   3.017   5.905   2.672 -0.1293  0.6860  0.3046
 7089TIP3    H142758   3.008   5.996   2.699  0.7226  1.0041 -0.4291
 7089TIP3    H242759   2.975   5.901   2.586 -0.8652  0.1909  0.6743
 7090TIP3   OH242760   3.520   0.855  16.465 -0.1867 -0.2488 -0.1697
 7090TIP3    H142761   3.571   0.797  16.408  0.8385  0.3362  0.1455
 7090TIP3    H242762   3.470   0.795  16.521  0.5905 -0.8245 -0.0807
 7091TIP3   OH242763   2.019   3.768  11.653  0.2899 -0.2382  0.1842
 7091TIP3    H142764   2.037   3.680  11.684  0.1389 -0.0741  0.7395
 7091TIP3    H242765   1.953   3.803  11.714 -0.1334  0.0245 -0.4067
 7092TIP3   OH242766   3.612   5.237  14.972 -0.1678 -0.1176 -0.3764
 7092TIP3    H142767   3.701   5.203  14.982  0.1617  0.8485  0.1245
 7092TIP3    H242768   3.619   5.300  14.901 -0.0394  1.2516  0.8008
 7093TIP3   OH242769   2.567   0.330  11.040  0.3120 -0.0580 -0.4470
 7093TIP3    H142770   2.529   0.265  10.981  1.1636  0.3330 -1.4477
 7093TIP3    H242771   2.623   0.384  10.985 -0.1053  1.3323  0.4184
 7094TIP3   OH242772   5.662   5.239  11.629 -0.6508  0.6736 -0.6994
 7094TIP3    H142773   5.750   5.203  11.641 -1.6833 -2.1705 -1.0105
 7094TIP3    H242774   5.632   5.258  11.717 -0.6872 -0.9134 -0.3412
 7095TIP3   OH242775   5.444   4.903  12.245  0.9679  0.2902  0.0215
 7095TIP3    H142776   5.351   4.882  12.232  1.4335 -1.0967 -1.4070
 7095TIP3    H242777   5.491   4.827  12.211  2.6864  1.7184 -0.9567
 7096TIP3   OH242778   0.208   0.629   5.131 -0.4448  0.0220  0.1188
 7096TIP3    H142779   0.295   0.605   5.099 -1.1299 -0.2634 -1.6543
 7096TIP3    H242780   0.224   0.680   5.210  1.2957 -0.6179  0.2153
 7097TIP3   OH242781   6.312   1.008  13.873  0.2085  0.1241 -0.8725
 7097TIP3    H142782   6.269   0.997  13.789  1.0752  0.5602 -1.3942
 7097TIP3    H242783   6.404   1.022  13.851  0.3040  1.2008  0.0755
 7098TIP3   OH242784   5.467   4.832  12.516 -0.3772  0.3434 -0.5735
 7098TIP3    H142785   5.453   4.883  12.437  0.8908 -0.2043 -1.1812
 7098TIP3    H242786   5.381   4.793  12.536 -1.1104  1.8462 -0.6741
 7099TIP3   OH242787   2.461   3.798   1.693 -0.1104 -0.2911  0.5536
 7099TIP3    H142788   2.541   3.772   1.647 -1.1023 -2.0653 -0.2442
 7099TIP3    H242789   2.399   3.727   1.676 -1.3664  0.2739  2.4658
 7100TIP3   OH242790   5.910   0.341  13.818 -0.3770  0.1298 -0.3267
 7100TIP3    H142791   6.001   0.330  13.790 -0.0775 -2.2817  1.3303
 7100TIP3    H242792   5.911   0.424  13.867  0.6289  0.7579 -1.3589
 7101TIP3   OH242793   1.847   6.137  11.092  0.0994  0.3802 -0.3249
 7101TIP3    H142794   1.865   6.185  11.011 -0.6717  1.8201  0.3215
 7101TIP3    H242795   1.758   6.104  11.081 -0.9351  2.5796  0.8105
 7102TIP3   OH242796   3.877   2.386  13.240  0.4114 -0.5049  0.2877
 7102TIP3    H142797   3.944   2.364  13.305  0.7845  0.2574  0.1703
 7102TIP3    H242798   3.894   2.477  13.218  0.2400 -0.7356 -0.8369
 7103TIP3   OH242799   0.118   2.018  11.551  0.4685 -0.2255  0.3783
 7103TIP3    H142800   0.155   2.106  11.542  0.3158 -0.1736  0.2537
 7103TIP3    H242801   0.171   1.977  11.619  2.4989 -1.0847 -1.6129
 7104TIP3   OH242802   6.013   1.974  12.682 -0.2523  0.0870 -0.0327
 7104TIP3    H142803   6.058   1.943  12.603  0.3662 -0.4924  0.5366
 7104TIP3    H242804   5.981   2.061  12.659 -0.9113 -0.4525 -1.2454
 7105TIP3   OH242805   1.834   1.869  11.192 -0.3682  0.1179  0.0999
 7105TIP3    H142806   1.766   1.801  11.192  0.0448 -0.3057  0.4744
 7105TIP3    H242807   1.851   1.885  11.284  0.4006 -0.1529  0.0094
 7106TIP3   OH242808   2.688   1.732  10.917 -0.0826  0.6851 -0.2951
 7106TIP3    H142809   2.638   1.657  10.882  0.3120  1.3167 -2.3740
 7106TIP3    H242810   2.679   1.724  11.012  0.0959 -2.1084 -0.4086
 7107TIP3   OH242811   3.817   3.178  14.463 -0.0557 -0.9553  0.2608
 7107TIP3    H142812   3.845   3.221  14.544 -0.7158  0.2498 -0.1241
 7107TIP3    H242813   3.889   3.193  14.401 -0.0328 -0.9069  0.2992
 7108TIP3   OH242814   2.295   6.391   1.329  0.4457 -0.3631 -0.2024
 7108TIP3    H142815   2.202   6.389   1.353  0.9524  0.3775  2.0813
 7108TIP3    H242816   2.310   6.309   1.282 -1.5971  0.0428 -1.7363
 7109TIP3   OH242817   2.506   2.406  15.781 -0.2158 -0.1325 -0.2478
 7109TIP3    H142818   2.471   2.323  15.747  0.8414 -0.7637  0.1515
 7109TIP3    H242819   2.601   2.394  15.781 -0.1162  0.3394  1.6310
 7110TIP3   OH242820   4.754   6.818  14.800 -0.4111 -0.6370  0.0132
 7110TIP3    H142821   4.704   6.740  14.777 -2.0530  0.1800  0.6361
 7110TIP3    H242822   4.846   6.792  14.792 -0.9248 -2.6312  0.2983
 7111TIP3   OH242823   3.953   0.247   4.379  0.0068  0.5996 -0.2655
 7111TIP3    H142824   3.883   0.247   4.444 -0.0440 -0.9078 -0.2916
 7111TIP3    H242825   3.934   0.172   4.323  3.2186 -1.7723  1.5067
 7112TIP3   OH242826   5.142   0.016  12.781  0.1813 -0.0180 -0.2507
 7112TIP3    H142827   5.104   0.092  12.825  0.0775  0.4098 -1.0674
 7112TIP3    H242828   5.068  -0.043  12.767 -0.0908  0.5161 -1.2170
 7113TIP3   OH242829   3.898   5.091  11.593 -0.2091 -0.2064  0.0745
 7113TIP3    H142830   3.961   5.074  11.663  0.6570  1.1875 -0.3135
 7113TIP3    H242831   3.912   5.020  11.531 -1.3471 -1.7426  1.5117
 7114TIP3   OH242832   0.783   5.414  11.135 -1.0770  0.1442 -0.3028
 7114TIP3    H142833   0.749   5.423  11.223 -1.2450  2.4626 -0.5529
 7114TIP3    H242834   0.866   5.462  11.136 -2.3249  2.5830 -1.9945
 7115TIP3   OH242835   2.867   1.906  12.903 -0.0815 -0.3640  0.0671
 7115TIP3    H142836   2.914   1.823  12.910 -0.6820 -0.8941 -1.6504
 7115TIP3    H242837   2.936   1.972  12.902  0.3735 -0.6955  2.4477
 7116TIP3   OH242838   4.079   5.979   5.709  0.4801 -0.6463 -0.4516
 7116TIP3    H142839   4.124   5.923   5.646 -1.0205 -0.8921 -1.3595
 7116TIP3    H242840   3.986   5.966   5.691 -0.0352 -1.1047  2.1692
 7117TIP3   OH242841   2.936   1.486  13.921  0.4149 -0.1006 -0.0033
 7117TIP3    H142842   2.876   1.555  13.895 -0.1576 -0.0843  1.2961
 7117TIP3    H242843   2.921   1.416  13.857  0.9775  0.9239 -1.3110
 7118TIP3   OH242844   3.947   0.072   5.656 -0.0522  0.0603 -0.3283
 7118TIP3    H142845   3.936  -0.023   5.665  1.7541 -0.0304  1.7165
 7118TIP3    H242846   3.908   0.108   5.736  0.4124  0.9446 -0.4924
 7119TIP3   OH242847   1.528   4.843  13.254  0.5197  0.2461 -0.0828
 7119TIP3    H142848   1.468   4.772  13.229  1.5102  0.0177 -2.0149
 7119TIP3    H242849   1.611   4.800  13.273  0.6855  0.7517  0.3789
 7120TIP3   OH242850   4.847   4.540  17.202 -0.6393  0.5722  0.3688
 7120TIP3    H142851   4.940   4.555  17.218 -0.4142  1.7410 -1.6945
 7120TIP3    H242852   4.819   4.484  17.275  1.7796 -0.2524  0.7668
 7121TIP3   OH242853   2.168   0.671   0.050  0.4868 -0.5871 -0.2070
 7121TIP3    H142854   2.114   0.713   0.117  1.0225 -1.6400  0.9038
 7121TIP3    H242855   2.228   0.740   0.022 -0.2750  0.0928 -0.2154
 7122TIP3   OH242856   6.344   0.201  12.220  0.1823  0.4133 -0.2179
 7122TIP3    H142857   6.257   0.234  12.196  0.5290  0.5509 -1.3487
 7122TIP3    H242858   6.401   0.232  12.150  1.3078  1.0038  0.9213
 7123TIP3   OH242859   3.052   1.273  12.351  0.0513 -0.2469  0.6258
 7123TIP3    H142860   3.040   1.326  12.272  0.1955  1.4049  1.6798
 7123TIP3    H242861   3.081   1.188  12.317  2.2143  1.0295 -1.0646
 7124TIP3   OH242862   2.814   3.520  16.256  0.4249 -0.4924  0.1061
 7124TIP3    H142863   2.816   3.590  16.190 -0.5227 -0.8290 -0.3008
 7124TIP3    H242864   2.883   3.459  16.229  2.3380  1.0264  1.3480
 7125TIP3   OH242865   1.938   4.356  14.087  0.4423  0.1370  0.1930
 7125TIP3    H142866   1.983   4.401  14.015 -1.2227  1.3654 -0.1413
 7125TIP3    H242867   1.845   4.363  14.066  0.0511 -3.3090  0.2770
 7126TIP3   OH242868   0.704   4.794  16.645  0.8077 -0.4763 -0.1381
 7126TIP3    H142869   0.766   4.744  16.699  1.6817 -2.2902 -2.6519
 7126TIP3    H242870   0.759   4.849  16.590 -0.0153  0.4098 -0.0948
 7127TIP3   OH242871   0.031   0.623   4.750  0.1137  0.4013  0.0275
 7127TIP3    H142872   0.101   0.557   4.748  0.1840  0.4684  0.2127
 7127TIP3    H242873   0.005   0.625   4.842 -1.5582 -1.1172 -0.3585
 7128TIP3   OH242874   0.338   4.574   2.421  0.4444  0.6330  0.1596
 7128TIP3    H142875   0.349   4.669   2.425  0.0846  0.6449  1.1084
 7128TIP3    H242876   0.269   4.555   2.485 -0.2480 -0.1552 -0.7840
 7129TIP3   OH242877   1.305   4.119   1.501  0.1669 -0.2882  0.1011
 7129TIP3    H142878   1.287   4.213   1.505 -0.7117 -0.3496 -1.4963
 7129TIP3    H242879   1.397   4.111   1.524 -0.1631  0.7565  2.0109
 7130TIP3   OH242880   2.372   5.116   4.798  0.4029  0.0889 -0.0750
 7130TIP3    H142881   2.463   5.108   4.826  0.4832 -1.1758 -0.6069
 7130TIP3    H242882   2.330   5.169   4.865  1.1335 -0.7951  1.1213
 7131TIP3   OH242883   1.096   5.440  12.408 -0.6603  0.0852 -0.1474
 7131TIP3    H142884   1.042   5.386  12.465  0.5923 -0.3346  0.6851
 7131TIP3    H242885   1.042   5.455  12.330 -1.7314 -0.8017  0.4076
 7132TIP3   OH242886   3.669   0.322  14.061 -0.5670  0.0486 -0.4815
 7132TIP3    H142887   3.753   0.368  14.052 -0.6735  0.2245 -0.5795
 7132TIP3    H242888   3.693   0.236  14.096 -0.6087  1.2170  2.7490
 7133TIP3   OH242889   3.872   0.200   1.113  0.4154  0.3443 -0.2732
 7133TIP3    H142890   3.857   0.198   1.207 -2.1847 -0.1813 -0.6252
 7133TIP3    H242891   3.919   0.282   1.098  0.7808  0.4872  1.4643
 7134TIP3   OH242892   1.053   3.259  13.147  0.1021  0.2117  0.0037
 7134TIP3    H142893   1.045   3.202  13.224  1.0898 -0.3874 -0.3234
 7134TIP3    H242894   1.053   3.348  13.183  1.7623 -0.0817  0.8293
 7135TIP3   OH242895   1.048   6.429   4.668  0.6039 -0.7510 -0.4132
 7135TIP3    H142896   1.074   6.521   4.668  2.1267 -1.1559 -0.0846
 7135TIP3    H242897   0.970   6.427   4.613  0.5632  0.7267 -0.4644
 7136TIP3   OH242898   2.105   5.969  11.699 -0.6247 -0.0460 -0.1319
 7136TIP3    H142899   2.176   6.033  11.706  0.3638 -1.2884  2.4583
 7136TIP3    H242900   2.128   5.916  11.623  2.2172 -1.4378  1.5380
 7137TIP3   OH242901   4.436   1.047  11.697  0.2738  0.1827  0.1001
 7137TIP3    H142902   4.388   0.987  11.639 -1.2583  1.0387  0.4345
 7137TIP3    H242903   4.527   1.040  11.668  0.2125 -2.4939  0.3101
 7138TIP3   OH242904   4.993   0.542  15.586 -0.5507 -0.0223  0.4019
 7138TIP3    H142905   5.074   0.550  15.637  1.0916  0.8369 -2.1565
 7138TIP3    H242906   4.948   0.626  15.601 -0.8159 -0.3365  1.4975
 7139TIP3   OH242907   0.614   5.033  15.847 -0.1918  0.1762 -0.5798
 7139TIP3    H142908   0.685   4.994  15.796  0.0625  0.5349 -0.5075
 7139TIP3    H242909   0.642   5.025  15.938 -1.1960 -1.5492 -0.3875
 7140TIP3   OH242910   1.645   3.383  10.652  0.1558  0.3512  0.0522
 7140TIP3    H142911   1.733   3.392  10.614  0.8856 -0.3321  1.5371
 7140TIP3    H242912   1.618   3.295  10.628 -0.8892  1.1298 -1.8758
 7141TIP3   OH242913   4.202   5.626  11.569  0.4021  0.3835  0.5742
 7141TIP3    H142914   4.258   5.644  11.645 -1.0225  0.0602  1.7585
 7141TIP3    H242915   4.128   5.577  11.605  0.2351 -0.7867 -1.2375
 7142TIP3   OH242916   3.629   4.169   5.344 -0.2404  0.8545 -0.0768
 7142TIP3    H142917   3.645   4.263   5.344 -2.2089  1.2408 -0.1518
 7142TIP3    H242918   3.590   4.151   5.258 -1.0345  0.2159  0.3969
 7143TIP3   OH242919   5.162   6.771   4.438  0.2914 -0.0305  0.4677
 7143TIP3    H142920   5.225   6.710   4.400 -1.3233 -1.4904  0.0215
 7143TIP3    H242921   5.196   6.788   4.527  0.9795 -1.2578  0.4572
 7144TIP3   OH242922   4.163   5.551   1.463  0.0611 -0.0061  0.3027
 7144TIP3    H142923   4.224   5.568   1.392  1.9516 -0.6226  1.6947
 7144TIP3    H242924   4.149   5.637   1.503  4.6019 -0.3386  3.4018
 7145TIP3   OH242925   6.820   6.333   5.828  0.2344 -0.4099  0.6538
 7145TIP3    H142926   6.744   6.296   5.784  0.2707  1.2246 -0.9055
 7145TIP3    H242927   6.785   6.372   5.909 -0.7033  0.7377 -0.2721
 7146TIP3   OH242928   2.912   0.332  16.445  0.0823  0.0206 -0.5563
 7146TIP3    H142929   2.839   0.317  16.504  0.3311 -0.2922 -0.3216
 7146TIP3    H242930   2.989   0.336  16.503  0.1190  1.5321 -0.6679
 7147TIP3   OH242931   5.043   6.101   0.857  0.0772 -0.0914 -0.7646
 7147TIP3    H142932   4.955   6.087   0.823  0.1947 -0.8238 -0.7831
 7147TIP3    H242933   5.042   6.190   0.892 -1.2199 -0.7212  0.9029
 7148TIP3   OH242934   0.477   5.514   1.379  0.6206  0.2048  0.0607
 7148TIP3    H142935   0.439   5.597   1.351  0.8630  0.2601 -0.0967
 7148TIP3    H242936   0.401   5.460   1.400  0.4513  0.3034 -0.2927
 7149TIP3   OH242937   2.091   5.447   5.878  0.5482 -0.4048  0.3438
 7149TIP3    H142938   2.083   5.514   5.946 -0.1087  0.0306 -0.1401
 7149TIP3    H242939   2.000   5.422   5.859  0.5351  0.9420 -1.7669
 7150TIP3   OH242940   1.044   2.611  11.974 -0.3028 -0.0624  0.0428
 7150TIP3    H142941   1.068   2.522  12.001  0.9625 -0.3879 -1.9262
 7150TIP3    H242942   0.952   2.605  11.950 -0.5219 -0.5616  0.9723
 7151TIP3   OH242943   3.485   2.208   3.681 -0.6636 -0.3809  0.3252
 7151TIP3    H142944   3.475   2.130   3.627 -1.1711  0.6500 -1.1376
 7151TIP3    H242945   3.487   2.280   3.619  1.4024  0.6835  1.5269
 7152TIP3   OH242946   0.856   0.199   1.884 -0.4402 -0.0466 -0.1688
 7152TIP3    H142947   0.920   0.163   1.946  1.2399 -0.8556 -2.2516
 7152TIP3    H242948   0.798   0.126   1.864 -0.7252  0.1005  0.1038
 7153TIP3   OH242949   0.615   1.478  14.710  0.6691 -0.3998 -0.7287
 7153TIP3    H142950   0.681   1.414  14.735  0.6176 -0.1149  0.1422
 7153TIP3    H242951   0.542   1.462  14.769  0.8787  0.8425 -0.1086
 7154TIP3   OH242952   1.254   0.185   4.626 -0.1193  0.1000 -0.1435
 7154TIP3    H142953   1.247   0.240   4.704 -0.9313  2.4519 -1.7492
 7154TIP3    H242954   1.167   0.190   4.587  0.7215  0.3830 -2.0631
 7155TIP3   OH242955   0.684   4.107  11.756 -0.4794  0.2673 -0.4574
 7155TIP3    H142956   0.712   4.053  11.683  1.1477  1.0003 -0.4183
 7155TIP3    H242957   0.738   4.077  11.830  1.4595  2.7304 -0.7349
 7156TIP3   OH242958   4.341   4.525   6.360  0.3530 -0.2672 -1.2629
 7156TIP3    H142959   4.399   4.506   6.434 -0.7902 -2.0846 -0.7676
 7156TIP3    H242960   4.399   4.527   6.284  1.0741 -2.4540 -0.8430
 7157TIP3   OH242961   0.488   0.793   4.333 -0.2082  0.6331  0.0319
 7157TIP3    H142962   0.582   0.810   4.332  0.3202 -1.7645  1.4711
 7157TIP3    H242963   0.459   0.817   4.421 -0.3611 -1.1092  0.4951
 7158TIP3   OH242964   0.037   3.817   3.231 -0.2769 -0.1356  0.2547
 7158TIP3    H142965   0.079   3.750   3.177 -2.0319 -2.7160  1.8322
 7158TIP3    H242966   0.102   3.838   3.298  2.2286  3.6705 -2.9165
 7159TIP3   OH242967   2.618   0.028  16.155 -0.8351 -0.2840  0.1721
 7159TIP3    H142968   2.601  -0.042  16.218 -3.7605 -1.5589 -1.8427
 7159TIP3    H242969   2.658  -0.017  16.080  2.1462  1.1293  0.7516
 7160TIP3   OH242970   0.292   2.808  11.610 -0.1953 -0.6944 -0.3613
 7160TIP3    H142971   0.379   2.813  11.570  0.4395 -1.2099  0.9298
 7160TIP3    H242972   0.249   2.736  11.564 -0.7717  0.8926 -2.4930
 7161TIP3   OH242973   2.737   3.403  15.458 -0.1538 -0.0851 -0.6878
 7161TIP3    H142974   2.767   3.437  15.374 -0.2316 -0.8874 -1.0559
 7161TIP3    H242975   2.765   3.468  15.522  0.1876  0.3822 -1.2978
 7162TIP3   OH242976   0.053   2.188   0.973  0.3370  0.2602  1.0788
 7162TIP3    H142977   0.138   2.205   1.014 -0.4687 -1.4233  3.7884
 7162TIP3    H242978   0.057   2.095   0.949 -0.6473  0.2138  1.0712
 7163TIP3   OH242979   0.821   4.533   2.979 -0.0057 -0.0300  0.1296
 7163TIP3    H142980   0.738   4.488   2.964 -0.2736 -0.0350  1.5339
 7163TIP3    H242981   0.818   4.608   2.919 -0.5577 -0.5933 -0.5708
 7164TIP3   OH242982   1.845   0.411   4.051  0.1518 -0.1068  0.2091
 7164TIP3    H142983   1.797   0.462   4.116 -1.3672 -0.2158 -0.7863
 7164TIP3    H242984   1.930   0.455   4.045 -0.3134  0.9540  1.0038
 7165TIP3   OH242985   0.505   0.099   4.530  0.7551 -0.2958 -0.4355
 7165TIP3    H142986   0.556   0.177   4.510 -0.5685  0.5474 -0.6606
 7165TIP3    H242987   0.567   0.026   4.523  1.4198  0.4366 -2.9150
 7166TIP3   OH242988   5.969   6.200   3.356 -0.0822  0.0819  0.2916
 7166TIP3    H142989   5.930   6.239   3.277 -1.8014  1.4797  1.7288
 7166TIP3    H242990   5.917   6.122   3.372 -0.2349  0.2171  0.4586
 7167TIP3   OH242991   1.621   3.195   2.581  0.4803 -0.3579 -0.1660
 7167TIP3    H142992   1.543   3.139   2.577  0.7585 -0.9034  1.3632
 7167TIP3    H242993   1.626   3.223   2.672 -0.0090  2.7416 -0.9672
 7168TIP3   OH242994   3.999   0.225   1.584  0.3018 -0.7718 -0.1884
 7168TIP3    H142995   4.087   0.198   1.611  0.0870 -1.2591  0.0144
 7168TIP3    H242996   3.976   0.296   1.644 -0.5406 -2.4289  1.5245
 7169TIP3   OH242997   4.792   5.068   4.076  0.5478 -0.3480 -0.3442
 7169TIP3    H142998   4.802   5.153   4.033  0.0859 -0.0476  0.1354
 7169TIP3    H242999   4.882   5.038   4.090  0.7299  0.3997  0.1333
 7170TIP3   OH243000   2.352   3.473  13.431 -0.1720  0.1537 -0.1594
 7170TIP3    H143001   2.361   3.565  13.403  0.7283  0.4287  0.9479
 7170TIP3    H243002   2.289   3.436  13.369 -2.3363  2.1028  0.7190
 7171TIP3   OH243003   3.782   1.954  14.478  0.0418 -0.4034 -0.1262
 7171TIP3    H143004   3.797   2.046  14.496  0.2923 -0.6438  0.9466
 7171TIP3    H243005   3.838   1.907  14.541  0.4059 -1.2874 -1.0724
 7172TIP3   OH243006   1.676   4.114  11.031  0.6208 -0.2158  0.2507
 7172TIP3    H143007   1.623   4.034  11.030 -0.1427  0.2564  1.2541
 7172TIP3    H243008   1.736   4.103  10.957 -1.0931 -0.6299 -1.1633
 7173TIP3   OH243009   4.793   5.465  17.246 -0.0478 -0.2377 -0.1184
 7173TIP3    H143010   4.800   5.412  17.326 -0.8532  1.6635  1.3033
 7173TIP3    H243011   4.750   5.408  17.183 -0.4834 -1.4305  1.2036
 7174TIP3   OH243012   2.316   0.003   1.861 -0.0460 -0.0488  0.2829
 7174TIP3    H143013   2.257   0.026   1.790  1.2829  0.1221 -0.8057
 7174TIP3    H243014   2.375   0.079   1.869  1.0703 -0.8751  0.1898
 7175TIP3   OH243015   1.449   3.051   4.503  0.3894 -0.4235 -0.1442
 7175TIP3    H143016   1.505   3.040   4.426 -0.6526 -2.0379 -0.7256
 7175TIP3    H243017   1.384   3.116   4.475 -0.0965 -1.1364 -0.7293
 7176TIP3   OH243018   6.640   5.109  12.474  0.1167  0.1818  0.1892
 7176TIP3    H143019   6.624   5.198  12.444 -0.2494 -0.6837 -2.4065
 7176TIP3    H243020   6.556   5.079  12.508 -0.1203  0.3550 -0.2430
 7177TIP3   OH243021   1.380   0.853   4.130 -0.3705  0.1615  0.1267
 7177TIP3    H143022   1.299   0.803   4.130 -1.0962  1.3154 -0.6357
 7177TIP3    H243023   1.415   0.843   4.042  0.7985 -1.0445  0.6894
 7178TIP3   OH243024   2.634   0.435  12.553  0.1450  0.0381  0.0060
 7178TIP3    H143025   2.702   0.369  12.567  3.3173  2.8192 -0.9070
 7178TIP3    H243026   2.636   0.453  12.459 -1.6800  0.4683  0.0053
 7179TIP3   OH243027   2.302   4.407  16.493  0.3540 -0.0578 -0.3492
 7179TIP3    H143028   2.296   4.484  16.549 -0.2023  1.1551 -1.9972
 7179TIP3    H243029   2.238   4.346  16.529  2.3256 -0.7533  2.3350
 7180TIP3   OH243030   0.187   4.106  11.716 -0.2362  0.2011  0.1704
 7180TIP3    H143031   0.253   4.087  11.649 -1.9749 -1.0564 -1.3102
 7180TIP3    H243032   0.221   4.181  11.763  0.7476  1.6657 -2.6352
 7181TIP3   OH243033   4.802   6.010  11.523 -0.9246  0.0925 -0.5422
 7181TIP3    H143034   4.831   5.989  11.434 -0.6970  0.4662 -0.5604
 7181TIP3    H243035   4.708   6.028  11.513 -1.2102 -1.2705 -0.4562
 7182TIP3   OH243036   2.419   4.911   3.821  0.1068 -0.3650 -0.2194
 7182TIP3    H143037   2.421   4.912   3.725  1.6103 -2.0239 -0.2779
 7182TIP3    H243038   2.359   4.839   3.842 -2.3207  1.6628  0.2077
 7183TIP3   OH243039   3.071   3.574   4.874 -0.1064 -0.4254  0.4195
 7183TIP3    H143040   3.106   3.573   4.963 -0.8020  1.4242  0.7699
 7183TIP3    H243041   2.978   3.595   4.885  0.2560  2.2439 -0.7810
 7184TIP3   OH243042   2.508   5.192   4.541 -0.1557 -0.2091 -0.4591
 7184TIP3    H143043   2.544   5.106   4.564 -1.7310 -0.8919 -0.4076
 7184TIP3    H243044   2.528   5.203   4.448  1.6767  0.2290 -0.0517
 7185TIP3   OH243045   1.827   6.094  11.712 -0.7975  0.7490  0.1965
 7185TIP3    H143046   1.876   6.100  11.794 -0.1631 -0.0189 -0.1152
 7185TIP3    H243047   1.894   6.090  11.644 -1.3159  1.1429 -0.3481
 7186TIP3   OH243048   0.414   2.617  11.975 -0.3596 -0.3731 -0.5831
 7186TIP3    H143049   0.439   2.655  12.060 -2.3359 -1.1634  0.4279
 7186TIP3    H243050   0.343   2.673  11.944  0.3157 -0.1238 -1.7338
 7187TIP3   OH243051   4.893   0.156  13.072  0.0689  0.1745  0.0422
 7187TIP3    H143052   4.985   0.182  13.063 -0.2264  1.4022  0.3535
 7187TIP3    H243053   4.880   0.090  13.004  1.4706 -0.8700  0.7362
 7188TIP3   OH243054   3.767   1.986   1.838  0.3704 -0.5448  0.0280
 7188TIP3    H143055   3.689   2.001   1.892  1.5082  0.1678  1.5497
 7188TIP3    H243056   3.773   2.065   1.784  0.7181 -0.0295  0.8042
 7189TIP3   OH243057   1.965   5.613  15.584  0.3204 -0.3646  0.4632
 7189TIP3    H143058   2.034   5.652  15.529  1.8966 -1.1719  1.7691
 7189TIP3    H243059   1.942   5.532  15.538  0.1465 -0.0300 -0.0502
 7190TIP3   OH243060   5.149   6.046  11.756  0.1346  0.5040  0.0467
 7190TIP3    H143061   5.142   6.064  11.662 -0.2339  1.5843  0.2640
 7190TIP3    H243062   5.074   5.991  11.776  1.1034 -1.1419 -0.5775
 7191TIP3   OH243063   0.821   1.045  14.628  0.2117 -0.5983 -0.0438
 7191TIP3    H143064   0.858   0.957  14.627  0.6949 -0.3884 -0.7422
 7191TIP3    H243065   0.865   1.089  14.700 -0.2274 -1.0064  0.4830
 7192TIP3   OH243066   4.867   4.756   4.153 -0.5685 -0.1433  0.4940
 7192TIP3    H143067   4.817   4.834   4.177 -0.0407  0.6846 -0.9989
 7192TIP3    H243068   4.957   4.787   4.145 -0.3042 -0.9824  0.1927
 7193TIP3   OH243069   2.345   3.148   0.685  0.4018 -0.0337 -0.8567
 7193TIP3    H143070   2.429   3.102   0.691 -0.0031 -0.6435  0.5312
 7193TIP3    H243071   2.285   3.084   0.646  0.5135  0.3299 -1.6494
 7194TIP3   OH243072   4.768   4.416   0.154  0.0239  0.0733 -0.5030
 7194TIP3    H143073   4.728   4.489   0.200 -0.6931 -0.0038 -0.9794
 7194TIP3    H243074   4.837   4.384   0.212  0.0774  0.8754 -0.1246
 7195TIP3   OH243075   5.540   3.270   4.553  0.1780  0.0557  0.4402
 7195TIP3    H143076   5.623   3.267   4.600 -0.2863  1.7977  1.4674
 7195TIP3    H243077   5.544   3.350   4.500 -0.1308 -0.8058 -0.9313
 7196TIP3   OH243078   6.559   4.997   0.207 -0.0275  0.1129 -0.5424
 7196TIP3    H143079   6.500   5.059   0.163 -0.3104  0.0310 -0.2830
 7196TIP3    H243080   6.542   4.914   0.163 -1.0055 -0.1758  0.3412
 7197TIP3   OH243081   1.075   2.875  11.028 -0.0414  0.2393 -0.1503
 7197TIP3    H143082   1.165   2.898  11.004  0.4006 -0.9252  0.3071
 7197TIP3    H243083   1.068   2.781  11.009 -1.5290  0.5330 -1.2394
 7198TIP3   OH243084   0.788   1.925   3.256  0.0878  0.5385 -0.1558
 7198TIP3    H143085   0.794   1.916   3.351 -2.0025 -2.2697 -0.1321
 7198TIP3    H243086   0.870   1.888   3.223  0.3351  0.4554  0.5336
 7199TIP3   OH243087   3.592   1.254   2.346  0.0908 -0.5068  0.2904
 7199TIP3    H143088   3.570   1.181   2.404  1.1813 -1.7746 -0.8256
 7199TIP3    H243089   3.604   1.329   2.405 -1.9840 -0.9543  1.3842
 7200TIP3   OH243090   2.006   5.066   2.540 -0.0466 -0.0578 -0.0553
 7200TIP3    H143091   1.914   5.058   2.565  0.6795 -2.8460  2.2976
 7200TIP3    H243092   2.019   4.999   2.473  0.2261  0.4645 -0.5278
 7201TIP3   OH243093   4.411   2.112   3.830  0.1140  0.1019  0.7804
 7201TIP3    H143094   4.350   2.163   3.777  0.5780  1.0756  1.1646
 7201TIP3    H243095   4.391   2.021   3.808  0.6249  0.4741 -1.4132
 7202TIP3   OH243096   0.167   4.862   2.140 -0.2432 -0.2109  0.6743
 7202TIP3    H143097   0.139   4.950   2.164 -1.4149 -0.2704 -0.3338
 7202TIP3    H243098   0.165   4.813   2.223 -1.1729  0.3196  0.9844
 7203TIP3   OH243099   5.349   5.188  16.083 -0.2292 -0.0072  0.4056
 7203TIP3    H143100   5.298   5.110  16.060 -1.3664  0.1760  2.0806
 7203TIP3    H243101   5.428   5.182  16.030 -0.9349 -1.5594 -0.5411
 7204TIP3   OH243102   1.472   1.535   2.864 -0.3855 -0.6285 -0.1914
 7204TIP3    H143103   1.435   1.599   2.925  1.7709  1.3872 -0.8647
 7204TIP3    H243104   1.403   1.522   2.799 -0.7154  1.5222 -0.3552
 7205TIP3   OH243105   5.224   2.998  14.524 -0.5226  0.3950 -0.6852
 7205TIP3    H143106   5.201   3.090  14.513  0.0883  0.6018 -0.2970
 7205TIP3    H243107   5.191   2.975  14.611  0.4039  0.5951 -0.2721
 7206TIP3   OH243108   5.028   6.799   1.448 -0.1952  0.1483  0.2813
 7206TIP3    H143109   5.094   6.868   1.436 -0.0709 -0.1954 -1.2554
 7206TIP3    H243110   4.947   6.838   1.414  0.0206 -0.6534 -1.2422
 7207TIP3   OH243111   3.894   1.179   3.318 -0.1265 -0.2428  0.0779
 7207TIP3    H143112   3.989   1.176   3.308 -0.2596 -1.9181 -1.0723
 7207TIP3    H243113   3.870   1.268   3.291  0.9830 -0.2604 -1.0726
 7208TIP3   OH243114   3.663   4.599  16.060 -0.2551  0.0420 -0.5709
 7208TIP3    H143115   3.605   4.613  15.986 -1.1104 -0.4809 -0.0050
 7208TIP3    H243116   3.606   4.569  16.131  0.6331 -0.0452  0.1258
 7209TIP3   OH243117   2.615   5.454  15.162 -0.6394  0.2811  0.6845
 7209TIP3    H143118   2.644   5.531  15.211 -0.9620  0.3447  0.7827
 7209TIP3    H243119   2.675   5.448  15.088  0.4274 -0.3467  1.5734
 7210TIP3   OH243120   5.066   1.819  16.098 -0.0028  0.3881 -0.7145
 7210TIP3    H143121   5.052   1.808  16.192 -0.1250 -0.5847 -0.8349
 7210TIP3    H243122   4.985   1.789  16.058  0.3918 -0.0875 -1.1702
 7211TIP3   OH243123   6.347   4.151   1.271 -0.3985 -0.5123 -0.0613
 7211TIP3    H143124   6.286   4.167   1.199  0.3557 -1.0669 -0.8401
 7211TIP3    H243125   6.339   4.057   1.289 -0.6501 -0.3577  0.6419
 7212TIP3   OH243126   3.753   1.067  16.806 -0.3169  0.1607  0.0817
 7212TIP3    H143127   3.816   1.050  16.736 -0.2250 -2.2558  0.6913
 7212TIP3    H243128   3.789   1.144  16.852 -0.0166  1.3576 -2.0201
 7213TIP3   OH243129   2.045   0.329  13.452  0.0366 -0.7469  0.4126
 7213TIP3    H143130   1.994   0.257  13.489  1.4643 -1.1021  1.8125
 7213TIP3    H243131   1.988   0.405  13.458 -1.0786 -1.5088 -0.0261
 7214TIP3   OH243132   2.083   4.892  13.358 -0.2139  0.0381 -0.4116
 7214TIP3    H143133   2.133   4.974  13.353 -0.7777  0.4203 -0.0079
 7214TIP3    H243134   2.148   4.823  13.343  0.2878  0.5539 -0.6615
 7215TIP3   OH243135   5.025   4.257  11.113  0.2094 -0.4945  0.4499
 7215TIP3    H143136   4.960   4.298  11.056 -0.9328 -4.4851 -1.5345
 7215TIP3    H243137   5.089   4.219  11.052  1.7948 -0.6898  2.1579
 7216TIP3   OH243138   2.632   0.793   1.171 -0.4576 -0.1482 -0.5368
 7216TIP3    H143139   2.647   0.872   1.120  0.5829  0.2558  0.3655
 7216TIP3    H243140   2.549   0.809   1.216 -0.4654  0.2535 -0.6882
 7217TIP3   OH243141   2.012   5.421   2.399  0.6540  0.0757 -0.2596
 7217TIP3    H143142   2.007   5.516   2.389  2.0405  0.4927  2.2786
 7217TIP3    H243143   1.946   5.399   2.464 -0.1564 -0.8563 -1.3481
 7218TIP3   OH243144   5.929   2.712  11.829  0.5674  0.4696  0.0114
 7218TIP3    H143145   5.939   2.789  11.773 -0.0306 -1.0875 -2.4151
 7218TIP3    H243146   5.834   2.696  11.830  0.5727  0.3876  1.4376
 7219TIP3   OH243147   1.795   6.449   3.314  0.0597 -0.4627 -0.1680
 7219TIP3    H143148   1.801   6.520   3.378  2.9834  0.3870 -1.2432
 7219TIP3    H243149   1.830   6.373   3.361  1.1782 -0.0966 -0.3818
 7220TIP3   OH243150   1.757   4.991   1.011 -0.1383  0.5433  0.0417
 7220TIP3    H143151   1.815   4.982   1.087 -0.2933  1.7768  0.3301
 7220TIP3    H243152   1.671   5.010   1.048 -0.8895 -1.7347 -0.3663
 7221TIP3   OH243153   5.869   1.834   1.940 -0.1651 -0.3595  0.0157
 7221TIP3    H143154   5.934   1.764   1.933  2.1831  1.6116  0.6897
 7221TIP3    H243155   5.914   1.904   1.987 -2.9345  1.0199  0.8257
 7222TIP3   OH243156   0.645   6.091   0.360 -0.4942  0.2151  0.2760
 7222TIP3    H143157   0.739   6.107   0.347 -0.9461  1.3043 -2.1747
 7222TIP3    H243158   0.614   6.168   0.407 -0.2627  0.0949  0.6323
 7223TIP3   OH243159   2.174   5.159   0.303 -0.0963 -0.1588  0.1508
 7223TIP3    H143160   2.172   5.255   0.306 -0.6749 -0.0842 -1.5730
 7223TIP3    H243161   2.244   5.138   0.241 -0.0169 -0.8554  0.4649
 7224TIP3   OH243162   3.319   5.242  16.583  0.0551  0.2526 -0.3715
 7224TIP3    H143163   3.280   5.240  16.495 -0.6512  0.9547 -0.0965
 7224TIP3    H243164   3.279   5.319  16.625  1.2390  0.6054  0.1738
 7225TIP3   OH243165   5.938   1.915   6.015  0.4638 -0.3275 -0.0051
 7225TIP3    H143166   6.000   1.874   6.075  0.9324 -1.5025 -1.2497
 7225TIP3    H243167   5.990   1.933   5.936 -0.3989  0.1653 -0.4710
 7226TIP3   OH243168   5.171   1.902  14.766 -0.3523  0.7675 -0.2404
 7226TIP3    H143169   5.198   1.982  14.720  2.5037  1.3412  2.1169
 7226TIP3    H243170   5.232   1.835  14.734 -0.4891  0.3890  0.2821
 7227TIP3   OH243171   3.976   1.517  15.041  0.0264 -0.4110 -0.2941
 7227TIP3    H143172   4.070   1.497  15.046  0.1402 -0.1715 -1.3445
 7227TIP3    H243173   3.948   1.483  14.956 -0.9972 -1.0810  0.2840
 7228TIP3   OH243174   3.097   4.088  16.899  0.1453  0.1711  0.0686
 7228TIP3    H143175   3.037   4.164  16.899 -3.3502 -2.3202  1.2246
 7228TIP3    H243176   3.082   4.047  16.814  2.5171  0.9967 -0.8208
 7229TIP3   OH243177   2.858   2.933  17.211  0.1880 -0.4230 -0.0789
 7229TIP3    H143178   2.805   2.978  17.276  1.9595  0.8731  0.5317
 7229TIP3    H243179   2.874   2.999  17.143  1.6898 -0.5188  0.1604
 7230TIP3   OH243180   3.488   5.442  13.574 -0.1727 -0.0801  0.2585
 7230TIP3    H143181   3.419   5.386  13.611 -0.7508  0.0328 -0.6245
 7230TIP3    H243182   3.485   5.425  13.480 -1.4659  2.5749 -0.2772
 7231TIP3   OH243183   1.453   5.616   4.329  0.2354 -0.6911  0.1683
 7231TIP3    H143184   1.388   5.584   4.393 -0.0061  0.6363  0.6245
 7231TIP3    H243185   1.528   5.641   4.382 -0.0934  0.7436  0.0055
 7232TIP3   OH243186   6.615   6.628   3.666  0.3113  0.1349  0.1071
 7232TIP3    H143187   6.684   6.654   3.727  1.4845 -1.2318 -0.5937
 7232TIP3    H243188   6.622   6.689   3.593  0.4657  0.2959  0.2581
 7233TIP3   OH243189   6.135   1.465   3.403 -0.2693  0.1686  0.0200
 7233TIP3    H143190   6.172   1.380   3.424  1.4607  0.6439 -0.9066
 7233TIP3    H243191   6.147   1.474   3.308 -3.2142  0.1989 -0.4522
 7234TIP3   OH243192   5.321   4.663   4.543  0.2922  0.1217  0.6312
 7234TIP3    H143193   5.300   4.606   4.617 -0.7225  1.0608  1.0989
 7234TIP3    H243194   5.278   4.746   4.564  2.9162  1.5707  0.6769
 7235TIP3   OH243195   0.287   3.369   4.416  0.2566 -0.1019  0.2269
 7235TIP3    H143196   0.283   3.390   4.510 -1.0265  0.6838  0.0248
 7235TIP3    H243197   0.244   3.444   4.373 -0.4203 -1.0888 -0.8742
 7236TIP3   OH243198   0.722   4.347  11.942  0.8668 -0.5802 -0.7811
 7236TIP3    H143199   0.699   4.268  11.892  1.2735 -1.7990  0.8411
 7236TIP3    H243200   0.687   4.419  11.891 -1.3711 -1.9459 -1.3218
 7237TIP3   OH243201   1.531   3.711   4.427  0.4793  0.0053  0.1412
 7237TIP3    H143202   1.499   3.645   4.488  2.3004  0.5300  1.7918
 7237TIP3    H243203   1.626   3.697   4.424  0.5368  0.4930 -2.0160
 7238TIP3   OH243204   4.433   5.227  13.605 -0.5455  0.0482  0.1392
 7238TIP3    H143205   4.452   5.304  13.659 -0.3121  0.0649  0.0354
 7238TIP3    H243206   4.358   5.253  13.552  0.5533  0.8179 -1.1002
 7239TIP3   OH243207   4.835   5.528  16.207  0.0380  0.2377  0.6443
 7239TIP3    H143208   4.752   5.565  16.175  0.9253  1.9000  0.1021
 7239TIP3    H243209   4.885   5.511  16.127  0.2728 -0.6489  0.9733
 7240TIP3   OH243210   4.998   4.596  12.675  0.2191  0.1635  0.1308
 7240TIP3    H143211   5.013   4.671  12.733 -0.9294 -1.7666  3.1330
 7240TIP3    H243212   4.915   4.560  12.704  0.1092 -1.5901 -2.0934
 7241TIP3   OH243213   5.144   5.124   4.496  0.2549  0.5542  0.0767
 7241TIP3    H143214   5.096   5.183   4.438  0.3441  0.6890  0.1379
 7241TIP3    H243215   5.122   5.154   4.585  0.1344  0.3618  0.1136
 7242TIP3   OH243216   0.083   1.180   1.739 -0.4318 -0.1916 -0.2933
 7242TIP3    H143217  -0.002   1.217   1.715 -0.5024 -0.5364 -0.5735
 7242TIP3    H243218   0.138   1.194   1.662 -1.0300 -2.4927 -1.2289
 7243TIP3   OH243219   1.575   1.576  12.118  0.0692  0.1579 -0.1193
 7243TIP3    H143220   1.594   1.667  12.095  1.1109 -0.0235 -0.0357
 7243TIP3    H243221   1.627   1.525  12.057  0.1852 -0.3616  0.4035
 7244TIP3   OH243222   0.242   2.977   0.109 -0.2045 -0.0724  0.4927
 7244TIP3    H143223   0.336   2.975   0.093 -0.1127 -2.4049  1.0014
 7244TIP3    H243224   0.209   2.898   0.067 -2.2415  1.4563 -1.0481
 7245TIP3   OH243225   2.732   6.383   0.407  0.3085  0.5760  0.5061
 7245TIP3    H143226   2.756   6.362   0.317 -0.8575  0.7992  0.1216
 7245TIP3    H243227   2.642   6.351   0.416  0.8558 -0.6598  2.0175
 7246TIP3   OH243228   4.678   4.794   1.461 -0.0190  0.0719  0.5792
 7246TIP3    H143229   4.667   4.882   1.424  0.0672 -0.9831 -2.1133
 7246TIP3    H243230   4.771   4.774   1.447 -0.6253 -1.5568 -1.6334
 7247TIP3   OH243231   0.645   0.660  14.949  0.1618  0.1556  0.1952
 7247TIP3    H143232   0.654   0.731  15.013  0.5632  0.9557 -0.7374
 7247TIP3    H243233   0.578   0.603  14.986 -0.7665  1.4508  0.5595
 7248TIP3   OH243234   1.299   0.904   1.914 -0.7049 -0.1115  0.7875
 7248TIP3    H143235   1.368   0.965   1.940 -0.2713  0.2807 -1.1448
 7248TIP3    H243236   1.345   0.837   1.863 -1.5205 -0.7546  0.8892
 7249TIP3   OH243237   1.111   5.657   4.305 -0.3923  0.4186  0.2266
 7249TIP3    H143238   1.161   5.633   4.383  0.4208  2.6730  0.4946
 7249TIP3    H243239   1.032   5.604   4.309  1.5408 -2.6948  0.2348
 7250TIP3   OH243240   3.387   3.095   4.118  0.4253  0.0410  0.3464
 7250TIP3    H143241   3.471   3.118   4.078  1.3517 -0.1857  2.0562
 7250TIP3    H243242   3.407   3.022   4.176 -0.7053  0.7600  1.7103
 7251TIP3   OH243243   4.789   4.948  14.406 -0.1688 -0.0312 -0.1112
 7251TIP3    H143244   4.759   5.016  14.466  0.4513  0.0747  0.0849
 7251TIP3    H243245   4.863   4.907  14.450 -0.7910 -1.1182 -0.0462
 7252TIP3   OH243246   4.902   3.395   0.572 -0.6877 -0.2005  0.6276
 7252TIP3    H143247   4.918   3.316   0.520 -0.9759 -0.6441  1.2043
 7252TIP3    H243248   4.879   3.362   0.659  3.0711  0.5221  2.0813
 7253TIP3   OH243249   4.810   0.147  12.284  0.2604 -0.3046  0.2106
 7253TIP3    H143250   4.855   0.093  12.349  1.4405  0.9010  0.4337
 7253TIP3    H243251   4.835   0.110  12.200  1.4181  0.1502  0.3440
 7254TIP3   OH243252   4.073   6.072  15.903  0.2643 -0.0993 -0.3310
 7254TIP3    H143253   4.019   6.132  15.954 -1.3869  0.8857 -3.0268
 7254TIP3    H243254   4.122   6.021  15.968 -0.0634  2.5065  2.1138
 7255TIP3   OH243255   5.802   2.214  12.215 -0.1769 -0.0541 -0.4540
 7255TIP3    H143256   5.822   2.120  12.212  0.4684 -0.0406  1.6900
 7255TIP3    H243257   5.794   2.240  12.123 -0.6054 -2.2436 -1.0981
 7256TIP3   OH243258   3.201   1.883   5.331  0.5813  0.3457  0.0102
 7256TIP3    H143259   3.206   1.803   5.384  0.4319  0.7900  0.7081
 7256TIP3    H243260   3.255   1.864   5.254 -0.1817 -0.7666 -0.2908
 7257TIP3   OH243261   0.767   5.474   4.775  0.0644 -0.2389 -0.4812
 7257TIP3    H143262   0.801   5.534   4.710 -3.3578 -0.0610 -2.3440
 7257TIP3    H243263   0.739   5.397   4.725  0.1953 -1.4502  1.2202
 7258TIP3   OH243264   5.631   2.970   6.533  0.3261  0.4413  0.0701
 7258TIP3    H143265   5.590   2.888   6.563  0.4522 -0.0449 -1.0325
 7258TIP3    H243266   5.705   2.982   6.592  0.0793 -0.0370  0.4909
 7259TIP3   OH243267   5.673   4.614   3.749  0.2327 -0.6634 -0.6465
 7259TIP3    H143268   5.726   4.614   3.829  1.1195  1.4280 -1.1591
 7259TIP3    H243269   5.732   4.645   3.680 -0.8952 -1.0203 -1.8257
 7260TIP3   OH243270   2.983   1.701  12.350 -0.0179 -0.6299  0.0674
 7260TIP3    H143271   3.006   1.759  12.422 -0.5349  0.2778 -0.4788
 7260TIP3    H243272   2.892   1.722  12.331  0.2047 -0.6189 -1.0571
 7261TIP3   OH243273   3.231   1.686  13.268 -0.0496  0.3229  0.1378
 7261TIP3    H143274   3.223   1.712  13.360 -0.3962  0.1218  0.1698
 7261TIP3    H243275   3.142   1.695  13.233 -0.4109 -1.7065  0.4047
 7262TIP3   OH243276   2.142   4.088   0.067 -0.2948 -0.3188  0.1152
 7262TIP3    H143277   2.064   4.081   0.121 -1.0973 -0.5448 -1.0392
 7262TIP3    H243278   2.136   4.174   0.026  0.4452 -0.0390  0.5748
 7263TIP3   OH243279   1.647   0.006  16.676 -0.0963  0.3570  0.9113
 7263TIP3    H143280   1.612   0.095  16.677  1.4774  1.1187 -1.9398
 7263TIP3    H243281   1.741   0.017  16.663  0.0255 -1.7016 -0.4538
 7264TIP3   OH243282   2.796   2.804   0.210  0.0512  0.2580  0.0008
 7264TIP3    H143283   2.723   2.846   0.256 -1.7459 -0.3259 -2.1517
 7264TIP3    H243284   2.757   2.727   0.168  2.0374 -0.3846 -0.7712
 7265TIP3   OH243285   5.913   3.104  16.134  0.2867 -0.3614  0.5953
 7265TIP3    H143286   5.908   3.010  16.150  0.3303 -0.3783  0.5075
 7265TIP3    H243287   5.949   3.141  16.215  0.0257 -0.3909  0.7261
 7266TIP3   OH243288   0.883   2.334   3.860 -0.3197  0.3394 -0.5347
 7266TIP3    H143289   0.957   2.273   3.867 -1.9321 -1.5211  2.4389
 7266TIP3    H243290   0.909   2.410   3.911 -0.5064 -0.4568  0.7949
 7267TIP3   OH243291   5.771   1.163   0.446  0.2646  0.2135 -0.3633
 7267TIP3    H143292   5.768   1.164   0.541 -0.5493  0.0206 -0.3802
 7267TIP3    H243293   5.686   1.127   0.419 -0.4495  2.3780 -1.2136
 7268TIP3   OH243294   5.146   5.525   5.610  0.1585 -0.1636 -0.8593
 7268TIP3    H143295   5.066   5.556   5.651  0.3356  1.0582 -1.3905
 7268TIP3    H243296   5.117   5.457   5.549 -0.4700  0.1944 -0.9674
 7269TIP3   OH243297   0.660   0.885   4.051  0.9836 -0.9431 -0.1942
 7269TIP3    H143298   0.576   0.841   4.049  0.8542 -0.6816 -2.1038
 7269TIP3    H243299   0.707   0.852   3.975  1.9846  0.0874 -0.0568
 7270TIP3   OH243300   1.774   5.823   1.341  0.2624 -0.5259 -1.1977
 7270TIP3    H143301   1.686   5.861   1.332 -0.0160 -1.3791 -2.2376
 7270TIP3    H243302   1.831   5.887   1.299  0.3310  0.6007  0.4950
 7271TIP3   OH243303   3.325   2.346   3.877  0.2388  0.0714 -0.0706
 7271TIP3    H143304   3.383   2.287   3.829 -0.2188 -0.7386  0.3620
 7271TIP3    H243305   3.312   2.420   3.817 -0.3794 -0.9446 -1.2399
 7272TIP3   OH243306   1.916   0.114   1.245 -0.1777  0.3950 -0.4034
 7272TIP3    H143307   1.886   0.057   1.174 -0.1466  0.2819 -0.3270
 7272TIP3    H243308   2.007   0.135   1.223  0.3230 -0.8549  0.3551
 7273TIP3   OH243309   4.255   4.399  15.115  0.5236 -0.4058  0.0139
 7273TIP3    H143310   4.271   4.307  15.134  0.5053 -0.3190  0.4711
 7273TIP3    H243311   4.221   4.400  15.026  2.5023 -0.6384 -0.7764
 7274TIP3   OH243312   3.327   2.577   4.716  0.2706 -0.2624  0.5115
 7274TIP3    H143313   3.350   2.644   4.651  0.0109 -0.9363 -0.2907
 7274TIP3    H243314   3.316   2.626   4.798  0.0910  0.6741 -0.0580
 7275TIP3   OH243315   2.361   1.801   0.623 -0.3044  0.4003  0.5283
 7275TIP3    H143316   2.454   1.801   0.601 -0.3965 -4.1055 -0.8586
 7275TIP3    H243317   2.359   1.778   0.716  0.0293 -1.1228  0.1832
 7276TIP3   OH243318   5.638   2.880  17.141 -0.3240  0.0829 -0.4776
 7276TIP3    H143319   5.573   2.847  17.079 -1.3753  1.6913 -0.2806
 7276TIP3    H243320   5.587   2.911  17.216  0.9213 -2.0292  1.3831
 7277TIP3   OH243321   1.918   6.122   5.318  0.3833  0.1160 -0.0105
 7277TIP3    H143322   2.002   6.139   5.274  0.7659 -3.0844 -0.7559
 7277TIP3    H243323   1.873   6.207   5.316  1.7545  0.9757 -3.6701
 7278TIP3   OH243324   0.558   6.522  14.447 -0.8535 -0.3277 -0.7623
 7278TIP3    H143325   0.601   6.605  14.468  0.7433 -0.9264 -1.5612
 7278TIP3    H243326   0.482   6.520  14.505  1.2063 -0.1109  2.1870
 7279TIP3   OH243327   5.346   4.357   5.698  0.3629 -0.4326  0.2035
 7279TIP3    H143328   5.342   4.314   5.613 -0.1356  1.3796 -0.7488
 7279TIP3    H243329   5.300   4.440   5.685  0.5479  0.0367  2.1695
 7280TIP3   OH243330   2.187   1.509   3.496 -0.1567 -1.0375  0.7728
 7280TIP3    H143331   2.134   1.567   3.549  0.7747  0.9430 -0.3649
 7280TIP3    H243332   2.135   1.429   3.488 -2.2051  0.1956  1.0888
 7281TIP3   OH243333   3.791   1.022   4.399  0.5384  0.5758 -0.5104
 7281TIP3    H143334   3.726   0.951   4.393 -0.1042  1.0710  0.2935
 7281TIP3    H243335   3.854   1.002   4.331  0.6977 -1.1205  0.0739
 7282TIP3   OH243336   3.574   2.302  13.745  0.0939  0.2377 -1.0020
 7282TIP3    H143337   3.532   2.297  13.832 -0.0981  0.0229 -1.1047
 7282TIP3    H243338   3.636   2.374  13.753  1.2032 -0.7669 -0.2017
 7283TIP3   OH243339   3.990   4.041  13.740  0.1881  0.1100 -0.1979
 7283TIP3    H143340   3.918   4.083  13.693 -0.2316  0.4113  0.6865
 7283TIP3    H243341   3.965   4.047  13.832  1.2351  0.0058  0.1067
 7284TIP3   OH243342   3.824   5.567  10.486 -0.4993 -0.2845 -0.0079
 7284TIP3    H143343   3.892   5.524  10.538  1.0315  1.2645 -0.6101
 7284TIP3    H243344   3.828   5.522  10.401  0.1800  0.1571 -0.2179
 7285TIP3   OH243345   1.925   3.088  12.383 -0.0134  0.0643  0.2088
 7285TIP3    H143346   1.889   3.175  12.394  1.4771  0.6357  0.7852
 7285TIP3    H243347   1.887   3.057  12.301 -0.2414  1.4140 -0.2178
 7286TIP3   OH243348   6.812   0.374  12.332 -0.3154 -0.4743 -0.9357
 7286TIP3    H143349   6.763   0.295  12.311  1.4109 -2.1283  0.9214
 7286TIP3    H243350   6.861   0.394  12.252 -1.6001 -0.5944 -1.7787
 7287TIP3   OH243351   1.063   6.633   1.226  0.5356  0.0736 -0.0075
 7287TIP3    H143352   0.993   6.609   1.165  0.3644 -1.4229  0.7278
 7287TIP3    H243353   1.138   6.581   1.198  0.9646  0.6537  0.0375
 7288TIP3   OH243354   1.163   2.924  13.688 -0.4109  0.5464 -0.1834
 7288TIP3    H143355   1.204   2.839  13.702 -2.4058 -0.3271  0.7815
 7288TIP3    H243356   1.224   2.987  13.726  0.0407 -0.6981  1.2428
 7289TIP3   OH243357   5.432   0.181   4.754 -0.9351  0.1158  0.2642
 7289TIP3    H143358   5.352   0.206   4.800 -1.4505  0.6180 -0.8595
 7289TIP3    H243359   5.405   0.110   4.695 -0.0456 -1.3176  1.5238
 7290TIP3   OH243360   4.617   6.511  15.029  0.3381  0.0593  0.1527
 7290TIP3    H143361   4.528   6.521  15.062 -0.3263  4.1673 -2.1629
 7290TIP3    H243362   4.665   6.585  15.066  2.0162 -0.4451 -0.8899
 7291TIP3   OH243363   3.055   0.178  15.963  0.7283 -0.8252  0.6372
 7291TIP3    H143364   3.046   0.202  16.055  2.1916 -0.6704  0.7732
 7291TIP3    H243365   2.987   0.228  15.918  1.1030  0.4422  1.4266
 7292TIP3   OH243366   4.255   2.487  15.732  0.2037  0.0564  0.3197
 7292TIP3    H143367   4.203   2.416  15.694 -0.3493  0.3176  0.5763
 7292TIP3    H243368   4.196   2.530  15.794  0.8998  0.0331  1.0084
 7293TIP3   OH243369   2.688   1.647  13.480 -0.3732 -0.2579 -0.2764
 7293TIP3    H143370   2.620   1.626  13.416 -0.6635 -0.0525 -0.0418
 7293TIP3    H243371   2.761   1.590  13.458 -0.3383  0.0630 -1.0102
 7294TIP3   OH243372   5.140   2.683  10.816 -0.2259  0.3002 -0.1356
 7294TIP3    H143373   5.157   2.591  10.799  2.3475  0.4345  1.1812
 7294TIP3    H243374   5.214   2.712  10.869 -2.5959  2.3411  2.3565
 7295TIP3   OH243375   1.342   3.339  11.593 -0.3380  0.3730  0.4994
 7295TIP3    H143376   1.273   3.274  11.584  1.1888 -1.1700 -0.9706
 7295TIP3    H243377   1.314   3.412  11.538 -1.2624  0.2115  0.7491
 7296TIP3   OH243378   2.285   5.116   2.547  0.5500  0.3413 -0.1218
 7296TIP3    H143379   2.273   5.177   2.473  0.7538  0.1675 -0.3003
 7296TIP3    H243380   2.199   5.112   2.588  0.4706  0.5563 -0.2626
 7297TIP3   OH243381   4.773   2.655  13.996 -0.1454  0.2190 -0.2796
 7297TIP3    H143382   4.844   2.624  13.939 -0.8299 -1.1997 -0.4185
 7297TIP3    H243383   4.750   2.578  14.048 -0.7415  1.0118  0.6460
 7298TIP3   OH243384   2.489   4.120   1.184  0.6331 -0.5780  0.5340
 7298TIP3    H143385   2.569   4.101   1.135  1.1672 -0.7546  1.4403
 7298TIP3    H243386   2.439   4.039   1.181  0.9967 -0.8217  0.8745
 7299TIP3   OH243387   0.327   2.390  16.810  0.2585  0.2368  0.9961
 7299TIP3    H143388   0.379   2.404  16.731 -0.6504 -0.9147  0.1593
 7299TIP3    H243389   0.292   2.301  16.801 -1.9405  0.9874  1.4629
 7300TIP3   OH243390   6.439   5.428  14.830  0.2019  0.2111  0.6739
 7300TIP3    H143391   6.492   5.447  14.907 -1.0029 -1.0891  1.9012
 7300TIP3    H243392   6.351   5.456  14.855 -0.0984  0.3032 -0.4651
 7301TIP3   OH243393   5.508   2.705  14.768 -0.3192  0.3098 -0.4077
 7301TIP3    H143394   5.507   2.770  14.838 -1.3678 -0.5958  0.4573
 7301TIP3    H243395   5.425   2.658  14.778  1.4402 -2.8700  0.6776
 7302TIP3   OH243396   5.727   0.725  11.107 -0.6132 -0.0544  0.4465
 7302TIP3    H143397   5.632   0.718  11.119 -1.0395  1.1641 -1.7089
 7302TIP3    H243398   5.762   0.645  11.148 -2.8603 -2.2158 -1.4826
 7303TIP3   OH243399   6.161   6.101   2.167 -0.2987 -0.0891  0.6154
 7303TIP3    H143400   6.256   6.091   2.168 -0.2595 -0.2974 -1.2842
 7303TIP3    H243401   6.130   6.028   2.113 -1.5977 -0.3939  1.7477
 7304TIP3   OH243402   0.640   1.068   3.518  0.1089 -0.1629  0.0199
 7304TIP3    H143403   0.684   1.011   3.456  0.3232  0.9409 -0.8882
 7304TIP3    H243404   0.550   1.075   3.485 -0.8508 -2.4251  1.8735
 7305TIP3   OH243405   5.188   3.335   5.734  0.0327 -0.2309 -0.6536
 7305TIP3    H143406   5.180   3.401   5.665 -0.0715  1.2100  0.7095
 7305TIP3    H243407   5.098   3.311   5.754 -0.2497  2.3863  1.7729
 7306TIP3   OH243408   2.316   4.025   3.968  0.3122  0.1177 -0.1948
 7306TIP3    H143409   2.390   4.048   4.024 -0.4683  0.3187  0.7732
 7306TIP3    H243410   2.242   4.075   4.003 -0.6744 -1.3453 -0.0977
 7307TIP3   OH243411   2.047   6.451  15.256  0.2475 -0.4032 -0.0244
 7307TIP3    H143412   2.035   6.356  15.266 -0.3449 -0.2340  1.0288
 7307TIP3    H243413   2.049   6.484  15.346 -0.3348  0.6748 -0.3915
 7308TIP3   OH243414   1.352   6.502   2.784  0.7865 -0.0700  0.2995
 7308TIP3    H143415   1.414   6.565   2.746 -0.3860  1.6008  1.0090
 7308TIP3    H243416   1.397   6.469   2.862  1.4847 -0.2293 -0.1651
 7309TIP3   OH243417   0.585   5.905  12.072  0.1134  0.7910  0.0210
 7309TIP3    H143418   0.527   5.955  12.014  0.7140  0.0961 -1.2093
 7309TIP3    H243419   0.583   5.816  12.037  2.1939  0.8190 -0.2874
 7310TIP3   OH243420   6.714   0.056   3.849 -0.0257 -0.9113 -0.7169
 7310TIP3    H143421   6.627   0.076   3.816  0.2124  3.1273  0.5353
 7310TIP3    H243422   6.773   0.090   3.782  0.4357  2.1573  1.0536
 7311TIP3   OH243423   1.056   3.695  12.293 -0.3814 -0.2733 -0.4636
 7311TIP3    H143424   1.040   3.617  12.346 -0.9073  0.5035  0.5693
 7311TIP3    H243425   0.974   3.744  12.298  0.6754  1.4590  0.8787
 7312TIP3   OH243426   4.729   0.218  14.226  0.2358  0.5086 -0.9143
 7312TIP3    H143427   4.650   0.256  14.265  1.2124  1.3704  0.2989
 7312TIP3    H243428   4.750   0.276  14.153  0.1038  0.6405 -0.8494
 7313TIP3   OH243429   2.238   5.670  11.156 -0.6279  1.3968 -0.4103
 7313TIP3    H143430   2.173   5.730  11.120 -0.2830  1.1457 -1.4956
 7313TIP3    H243431   2.214   5.585  11.118  0.0623  1.2259 -0.4700
 7314TIP3   OH243432   1.798   3.433   1.403  0.2936  0.1280  0.0081
 7314TIP3    H143433   1.886   3.400   1.388  0.4747 -1.0293  2.9499
 7314TIP3    H243434   1.795   3.451   1.497 -2.3670  0.9137 -0.1461
 7315TIP3   OH243435   6.346   4.947   4.328  0.0296 -0.5563 -0.8293
 7315TIP3    H143436   6.345   4.905   4.241  0.3671  0.5827 -1.4043
 7315TIP3    H243437   6.322   5.038   4.311 -0.0091 -0.3425  0.3001
 7316TIP3   OH243438   0.647   2.287   1.958  0.6402  0.4828 -0.2166
 7316TIP3    H143439   0.703   2.298   2.034  0.6460  0.1435 -0.1710
 7316TIP3    H243440   0.647   2.193   1.940  0.5250  0.5414 -0.5486
 7317TIP3   OH243441   2.165   2.500   4.051 -0.1992  0.1740  0.1981
 7317TIP3    H143442   2.132   2.417   4.086 -0.0448 -0.2074 -0.5294
 7317TIP3    H243443   2.105   2.522   3.980 -0.1780  0.6293  0.3198
 7318TIP3   OH243444   1.862   0.879  17.119 -0.0406 -0.2145  0.6371
 7318TIP3    H143445   1.843   0.785  17.111 -0.6286  0.0206 -1.1952
 7318TIP3    H243446   1.831   0.917  17.037 -1.5454  1.8791  2.0603
 7319TIP3   OH243447   6.414   4.577   0.898 -0.0175  0.6913  0.2004
 7319TIP3    H143448   6.501   4.542   0.920  0.1021  0.4625 -0.5752
 7319TIP3    H243449   6.376   4.510   0.841 -1.2482  0.1787  1.5658
 7320TIP3   OH243450   2.604   5.380   3.329  0.6047  0.0225 -0.6885
 7320TIP3    H143451   2.531   5.435   3.359  0.2883  0.3499 -2.0133
 7320TIP3    H243452   2.648   5.353   3.410 -1.8203 -1.3710  0.2955
 7321TIP3   OH243453   1.250   2.245   1.696 -0.4804 -0.4890 -0.0427
 7321TIP3    H143454   1.185   2.253   1.626 -0.4376  1.2245  0.0836
 7321TIP3    H243455   1.198   2.237   1.776 -0.5817  1.6482  0.1420
 7322TIP3   OH243456   3.944   3.595  14.322  0.5018  0.1519 -0.0391
 7322TIP3    H143457   3.994   3.670  14.292  1.3546 -0.5573 -0.4308
 7322TIP3    H243458   3.870   3.633  14.370 -0.2106  1.2931 -1.9150
 7323TIP3   OH243459   2.921   5.566   5.569  0.1187 -0.2939 -0.2707
 7323TIP3    H143460   2.913   5.615   5.487 -0.9661 -1.9779 -1.2415
 7323TIP3    H243461   2.989   5.500   5.551  0.0538 -0.5183  0.2727
 7324TIP3   OH243462   1.278   6.232  12.166 -0.0956  0.0340  0.0276
 7324TIP3    H143463   1.340   6.160  12.156  1.4490  1.1163  1.1427
 7324TIP3    H243464   1.306   6.297  12.101  0.1001  0.5971  0.6504
 7325TIP3   OH243465   5.300   3.484  16.608 -0.0821 -0.1297 -0.7324
 7325TIP3    H143466   5.379   3.431  16.603 -0.2313 -0.5173  0.7052
 7325TIP3    H243467   5.234   3.433  16.560  0.0751 -0.6791 -0.3679
 7326TIP3   OH243468   2.306   3.905   2.523 -0.4873 -0.0303 -0.0976
 7326TIP3    H143469   2.356   3.937   2.598  1.0053 -1.1724 -0.5372
 7326TIP3    H243470   2.268   3.822   2.553 -1.1344  0.2504 -0.1363
 7327TIP3   OH243471   6.705   0.274  11.907 -0.2800  0.2119 -0.4475
 7327TIP3    H143472   6.717   0.346  11.845  1.7991  0.6964  0.4321
 7327TIP3    H243473   6.652   0.210  11.860 -0.2454  1.3235 -2.0656
 7328TIP3   OH243474   4.797   3.587  16.439  0.5786  0.2220 -0.1762
 7328TIP3    H143475   4.784   3.652  16.371  0.5099  0.8835  0.4636
 7328TIP3    H243476   4.870   3.620  16.492  0.7703 -0.3852 -0.0452
 7329TIP3   OH243477   4.576   0.426  16.374  0.1923  0.2316  0.0860
 7329TIP3    H143478   4.660   0.382  16.368  0.8945  1.7421 -2.9444
 7329TIP3    H243479   4.511   0.356  16.361  1.1974 -0.3106 -2.6182
 7330TIP3   OH243480   0.402   6.820  16.197  0.0418 -0.6651  0.0186
 7330TIP3    H143481   0.396   6.878  16.121  0.0714  1.1176  1.3124
 7330TIP3    H243482   0.496   6.813  16.215  0.1745 -2.6331 -1.1922
 7331TIP3   OH243483   4.367   3.273  14.916 -0.1505  0.1059  0.4840
 7331TIP3    H143484   4.411   3.253  14.999 -0.3801 -0.7275  0.4139
 7331TIP3    H243485   4.274   3.277  14.939 -0.3674 -1.6167  0.0149
 7332TIP3   OH243486   2.326   2.904   4.523  0.0665  0.4484 -0.0663
 7332TIP3    H143487   2.397   2.960   4.553  0.3608  0.7883 -1.3065
 7332TIP3    H243488   2.248   2.960   4.523  0.3268  0.8503 -1.1406
 7333TIP3   OH243489   0.964   3.051   3.270  0.3312  0.1105 -0.4585
 7333TIP3    H143490   1.035   2.989   3.290 -0.3637 -0.3649  0.6021
 7333TIP3    H243491   1.006   3.117   3.214  1.9663  0.5723  1.1938
 7334TIP3   OH243492   3.842   1.678  16.859  0.3098  0.3285 -0.3045
 7334TIP3    H143493   3.832   1.659  16.766 -3.3027  0.8894 -0.1753
 7334TIP3    H243494   3.764   1.642  16.900  0.6260  2.1459  2.1640
 7335TIP3   OH243495   4.941   4.013  16.551  0.2446 -0.2569 -0.1110
 7335TIP3    H143496   4.956   4.030  16.458 -1.8172  0.1492 -0.4284
 7335TIP3    H243497   5.028   4.005  16.588  1.1324 -0.1415 -2.0233
 7336TIP3   OH243498   0.208   0.050  14.113 -0.4431 -0.2991  0.7349
 7336TIP3    H143499   0.118   0.057  14.080 -0.4614 -1.3417  0.5567
 7336TIP3    H243500   0.204  -0.015  14.182  0.7392 -2.8836 -1.4621
 7337TIP3   OH243501   5.733   3.100  12.951  0.4164 -0.9092  0.1209
 7337TIP3    H143502   5.720   3.036  12.881 -0.0555  0.1365 -0.7775
 7337TIP3    H243503   5.747   3.047  13.029  2.1775 -2.1366 -0.9405
 7338TIP3   OH243504   5.148   2.796   4.489 -0.3165 -0.4021  0.6038
 7338TIP3    H143505   5.052   2.795   4.482 -0.2979  1.7255 -1.0051
 7338TIP3    H243506   5.179   2.784   4.399  0.8987  0.2807  0.9127
 7339TIP3   OH243507   4.978   2.907   1.307 -0.1335  0.0791 -0.1543
 7339TIP3    H143508   5.018   2.832   1.262 -0.2824  0.6187 -1.2158
 7339TIP3    H243509   4.891   2.875   1.332  1.3987 -1.7521  3.8380
 7340TIP3   OH243510   1.034   3.536  13.219 -0.1152 -0.2453  0.1608
 7340TIP3    H143511   0.968   3.604  13.234  0.1840 -0.2324  1.5467
 7340TIP3    H243512   1.066   3.515  13.306  0.7861 -1.1873 -0.3861
 7341TIP3   OH243513   0.300   5.735  15.548  0.1081 -0.0789 -0.2958
 7341TIP3    H143514   0.385   5.709  15.583  0.3371 -0.3955 -1.0520
 7341TIP3    H243515   0.247   5.655  15.551 -0.7247  0.4943  1.7015
 7342TIP3   OH243516   0.376   1.917  16.514  0.0263  0.5237  0.0306
 7342TIP3    H143517   0.456   1.968  16.503  0.5926 -0.5129 -0.9226
 7342TIP3    H243518   0.392   1.866  16.594  0.0844  0.7377  0.1564
 7343TIP3   OH243519   0.630   0.166   4.903  0.1258  0.3066 -0.1495
 7343TIP3    H143520   0.714   0.163   4.858  0.4642  1.5347  0.3473
 7343TIP3    H243521   0.632   0.249   4.951 -1.6398  0.6882 -0.6607
 7344TIP3   OH243522   6.441   1.377  13.685  0.4662  0.0485 -0.2923
 7344TIP3    H143523   6.529   1.340  13.687  0.9685  1.2712  1.2130
 7344TIP3    H243524   6.385   1.304  13.656  1.7045 -1.2643  0.5355
 7345TIP3   OH243525   0.539   4.457  11.293  0.2256  0.3574  0.3018
 7345TIP3    H143526   0.617   4.507  11.270  0.7472  0.1305  1.5318
 7345TIP3    H243527   0.504   4.501  11.370  0.8235 -1.2752  1.5569
 7346TIP3   OH243528   1.347   1.213  11.561  0.6601 -0.0173 -0.4119
 7346TIP3    H143529   1.255   1.198  11.581  0.6250  0.7771  0.0458
 7346TIP3    H243530   1.376   1.277  11.625  2.1308 -1.8585  0.8753
 7347TIP3   OH243531   6.034   1.309   0.780 -0.0720 -0.5672 -0.0235
 7347TIP3    H143532   6.062   1.218   0.768  4.1041  0.6105 -0.8126
 7347TIP3    H243533   5.996   1.334   0.696 -3.4059 -2.0258  0.8644
 7348TIP3   OH243534   5.656   4.492  11.848  0.1826 -0.0299 -0.0910
 7348TIP3    H143535   5.610   4.425  11.796  1.0024 -1.3560  0.8239
 7348TIP3    H243536   5.620   4.483  11.936 -1.0931  2.1117 -0.3378
 7349TIP3   OH243537   3.952   6.105  12.503  0.6785  0.2211  0.1695
 7349TIP3    H143538   3.897   6.030  12.525  0.0191  0.3934 -0.8239
 7349TIP3    H243539   4.004   6.076  12.428 -0.4334  1.1032 -0.9891
 7350TIP3   OH243540   1.251   6.641   5.046  0.4954  0.1029 -0.2830
 7350TIP3    H143541   1.214   6.694   4.975 -0.9354 -0.1943  0.2158
 7350TIP3    H243542   1.251   6.551   5.012 -0.6958 -0.1217  0.2583
 7351TIP3   OH243543   5.987   5.070   1.879 -0.6220 -0.2736 -0.7841
 7351TIP3    H143544   6.032   4.989   1.901  1.1146  0.5133 -1.2788
 7351TIP3    H243545   6.015   5.132   1.947 -1.3713  0.1126 -0.8122
 7352TIP3   OH243546   3.254   5.821   1.833  0.3420  0.3760  0.0046
 7352TIP3    H143547   3.232   5.899   1.782  2.4669  1.1911  0.2190
 7352TIP3    H243548   3.227   5.747   1.778  0.0589  1.2534 -1.0677
 7353TIP3   OH243549   3.018   1.017  12.750 -0.2805  0.5278 -0.5249
 7353TIP3    H143550   3.039   0.957  12.678  4.0278  0.5591  0.4491
 7353TIP3    H243551   3.013   0.961  12.828 -0.4187  0.9829 -0.2012
 7354TIP3   OH243552   4.686   2.308  14.504 -0.0788  0.3427 -0.6526
 7354TIP3    H143553   4.632   2.352  14.569  4.1988  1.0575  2.8764
 7354TIP3    H243554   4.701   2.374  14.436 -2.5664  0.4435 -1.2030
 7355TIP3   OH243555   0.286   3.266   3.047  0.3150  0.0235 -0.0045
 7355TIP3    H143556   0.251   3.309   2.969  1.1245  0.1658 -0.2947
 7355TIP3    H243557   0.238   3.305   3.119 -0.8751 -0.5386 -0.4593
 7356TIP3   OH243558   1.035   1.882   0.561  0.4780 -0.0142 -0.0515
 7356TIP3    H143559   1.078   1.803   0.593  0.8780  0.5273  0.7875
 7356TIP3    H243560   1.092   1.953   0.588 -0.8189  0.7086  0.9089
 7357TIP3   OH243561   4.294   6.823   5.663 -0.4321  0.6725 -0.3437
 7357TIP3    H143562   4.299   6.919   5.672 -0.5878  0.6686 -0.2225
 7357TIP3    H243563   4.231   6.796   5.729  0.1820  0.4048  0.1361
 7358TIP3   OH243564   0.144   5.775   2.560  0.5244  0.1675 -0.7702
 7358TIP3    H143565   0.058   5.750   2.526 -0.2368  1.6944 -0.0644
 7358TIP3    H243566   0.147   5.870   2.550  2.1333  0.1470 -0.7441
 7359TIP3   OH243567   2.645   3.491  13.654 -0.3743  0.4509 -0.2987
 7359TIP3    H143568   2.632   3.583  13.630  0.3412  0.7272  0.3221
 7359TIP3    H243569   2.736   3.487  13.685 -1.0300  0.0119  1.7300
 7360TIP3   OH243570   1.880   6.660  13.959  0.8173  0.3700  0.1064
 7360TIP3    H143571   1.898   6.754  13.953 -1.4687  0.8773  0.1338
 7360TIP3    H243572   1.798   6.655  14.007  0.3861 -1.5901 -0.7383
 7361TIP3   OH243573   4.815   4.568   3.455 -0.3728 -0.0988  0.3583
 7361TIP3    H143574   4.891   4.584   3.511  1.4593 -2.2012 -1.3507
 7361TIP3    H243575   4.768   4.496   3.498  0.7924 -1.4145 -0.4876
 7362TIP3   OH243576   0.408   3.506  15.204  0.0911 -0.0097  0.7046
 7362TIP3    H143577   0.393   3.426  15.254 -1.0753  0.0356  0.4447
 7362TIP3    H243578   0.323   3.550  15.203  0.0052 -0.1351 -1.5248
 7363TIP3   OH243579   4.504   2.010  11.468 -0.6709  0.3031  0.0505
 7363TIP3    H143580   4.504   1.921  11.434  1.0704 -0.2407  1.3519
 7363TIP3    H243581   4.413   2.024  11.496 -0.9982 -1.0342 -0.2582
 7364TIP3   OH243582   4.446   3.234  15.180 -0.5171 -0.5434 -0.1867
 7364TIP3    H143583   4.477   3.148  15.153  2.0275 -0.3335  1.7784
 7364TIP3    H243584   4.486   3.250  15.265 -3.0872  1.4854  0.8076
 7365TIP3   OH243585   5.900   1.796   0.162 -0.5042 -0.2258 -0.0153
 7365TIP3    H143586   5.983   1.833   0.191 -0.7738 -0.5979  1.2582
 7365TIP3    H243587   5.911   1.785   0.067  0.4901  0.7475 -0.0301
 7366TIP3   OH243588   3.149   5.989   6.469 -0.0043 -0.5199  0.7226
 7366TIP3    H143589   3.135   5.901   6.435  0.0108 -0.5112  0.6940
 7366TIP3    H243590   3.101   5.991   6.552 -2.3617  0.3241 -0.5621
 7367TIP3   OH243591   4.911   4.558  13.948  0.2526  0.1346 -0.0928
 7367TIP3    H143592   4.927   4.647  13.916  0.2955 -0.6130 -2.2947
 7367TIP3    H243593   4.948   4.558  14.036  2.8673  1.5011 -1.0765
 7368TIP3   OH243594   0.030   4.028  13.508 -0.2614  0.2207 -0.7688
 7368TIP3    H143595   0.015   4.122  13.497 -0.8488  0.1126 -0.9465
 7368TIP3    H243596  -0.057   3.989  13.502 -0.1788 -0.2183  0.5712
 7369TIP3   OH243597   3.074   4.777   0.378  0.3568 -0.0466 -0.0944
 7369TIP3    H143598   3.091   4.865   0.345 -1.0618 -0.0079 -0.8109
 7369TIP3    H243599   3.095   4.781   0.471  2.0076  0.5412 -0.4574
 7370TIP3   OH243600   6.750   0.625   4.489  0.1019  0.2410  0.2441
 7370TIP3    H143601   6.784   0.645   4.576  1.1659  1.5516 -0.4396
 7370TIP3    H243602   6.672   0.680   4.480 -0.1134 -0.0297  0.4216
 7371TIP3   OH243603   5.287   3.949  14.354 -0.1127 -0.0604  0.0820
 7371TIP3    H143604   5.279   4.043  14.335 -0.2106  0.7169  3.2648
 7371TIP3    H243605   5.377   3.927  14.332 -0.3117  0.5400 -1.4483
 7372TIP3   OH243606   3.964   1.243  16.893  0.0489  0.0723 -0.1499
 7372TIP3    H143607   4.043   1.203  16.927 -0.0109  0.3935  0.3705
 7372TIP3    H243608   3.951   1.321  16.946  0.0921  0.7171 -1.0657
 7373TIP3   OH243609   0.914   2.564   2.105 -0.0618 -0.1388  0.3900
 7373TIP3    H143610   0.952   2.564   2.017 -0.8559 -2.8586 -0.0352
 7373TIP3    H243611   0.971   2.622   2.156  1.9940 -0.5951 -1.2763
 7374TIP3   OH243612   5.603   4.597   4.754 -0.7123  0.2238 -0.0889
 7374TIP3    H143613   5.680   4.545   4.778 -0.4414  0.8376  0.4196
 7374TIP3    H243614   5.544   4.588   4.829 -0.5633  0.8274  0.1073
 7375TIP3   OH243615   4.314   6.094   4.183  0.2827  0.1536 -0.0508
 7375TIP3    H143616   4.292   6.078   4.274  0.4896  1.1763  0.1978
 7375TIP3    H243617   4.230   6.119   4.142 -0.1159 -1.7766 -0.5263
 7376TIP3   OH243618   0.501   6.503  16.663 -0.2919 -0.2490 -0.9543
 7376TIP3    H143619   0.533   6.458  16.741 -0.0039 -0.3973 -1.1550
 7376TIP3    H243620   0.408   6.518  16.680 -0.0681  0.3966 -0.2601
 7377TIP3   OH243621   2.670   6.203  11.926 -0.2714  0.2894  0.2711
 7377TIP3    H143622   2.741   6.191  11.863 -0.8860 -0.4417 -0.3034
 7377TIP3    H243623   2.697   6.154  12.003 -0.1842 -0.0426  0.0280
 7378TIP3   OH243624   0.416   5.378   4.783 -0.7918  0.4265 -0.1807
 7378TIP3    H143625   0.473   5.318   4.735 -0.0948 -0.0661  1.2424
 7378TIP3    H243626   0.441   5.465   4.752  0.2892  0.1724 -0.0365
 7379TIP3   OH243627   5.222   3.798   0.511 -0.1079  0.2576  0.0938
 7379TIP3    H143628   5.174   3.718   0.490 -0.7045  0.8578 -0.8785
 7379TIP3    H243629   5.169   3.840   0.578 -0.0284  0.0673  0.2783
 7380TIP3   OH243630   5.472   3.984  12.946  0.0431 -0.2531 -0.6434
 7380TIP3    H143631   5.551   4.034  12.928 -0.1522 -0.3189 -1.8138
 7380TIP3    H243632   5.401   4.049  12.945 -0.0022 -0.2994 -0.3781
 7381TIP3   OH243633   3.700   1.187  12.884 -0.0595  1.0193  0.4286
 7381TIP3    H143634   3.693   1.243  12.807 -2.5156  1.3421  0.8038
 7381TIP3    H243635   3.738   1.243  12.952  2.4202  0.6445 -0.5424
 7382TIP3   OH243636   5.948   0.889   2.933 -0.4807 -0.0640 -0.1704
 7382TIP3    H143637   5.933   0.901   2.839  1.0873  3.0875 -0.1378
 7382TIP3    H243638   6.042   0.898   2.944 -0.5740 -0.9144  1.6699
 7383TIP3   OH243639   5.769   0.537   6.126  1.0373 -0.1146 -1.1512
 7383TIP3    H143640   5.814   0.620   6.108  0.8896  0.3769  0.5721
 7383TIP3    H243641   5.839   0.471   6.121  2.1301  0.6629  1.6883
 7384TIP3   OH243642   1.327   4.581   0.257 -0.4276 -0.9440  0.5183
 7384TIP3    H143643   1.245   4.584   0.307 -0.7102 -1.0898  0.0683
 7384TIP3    H243644   1.310   4.634   0.179  0.8220  1.3848  1.7149
 7385TIP3   OH243645   5.838   1.629   0.882 -0.2904 -0.0426  0.1537
 7385TIP3    H143646   5.925   1.618   0.843  0.3913 -0.9408  1.8479
 7385TIP3    H243647   5.785   1.562   0.839  0.4338 -0.9855  0.7028
 7386TIP3   OH243648   0.249   0.163  15.333  0.5691  0.2310  0.2029
 7386TIP3    H143649   0.294   0.241  15.301  1.7942 -0.3454  0.4603
 7386TIP3    H243650   0.318   0.098  15.344 -0.3254 -0.6753  0.6833
 7387TIP3   OH243651   6.777   4.847  11.744  0.1137 -0.3108 -0.7723
 7387TIP3    H143652   6.799   4.770  11.796 -1.5678 -0.1589  0.2291
 7387TIP3    H243653   6.693   4.876  11.778  1.9067  3.6739  0.8289
 7388TIP3   OH243654   2.410   3.942  14.254 -0.7034  0.3755  0.0609
 7388TIP3    H143655   2.350   3.886  14.206  0.2537 -0.6378  0.0078
 7388TIP3    H243656   2.494   3.932  14.209  0.0861 -0.1599  1.5774
 7389TIP3   OH243657   2.415   1.200  14.344  0.0567 -0.2511  0.1018
 7389TIP3    H143658   2.485   1.265  14.340 -0.6526  0.6835  1.6993
 7389TIP3    H243659   2.446   1.135  14.406 -0.1274 -0.2859  0.1593
 7390TIP3   OH243660   0.653   1.605   4.057 -0.0218 -0.2825  0.2664
 7390TIP3    H143661   0.575   1.551   4.045 -0.2926  0.0902  0.3377
 7390TIP3    H243662   0.640   1.648   4.142  0.2722 -0.2416  0.2920
 7391TIP3   OH243663   1.062   1.714  10.873 -0.0131  1.1712  0.1299
 7391TIP3    H143664   1.105   1.779  10.929  2.0828 -0.7619  0.9224
 7391TIP3    H243665   1.134   1.669  10.829 -1.0118 -2.6021  1.8938
 7392TIP3   OH243666   2.571   5.381   2.018  0.2162  0.5173 -0.0676
 7392TIP3    H143667   2.574   5.317   2.090  1.6973  1.5967  0.8660
 7392TIP3    H243668   2.569   5.466   2.061 -0.3512  1.1704 -1.3179
 7393TIP3   OH243669   6.467   0.578   4.769  0.0691 -0.7932  0.1457
 7393TIP3    H143670   6.525   0.650   4.793 -1.6339  0.4231  0.8811
 7393TIP3    H243671   6.524   0.512   4.731  1.8716  0.4212  0.6194
 7394TIP3   OH243672   0.625   1.683   4.321 -0.9372  0.7319  0.7033
 7394TIP3    H143673   0.686   1.635   4.378 -2.4223  0.2139  1.9408
 7394TIP3    H243674   0.622   1.771   4.358  1.5707  1.8187 -1.4000
 7395TIP3   OH243675   3.013   6.596  15.957 -0.4846  0.1832 -0.1537
 7395TIP3    H143676   2.962   6.522  15.925  0.4053 -0.3247 -0.4174
 7395TIP3    H243677   3.101   6.581  15.924 -0.3932  1.6369 -0.6589
 7396TIP3   OH243678   5.585   1.293   4.631 -0.2049 -0.3344  0.1679
 7396TIP3    H143679   5.522   1.333   4.570  0.0281 -1.3025 -0.7329
 7396TIP3    H243680   5.541   1.295   4.716 -1.8178 -1.7199 -0.5809
 7397TIP3   OH243681   5.512   3.554  13.762  0.3783  0.3621 -0.3209
 7397TIP3    H143682   5.425   3.564  13.800 -0.2743 -0.0454 -1.6805
 7397TIP3    H243683   5.513   3.465  13.726  1.5981  0.1167  0.2421
 7398TIP3   OH243684   5.310   4.363  15.503  0.7341  0.2052 -0.0362
 7398TIP3    H143685   5.259   4.316  15.437  0.6595 -0.5755  0.5659
 7398TIP3    H243686   5.332   4.446  15.461 -1.9361  1.0611  0.0469
 7399TIP3   OH243687   1.888   5.176   5.106 -0.0116  0.1030 -0.0767
 7399TIP3    H143688   1.907   5.268   5.088 -2.8324  0.5157 -1.5489
 7399TIP3    H243689   1.866   5.139   5.021 -0.5755 -1.4955  0.7194
 7400TIP3   OH243690   6.548   3.533   6.307  0.4331  0.5066 -0.2254
 7400TIP3    H143691   6.587   3.613   6.342  0.7783 -0.0519  0.7081
 7400TIP3    H243692   6.469   3.519   6.360 -0.5597  1.1119 -1.4800
 7401TIP3   OH243693   0.428   0.223   3.984 -0.1949 -0.3879 -0.4955
 7401TIP3    H143694   0.510   0.214   4.033 -0.0419  0.5835 -0.5476
 7401TIP3    H243695   0.417   0.318   3.974 -0.1852 -0.5516 -2.3898
 7402TIP3   OH243696   4.547   4.845  12.294  0.0873 -0.0859  0.5374
 7402TIP3    H143697   4.592   4.769  12.331  1.9617  0.6763 -0.0635
 7402TIP3    H243698   4.485   4.808  12.231  1.2212 -1.1230 -0.0091
 7403TIP3   OH243699   4.763   3.282   0.209 -0.1791  0.1332  0.4092
 7403TIP3    H143700   4.676   3.321   0.213  0.2788  1.7511 -2.6236
 7403TIP3    H243701   4.748   3.194   0.175 -0.6184  0.5466 -0.4933
 7404TIP3   OH243702   6.428   1.032  14.394 -0.1774  0.4529  0.0215
 7404TIP3    H143703   6.406   1.040  14.487  1.7169 -0.1316  0.5452
 7404TIP3    H243704   6.502   0.973  14.391 -0.2550  0.3892 -1.8961
 7405TIP3   OH243705   0.208   1.555  10.620 -0.4069  0.4028 -0.3454
 7405TIP3    H143706   0.218   1.542  10.714  2.7960 -1.8726 -0.8522
 7405TIP3    H243707   0.260   1.633  10.601 -0.4993  0.4679 -0.3333
 7406TIP3   OH243708   5.657   3.546  16.670 -0.3511 -0.2351 -0.2388
 7406TIP3    H143709   5.644   3.583  16.583 -2.1771 -0.2862 -0.0232
 7406TIP3    H243710   5.667   3.452  16.655 -0.0712 -0.1731 -0.4387
 7407TIP3   OH243711   0.664   3.910  12.675 -0.2616 -0.0750  0.0941
 7407TIP3    H143712   0.633   3.990  12.718 -2.4072 -0.0754 -1.3261
 7407TIP3    H243713   0.663   3.844  12.744  1.6258  1.0641  1.3117
 7408TIP3   OH243714   5.701   1.599   3.513 -0.2296 -0.4798 -0.0069
 7408TIP3    H143715   5.608   1.589   3.532 -0.2204  1.1179  0.9737
 7408TIP3    H243716   5.742   1.527   3.560 -0.9230 -1.0227 -0.2045
 7409TIP3   OH243717   2.232   3.065  16.316 -0.1123 -0.0518  0.0390
 7409TIP3    H143718   2.260   3.145  16.272 -3.0526  1.9471  1.5065
 7409TIP3    H243719   2.309   3.038  16.367  1.1317  1.5268 -0.8964
 7410TIP3   OH243720   4.212   3.989  16.924 -0.4999 -0.0157  0.1374
 7410TIP3    H143721   4.262   4.039  16.859  0.6264  0.8967  1.6520
 7410TIP3    H243722   4.180   3.913  16.876  0.6650  0.4049 -1.3803
 7411TIP3   OH243723   5.385   5.628  10.941 -0.4858  0.0051 -0.2348
 7411TIP3    H143724   5.438   5.553  10.969 -1.7689 -1.0060 -0.4384
 7411TIP3    H243725   5.426   5.657  10.860  1.1929  0.7826  0.8269
 7412TIP3   OH243726   2.281   1.126  12.002  0.1898 -0.4232  0.3293
 7412TIP3    H143727   2.358   1.135  11.946  0.5950  1.8846  1.1121
 7412TIP3    H243728   2.315   1.091  12.084 -0.1043 -2.0875 -0.2311
 7413TIP3   OH243729   1.427   5.297   5.842  0.0148  0.5464  0.2882
 7413TIP3    H143730   1.393   5.275   5.928 -0.5797 -1.1921 -0.3491
 7413TIP3    H243731   1.356   5.345   5.799 -0.0954  0.4660  0.3800
 7414TIP3   OH243732   2.134   1.074  16.250 -0.4080 -0.2414 -0.2460
 7414TIP3    H143733   2.204   1.012  16.271  1.1959  1.2990 -0.7999
 7414TIP3    H243734   2.054   1.021  16.251  0.0993 -1.3955  4.4540
 7415TIP3   OH243735   5.484   1.784  13.009  0.6108 -0.5349 -0.0268
 7415TIP3    H143736   5.446   1.851  13.066  0.8139  1.2460 -1.8439
 7415TIP3    H243737   5.578   1.804  13.007  0.5702 -0.3736 -1.1572
 7416TIP3   OH243738   1.975   3.994   3.006  0.6241  0.9170 -0.6908
 7416TIP3    H143739   2.061   3.951   3.001 -0.2672 -0.7978 -2.2532
 7416TIP3    H243740   1.912   3.923   2.996 -1.0000  2.2204 -0.1361
 7417TIP3   OH243741   0.552   0.346   0.109  0.0307 -0.1862 -0.1825
 7417TIP3    H143742   0.624   0.352   0.171 -1.5958  4.4938  1.7240
 7417TIP3    H243743   0.494   0.279   0.145 -0.9691  2.5039  3.8347
 7418TIP3   OH243744   1.628   1.096   3.856 -0.2498  0.3699 -0.0761
 7418TIP3    H143745   1.625   1.004   3.884  1.4024 -0.0423 -1.1099
 7418TIP3    H243746   1.669   1.142   3.929  2.3687 -0.3956 -0.9539
 7419TIP3   OH243747   4.125   0.441   3.361  0.3274  0.0060 -0.0218
 7419TIP3    H143748   4.033   0.427   3.385 -0.0271  2.7524  0.5275
 7419TIP3    H243749   4.175   0.400   3.431 -0.4249 -1.7337 -0.4490
 7420TIP3   OH243750   4.851   3.724  13.120 -0.0459  0.0786  0.3202
 7420TIP3    H143751   4.805   3.799  13.159 -0.5445 -0.1268  0.1407
 7420TIP3    H243752   4.886   3.675  13.194 -0.1158  0.2423  0.4611
 7421TIP3   OH243753   0.954   2.623  16.460  0.2838  0.5438  0.7241
 7421TIP3    H143754   0.975   2.556  16.525 -2.0917 -0.1369  0.8976
 7421TIP3    H243755   0.895   2.683  16.506 -0.7382  0.5328 -0.5047
 7422TIP3   OH243756   3.221   5.406   3.614  0.3571  0.3682  0.1681
 7422TIP3    H143757   3.192   5.483   3.566  1.1691  1.1830  0.9355
 7422TIP3    H243758   3.313   5.423   3.633  0.4284 -0.5815  0.7564
 7423TIP3   OH243759   6.605   1.892  14.297 -0.0514 -0.2024  0.0204
 7423TIP3    H143760   6.527   1.850  14.333  0.0162 -1.1816 -0.9158
 7423TIP3    H243761   6.668   1.892  14.369 -0.9358  0.7156  0.8221
 7424TIP3   OH243762   3.259   6.131   1.042 -0.6750  0.4628  0.1191
 7424TIP3    H143763   3.208   6.129   0.960 -0.2439 -0.8965 -0.1428
 7424TIP3    H243764   3.349   6.146   1.013 -0.7951  2.3375  0.5468
 7425TIP3   OH243765   3.114   0.487   6.026 -0.2652 -0.1630  0.7638
 7425TIP3    H143766   3.129   0.450   5.939 -2.2224 -0.6076  0.5586
 7425TIP3    H243767   3.026   0.456   6.050 -0.9598  2.2987  1.6655
 7426TIP3   OH243768   2.495   1.412  15.849  0.2414  0.2488  0.0270
 7426TIP3    H143769   2.468   1.334  15.898 -2.3050  1.5590  0.8650
 7426TIP3    H243770   2.465   1.395  15.760 -0.1020  0.1628  0.1551
 7427TIP3   OH243771   4.234   6.718   3.682  0.0312 -0.6266 -0.1199
 7427TIP3    H143772   4.271   6.736   3.596 -0.7852  0.6638 -0.2345
 7427TIP3    H243773   4.292   6.762   3.743 -0.9152  0.8559 -0.2508
 7428TIP3   OH243774   1.805   6.216  13.824 -0.1333  0.8639 -0.0681
 7428TIP3    H143775   1.862   6.146  13.793  1.0048  1.5659  0.3731
 7428TIP3    H243776   1.784   6.267  13.746  0.8335  1.2941 -0.0496
 7429TIP3   OH243777   3.146   2.048   5.701  0.6127 -0.5084  0.0908
 7429TIP3    H143778   3.151   2.075   5.792  1.6444 -0.0570 -0.0843
 7429TIP3    H243779   3.059   2.075   5.672  1.2191  1.7933  0.2046
 7430TIP3   OH243780   2.131   0.188  11.538 -0.4875 -0.3524  0.2721
 7430TIP3    H143781   2.193   0.232  11.480  0.6845 -1.0581  0.9387
 7430TIP3    H243782   2.180   0.174  11.619 -1.7642 -0.2817  1.0846
 7431TIP3   OH243783   0.655   2.904   0.640 -0.4802 -0.0806 -0.0132
 7431TIP3    H143784   0.663   2.910   0.735 -2.2135 -0.5275  0.1955
 7431TIP3    H243785   0.590   2.970   0.617  0.9947  1.0751 -1.1198
 7432TIP3   OH243786   5.686   5.502  15.702 -0.0028 -0.5695 -0.4224
 7432TIP3    H143787   5.664   5.466  15.616  1.1086  0.4515 -1.1737
 7432TIP3    H243788   5.615   5.563  15.721  0.2903  0.0053 -1.1312
 7433TIP3   OH243789   2.176   6.208   3.788  0.1262 -0.3290 -0.2907
 7433TIP3    H143790   2.265   6.239   3.803  0.1283 -0.1161 -0.7392
 7433TIP3    H243791   2.144   6.184   3.875  0.6905 -0.5939 -0.1573
 7434TIP3   OH243792   1.990   1.875  15.659 -0.0069  0.4620  0.0547
 7434TIP3    H143793   1.915   1.853  15.604 -0.6276  4.1047 -0.8295
 7434TIP3    H243794   1.953   1.885  15.747  0.5209 -2.8384  0.7604
 7435TIP3   OH243795   4.898   5.742  16.394 -0.1902 -0.5248 -0.1721
 7435TIP3    H143796   4.899   5.669  16.333 -0.3181  0.0491 -0.8703
 7435TIP3    H243797   4.974   5.726  16.451 -0.1005 -1.0917 -0.4423
 7436TIP3   OH243798   4.313   5.036  16.977 -0.3220 -0.7309  0.1928
 7436TIP3    H143799   4.363   4.957  16.957  0.2521 -0.1166 -0.8978
 7436TIP3    H243800   4.268   5.058  16.895 -1.1595 -0.3991  0.7214
 7437TIP3   OH243801   5.958   3.434  11.437 -0.5173  0.1636  0.1638
 7437TIP3    H143802   5.931   3.526  11.441 -2.3228 -0.2007 -1.7921
 7437TIP3    H243803   5.876   3.385  11.432  0.4244 -1.4169 -0.7324
 7438TIP3   OH243804   6.188   5.000   6.007  0.2418  0.3184  0.6994
 7438TIP3    H143805   6.192   5.040   6.094 -0.0624  2.6475 -0.2795
 7438TIP3    H243806   6.152   5.069   5.951 -0.4117 -1.4213 -1.1143
 7439TIP3   OH243807   1.555   1.348  11.701  0.0297  0.1470 -0.4379
 7439TIP3    H143808   1.617   1.346  11.774  0.6634  0.8111 -0.9419
 7439TIP3    H243809   1.607   1.323  11.625  0.5531  3.7758 -1.4331
 7440TIP3   OH243810   6.566   4.421   2.675  0.4696 -0.1817  0.2391
 7440TIP3    H143811   6.548   4.498   2.730 -2.5000 -0.5111 -0.1353
 7440TIP3    H243812   6.618   4.455   2.603 -0.6866  1.5052  0.1441
 7441TIP3   OH243813   6.609   4.963   6.526 -0.3410  0.1772  0.1127
 7441TIP3    H143814   6.701   4.951   6.551  0.5589  0.3836 -2.7650
 7441TIP3    H243815   6.602   5.056   6.504 -0.8082 -0.1306 -1.1208
 7442TIP3   OH243816   6.410   0.673  10.980 -0.6048  0.4590  0.4070
 7442TIP3    H143817   6.342   0.632  10.925 -1.3797 -0.9899  2.3134
 7442TIP3    H243818   6.440   0.748  10.929 -1.6187 -0.4955 -1.7546
 7443TIP3   OH243819   1.972   4.244  15.099  0.0817  0.2874 -0.3768
 7443TIP3    H143820   2.027   4.306  15.147  0.9149 -0.2017 -0.6751
 7443TIP3    H243821   1.901   4.298  15.064  0.7623  1.0765 -0.5915
 7444TIP3   OH243822   6.431   4.219   3.617  0.0481 -0.0581  0.2380
 7444TIP3    H143823   6.454   4.139   3.665 -1.2723  0.4409  1.8159
 7444TIP3    H243824   6.457   4.202   3.527  1.7795 -1.4172  0.9463
 7445TIP3   OH243825   6.722   4.868  12.576 -0.0199  0.2612  0.0792
 7445TIP3    H143826   6.648   4.816  12.546  0.1668  0.3829 -0.6314
 7445TIP3    H243827   6.695   4.959  12.563 -0.1379  0.3289  0.7958
 7446TIP3   OH243828   3.176   2.779  16.627 -0.3493 -0.0787  0.5495
 7446TIP3    H143829   3.107   2.821  16.576  0.5095  1.4255  0.5491
 7446TIP3    H243830   3.221   2.722  16.565 -0.7899 -0.0832  0.2287
 7447TIP3   OH243831   4.200   1.508  12.365 -0.1915 -0.0052  0.6425
 7447TIP3    H143832   4.180   1.542  12.452 -1.7435  2.5272 -0.5816
 7447TIP3    H243833   4.115   1.503  12.320  0.5044 -1.7006 -0.6177
 7448TIP3   OH243834   0.662   0.084   5.980  0.4060 -0.0152 -0.0589
 7448TIP3    H143835   0.609   0.160   5.955 -1.2499 -1.8433 -2.5901
 7448TIP3    H243836   0.627   0.058   6.065  0.1026  1.2438  0.2255
 7449TIP3   OH243837   3.988   4.466   6.125 -0.4346  0.4463 -0.4461
 7449TIP3    H143838   4.065   4.410   6.113 -0.8094 -0.6667  1.8842
 7449TIP3    H243839   4.019   4.541   6.176 -0.4098  1.2978 -1.6634
 7450TIP3   OH243840   5.697   4.969   0.663 -0.5636  0.3885 -0.3923
 7450TIP3    H143841   5.639   4.954   0.588 -1.3526  0.5760  0.1666
 7450TIP3    H243842   5.664   4.910   0.731  0.9600 -0.7407 -0.5939
 7451TIP3   OH243843   2.652   0.460   1.635 -0.0333  0.0975  0.0455
 7451TIP3    H143844   2.705   0.537   1.655 -0.5552  0.7278 -0.9696
 7451TIP3    H243845   2.639   0.419   1.721  1.5429  0.2645  0.4096
 7452TIP3   OH243846   0.011   2.120   3.413  0.4688  0.0190 -0.0741
 7452TIP3    H143847   0.078   2.154   3.473  0.6962 -0.3052 -0.1371
 7452TIP3    H243848   0.055   2.115   3.329  0.7019 -1.1941  0.0989
 7453TIP3   OH243849   5.031   4.901   3.359 -0.0049  0.2400 -0.4940
 7453TIP3    H143850   5.096   4.923   3.291  1.1296  0.1128  0.5160
 7453TIP3    H243851   4.962   4.967   3.347  0.3616  0.4715 -1.5082
 7454TIP3   OH243852   2.878   5.836   4.161 -0.5352  0.5805 -0.4120
 7454TIP3    H143853   2.888   5.899   4.232 -0.1109 -0.1785  0.2188
 7454TIP3    H243854   2.875   5.889   4.082 -1.0884  1.4476  0.1770
 7455TIP3   OH243855   6.569   3.540  13.139  0.4189 -0.3420 -0.1966
 7455TIP3    H143856   6.504   3.517  13.205  1.6898 -3.7814  0.0850
 7455TIP3    H243857   6.644   3.573  13.189  0.6777 -1.1393 -0.0400
 7456TIP3   OH243858   3.189   4.774  13.253 -0.3529 -0.3524 -0.1340
 7456TIP3    H143859   3.205   4.680  13.244 -2.5086 -0.8465  0.4159
 7456TIP3    H243860   3.156   4.801  13.167 -2.5631 -0.8233  0.4867
 7457TIP3   OH243861   1.453   4.978   3.850  0.4554 -0.4643  0.0417
 7457TIP3    H143862   1.459   5.040   3.778  1.4352 -0.2221  0.3210
 7457TIP3    H243863   1.540   4.940   3.857 -0.8377 -4.6559 -2.5410
 7458TIP3   OH243864   1.554   1.015  10.642  0.1589  0.1832  0.2514
 7458TIP3    H143865   1.530   0.931  10.683  2.5369  0.0434  1.5596
 7458TIP3    H243866   1.637   0.997  10.598 -0.5156  1.2914 -1.6028
 7459TIP3   OH243867   4.744   4.517   4.982 -1.0193  0.0938 -0.2069
 7459TIP3    H143868   4.804   4.585   5.011 -0.9679 -0.3282  0.7403
 7459TIP3    H243869   4.727   4.536   4.890 -0.9044  1.2962  0.0122
 7460TIP3   OH243870   2.054   1.148  15.310  0.7276 -0.4979  0.2496
 7460TIP3    H143871   2.049   1.223  15.370 -3.0456 -0.5234  0.2053
 7460TIP3    H243872   2.075   1.074  15.367  1.5357  0.1162  0.7784
 7461TIP3   OH243873   4.048   4.013  12.563  0.7386 -0.2402 -0.2218
 7461TIP3    H143874   4.088   3.990  12.647  0.7800  0.4832 -0.0339
 7461TIP3    H243875   3.969   4.062  12.587  2.1420  2.3436 -0.5757
 7462TIP3   OH243876   0.345   2.364   1.953  0.2746 -0.3382  0.4342
 7462TIP3    H143877   0.290   2.288   1.936  0.0872 -0.2616  0.6775
 7462TIP3    H243878   0.432   2.339   1.922  0.0615 -0.3866 -0.1361
 7463TIP3   OH243879   5.635   5.381   2.204 -0.3642 -0.7505  0.6586
 7463TIP3    H143880   5.648   5.303   2.257 -1.2398 -1.6046 -0.3393
 7463TIP3    H243881   5.542   5.381   2.183 -0.4890  0.8555  1.0582
 7464TIP3   OH243882   5.696   6.818  17.286  0.0145 -0.1419 -0.0072
 7464TIP3    H143883   5.755   6.763  17.338  0.6711  0.3226 -0.2606
 7464TIP3    H243884   5.629   6.757  17.254 -0.6933 -0.3686  1.7765
 7465TIP3   OH243885   0.109   0.662  13.665 -0.1373  0.8029 -0.1769
 7465TIP3    H143886   0.018   0.637  13.681  0.1611 -0.0367  0.2111
 7465TIP3    H243887   0.161   0.601  13.717  0.6625  1.1337 -0.5716
 7466TIP3   OH243888   6.679   0.776   1.374  0.2182 -0.1302  0.5026
 7466TIP3    H143889   6.674   0.799   1.281  1.6941 -1.0938  0.1421
 7466TIP3    H243890   6.736   0.843   1.412  0.3491 -0.2498  0.5179
 7467TIP3   OH243891   6.233   3.616  13.395 -0.3294 -0.3833 -0.5432
 7467TIP3    H143892   6.224   3.524  13.418  0.1100 -0.5625 -1.0806
 7467TIP3    H243893   6.149   3.655  13.420 -0.4925 -0.9117 -0.2528
 7468TIP3   OH243894   2.608   5.853  14.204  0.3855 -0.6705  0.5319
 7468TIP3    H143895   2.647   5.799  14.135 -1.2441 -0.3033 -0.7602
 7468TIP3    H243896   2.578   5.790  14.269 -0.5282 -1.2790 -0.4408
 7469TIP3   OH243897   6.480   3.751  15.146 -0.2940 -0.2026 -0.2460
 7469TIP3    H143898   6.455   3.758  15.054 -1.9762 -1.8102  0.0270
 7469TIP3    H243899   6.434   3.673  15.177  0.5857  0.0611  1.8506
 7470TIP3   OH243900   5.629   2.559  14.360 -0.4125  0.2668  0.1858
 7470TIP3    H143901   5.576   2.491  14.400 -0.6537  0.3451  0.0046
 7470TIP3    H243902   5.615   2.637  14.414 -0.2572  0.2148  0.3028
 7471TIP3   OH243903   2.262   3.474   0.964 -0.0450 -0.0382 -0.2759
 7471TIP3    H143904   2.344   3.428   0.947  1.1028  0.8832  2.2261
 7471TIP3    H243905   2.261   3.486   1.059 -0.8322  3.9935 -0.6268
 7472TIP3   OH243906   2.690   2.094   0.161  0.4676 -0.0466  0.9688
 7472TIP3    H143907   2.731   2.017   0.120  1.7186  0.5509  1.0732
 7472TIP3    H243908   2.604   2.062   0.189 -0.5770 -0.4975 -2.2139
 7473TIP3   OH243909   4.510   4.427  13.698 -0.5132  0.2593 -0.0776
 7473TIP3    H143910   4.536   4.498  13.756  0.7340  0.4199 -0.7938
 7473TIP3    H243911   4.433   4.460  13.652 -0.2090  0.9658 -0.0813
 7474TIP3   OH243912   5.546   6.821   3.464 -0.7350 -0.3730 -0.1891
 7474TIP3    H143913   5.630   6.823   3.418 -1.5659  0.0961 -1.7428
 7474TIP3    H243914   5.520   6.728   3.463 -1.6432 -0.1494 -2.4335
 7475TIP3   OH243915   4.514   1.044   6.065 -0.2831  0.2908 -0.7375
 7475TIP3    H143916   4.604   1.061   6.035 -0.5026  1.0080 -1.0260
 7475TIP3    H243917   4.521   1.045   6.161 -0.0462  0.7336 -0.7549
 7476TIP3   OH243918   2.658   0.559  12.296 -0.4825 -0.3712 -0.2851
 7476TIP3    H143919   2.572   0.571  12.257  0.0821  2.1811 -0.9637
 7476TIP3    H243920   2.715   0.536  12.223  0.1363  2.1153 -0.6744
 7477TIP3   OH243921   3.741   3.422  10.426 -0.2121  0.2689 -0.2933
 7477TIP3    H143922   3.689   3.468  10.360  0.4350  0.1689 -0.8777
 7477TIP3    H243923   3.762   3.489  10.491 -1.8896  0.1095  0.4838
 7478TIP3   OH243924   3.658   5.033   4.878 -0.1526 -0.0069  0.4373
 7478TIP3    H143925   3.627   5.045   4.967 -0.5377  5.4052 -0.1102
 7478TIP3    H243926   3.582   5.051   4.823  0.9269  0.4426 -0.9882
 7479TIP3   OH243927   6.157   3.060  17.296 -0.2284 -0.1286  0.1876
 7479TIP3    H143928   6.144   2.968  17.272  0.7957 -0.0672 -0.6650
 7479TIP3    H243929   6.070   3.099  17.289 -0.7583 -1.1038  0.9568
 7480TIP3   OH243930   6.318   2.901  15.095  0.3380 -0.3670 -0.0194
 7480TIP3    H143931   6.404   2.912  15.053 -0.3134  3.7988 -0.7481
 7480TIP3    H243932   6.332   2.931  15.185 -0.2017 -0.2241  0.0188
 7481TIP3   OH243933   6.396   0.301  15.586 -0.2665  0.5881  0.3988
 7481TIP3    H143934   6.348   0.336  15.662  0.6659  0.6134  0.9928
 7481TIP3    H243935   6.488   0.323  15.604  0.1523 -0.7821  0.0281
 7482TIP3   OH243936   6.505   2.537  16.400 -0.2988 -0.5138  0.8356
 7482TIP3    H143937   6.596   2.515  16.380  0.1066  1.0399  0.8573
 7482TIP3    H243938   6.467   2.559  16.315 -0.2765  0.1108  0.9811
 7483TIP3   OH243939   0.828   5.646  12.517 -0.0717  0.1861  0.0911
 7483TIP3    H143940   0.810   5.649  12.423 -0.2893  1.3413  0.1574
 7483TIP3    H243941   0.756   5.593  12.552 -0.8692  1.0269 -0.2166
 7484TIP3   OH243942   6.342   6.125  11.980  0.1474  0.3142  0.4388
 7484TIP3    H143943   6.254   6.150  11.953  0.3387 -0.0304 -0.5284
 7484TIP3    H243944   6.351   6.161  12.069 -1.0794  0.0577  0.6816
 7485TIP3   OH243945   5.633   4.554   0.014 -0.5919 -0.1717 -0.8522
 7485TIP3    H143946   5.674   4.506   0.086  0.8267  3.4907  1.0888
 7485TIP3    H243947   5.541   4.559   0.037 -0.1077  1.2105  1.0097
 7486TIP3   OH243948   5.017   3.335   1.881  0.8666 -0.2060  0.6502
 7486TIP3    H143949   5.062   3.269   1.934  0.1238 -1.4048 -0.1529
 7486TIP3    H243950   5.068   3.341   1.801  0.1701 -0.8594  0.1401
 7487TIP3   OH243951   4.688   4.059   3.018  0.1758 -0.4390 -0.2572
 7487TIP3    H143952   4.636   3.984   3.047 -1.0906  0.2995 -0.5422
 7487TIP3    H243953   4.758   4.021   2.966  0.2142 -1.4990  0.5397
 7488TIP3   OH243954   1.658   1.030   4.844  0.6180 -0.7461 -0.2574
 7488TIP3    H143955   1.602   1.100   4.879 -1.5478 -1.7325 -1.5280
 7488TIP3    H243956   1.743   1.044   4.885  0.1309  2.3124 -0.0560
 7489TIP3   OH243957   2.268   4.552  15.096 -0.4565 -0.4610 -1.1422
 7489TIP3    H143958   2.230   4.516  15.016 -0.9571 -0.6078 -0.8361
 7489TIP3    H243959   2.271   4.647  15.080 -0.2936 -0.5136 -1.4424
 7490TIP3   OH243960   6.645   5.212  12.871 -0.1796 -0.4078  0.0449
 7490TIP3    H143961   6.711   5.145  12.854 -0.0642 -0.7070  1.5240
 7490TIP3    H243962   6.561   5.167  12.859 -0.1259 -0.2775 -0.8993
 7491TIP3   OH243963   4.938   3.581   4.283  0.0862  0.9476  0.0968
 7491TIP3    H143964   4.868   3.516   4.282 -1.2907  2.3880 -1.2955
 7491TIP3    H243965   5.010   3.539   4.237  0.5699 -0.9075  2.3437
 7492TIP3   OH243966   2.749   0.194  14.981 -0.8277  0.1690  0.4791
 7492TIP3    H143967   2.708   0.156  15.059 -1.5552  1.4568  0.7497
 7492TIP3    H243968   2.680   0.193  14.915 -0.0925 -1.2993 -0.3076
 7493TIP3   OH243969   4.114   0.860   1.481 -0.8266 -0.5365  0.0014
 7493TIP3    H143970   4.074   0.879   1.566  0.2738  1.2497  0.1823
 7493TIP3    H243971   4.207   0.848   1.500 -0.5833 -0.2063 -0.9132
 7494TIP3   OH243972   2.550   2.124   0.567 -0.3676 -0.5066 -0.3138
 7494TIP3    H143973   2.607   2.180   0.513 -1.9932 -0.3759 -2.0017
 7494TIP3    H243974   2.587   2.036   0.556 -0.0328 -0.3195 -0.7538
 7495TIP3   OH243975   4.307   5.963   5.394 -0.5293 -0.0874 -0.1112
 7495TIP3    H143976   4.357   5.979   5.475 -1.3683  1.5470  0.1198
 7495TIP3    H243977   4.306   5.867   5.385 -0.9388 -0.3437  2.1485
 7496TIP3   OH243978   5.967   6.753   3.997  0.1945 -0.7188 -0.4691
 7496TIP3    H143979   5.990   6.818   4.064  2.0417  1.1177 -2.7125
 7496TIP3    H243980   5.914   6.801   3.934  0.8890 -1.5835 -1.7658
 7497TIP3   OH243981   4.317   0.062   5.349  0.5586  0.0100  0.1010
 7497TIP3    H143982   4.292  -0.030   5.360  2.1372 -0.3002  1.3990
 7497TIP3    H243983   4.301   0.101   5.435  0.9617  0.6868 -0.1308
 7498TIP3   OH243984   1.469   4.668   2.800  0.4171  0.2306 -0.7364
 7498TIP3    H143985   1.477   4.718   2.882 -0.2679  0.6466 -0.9112
 7498TIP3    H243986   1.558   4.638   2.781  0.2385 -2.2001  1.5910
 7499TIP3   OH243987   0.375   4.843   4.833 -0.1371  0.1041  0.5643
 7499TIP3    H143988   0.328   4.858   4.915 -0.3087 -1.1896  0.7197
 7499TIP3    H243989   0.380   4.748   4.825  1.4044  0.2077 -0.0658
 7500TIP3   OH243990   0.068   2.468  16.514  0.1577 -0.5336  0.0326
 7500TIP3    H143991   0.161   2.473  16.536  0.0352 -0.0148  0.4651
 7500TIP3    H243992   0.066   2.447  16.421  0.7641  2.7641 -0.8426
 7501TIP3   OH243993   1.141   3.434  14.592  0.3926 -0.0335 -0.6639
 7501TIP3    H143994   1.056   3.473  14.571  0.1534  0.3036  0.8216
 7501TIP3    H243995   1.145   3.356  14.537 -1.4301 -0.7262  0.0830
 7502TIP3   OH243996   6.354   1.080  12.621 -0.4446 -0.6400 -0.0968
 7502TIP3    H143997   6.378   0.991  12.594  1.6084 -0.2514  0.2311
 7502TIP3    H243998   6.359   1.131  12.541  2.0892 -0.1764  0.2538
 7503TIP3   OH243999   6.348   0.479   0.687 -0.0924  0.2502  0.0875
 7503TIP3    H144000   6.418   0.430   0.732 -0.2849 -0.0062  0.1122
 7503TIP3    H244001   6.280   0.414   0.673 -0.4396  0.5634  0.3089
 7504TIP3   OH244002   4.209   1.295   3.723 -0.1968  0.5607 -0.2295
 7504TIP3    H144003   4.285   1.239   3.735  0.0899  0.9184 -0.3518
 7504TIP3    H244004   4.242   1.370   3.673 -0.6671  0.6335 -0.4356
 7505TIP3   OH244005   5.302   4.005  11.259  0.3046  0.0685  0.2872
 7505TIP3    H144006   5.361   3.960  11.319  3.8385  2.2328 -1.2629
 7505TIP3    H244007   5.297   3.947  11.183  1.4217  0.3327 -0.0105
 7506TIP3   OH244008   1.350   4.552  15.107  0.3366 -0.0339  0.7171
 7506TIP3    H144009   1.297   4.617  15.060  1.3141  1.0923  1.1192
 7506TIP3    H244010   1.305   4.469  15.092  0.0360  0.4540 -1.3094
 7507TIP3   OH244011   0.929   5.711  11.986  0.7868  0.1751  0.2323
 7507TIP3    H144012   1.010   5.677  11.947  0.0745 -1.3566 -0.0016
 7507TIP3    H244013   0.859   5.668  11.936 -0.1887  1.6385  0.2786
 7508TIP3   OH244014   2.132   3.379   2.698 -0.2348  0.0561  0.3463
 7508TIP3    H144015   2.049   3.384   2.651 -0.1651  0.2764  0.2464
 7508TIP3    H244016   2.197   3.354   2.632 -0.5262 -2.0532  0.7751
 7509TIP3   OH244017   1.790   5.687   4.250 -0.0247 -0.1320  0.5264
 7509TIP3    H144018   1.860   5.705   4.187  0.7936 -2.0906  0.7990
 7509TIP3    H244019   1.780   5.769   4.298  0.2845  0.9850 -1.2150
 7510TIP3   OH244020   1.852   3.551  16.200 -0.1087  0.3212 -0.5839
 7510TIP3    H144021   1.857   3.456  16.214  0.6550  0.3809 -0.4175
 7510TIP3    H244022   1.935   3.585  16.232  0.4825  0.8136 -2.4694
 7511TIP3   OH244023   3.353   2.459  17.021 -0.0603 -0.0600  0.5198
 7511TIP3    H144024   3.326   2.542  17.061  0.3852  0.0295  0.6337
 7511TIP3    H244025   3.411   2.484  16.949  0.7383 -0.2993  1.0667
 7512TIP3   OH244026   1.088   6.794   3.584 -0.1819 -0.1457 -0.0360
 7512TIP3    H144027   1.097   6.890   3.585 -1.0878 -0.0552 -0.4899
 7512TIP3    H244028   1.015   6.776   3.643  0.1964 -0.5956  0.3105
 7513TIP3   OH244029   0.454   1.567  11.511  0.0795  0.1698 -0.0115
 7513TIP3    H144030   0.416   1.646  11.471  1.1219  0.7579  0.1006
 7513TIP3    H244031   0.390   1.499  11.496  0.3127  0.4016 -2.5422
 7514TIP3   OH244032   6.069   1.413   3.130  0.1692  0.6791  0.2305
 7514TIP3    H144033   6.043   1.504   3.117  0.2319  0.6379 -0.1815
 7514TIP3    H244034   6.000   1.362   3.086  0.7555  0.5588 -0.5739
 7515TIP3   OH244035   6.567   6.141   0.611  0.6473 -0.0981  0.2115
 7515TIP3    H144036   6.618   6.076   0.660  2.1905  0.4622 -0.6076
 7515TIP3    H244037   6.476   6.114   0.624  1.2495 -2.8699 -0.6517
 7516TIP3   OH244038   2.892   5.915   3.841 -0.3446 -0.1351 -0.6396
 7516TIP3    H144039   2.961   5.957   3.790 -1.4293  0.7098 -1.4838
 7516TIP3    H244040   2.832   5.986   3.864 -1.0525 -0.8695 -0.1425
 7517TIP3   OH244041   4.786   1.550   4.266 -0.0673 -0.2410 -0.0462
 7517TIP3    H144042   4.710   1.492   4.260  0.5153 -1.0182  0.0306
 7517TIP3    H244043   4.829   1.525   4.348  1.3974 -1.2128 -1.0677
 7518TIP3   OH244044   6.613   3.366  17.265 -0.7771  0.2376  0.3382
 7518TIP3    H144045   6.582   3.313  17.191  0.6483  0.5605 -0.5384
 7518TIP3    H244046   6.689   3.318  17.298 -1.4469  0.0504  1.6881
 7519TIP3   OH244047   3.571   6.520  15.960  0.5118  0.0571 -0.1164
 7519TIP3    H144048   3.597   6.601  16.004 -2.4787  0.5644  0.9047
 7519TIP3    H244049   3.598   6.450  16.019 -1.4655  0.6281  1.5610
 7520TIP3   OH244050   0.633   5.735   3.895  0.1606  0.1754 -0.3769
 7520TIP3    H144051   0.610   5.823   3.865  2.5264  1.0047  0.0276
 7520TIP3    H244052   0.550   5.690   3.903 -1.0223  1.9003 -2.0399
 7521TIP3   OH244053   2.729   5.312   6.468  0.7329 -0.4550  0.0571
 7521TIP3    H144054   2.768   5.360   6.395 -0.8484 -1.8978 -1.8781
 7521TIP3    H244055   2.642   5.350   6.478  0.5108 -1.0331  0.4039
 7522TIP3   OH244056   3.929   6.007  14.781  0.0448 -0.5304 -0.1750
 7522TIP3    H144057   3.894   5.959  14.706  1.1448 -0.5970 -0.6674
 7522TIP3    H244058   3.865   6.077  14.797 -0.4429 -0.8062 -0.8621
 7523TIP3   OH244059   3.059   6.217   4.558  0.4353 -0.9485 -0.1564
 7523TIP3    H144060   3.013   6.186   4.636 -2.4912 -2.6694 -2.3691
 7523TIP3    H244061   3.110   6.142   4.529 -0.2619 -1.0833 -1.0831
 7524TIP3   OH244062   2.660   0.228   4.797  0.1757 -0.2620 -0.6867
 7524TIP3    H144063   2.683   0.254   4.886  0.5168  0.7662 -1.0550
 7524TIP3    H244064   2.608   0.149   4.807  1.7103 -1.1922  0.3401
 7525TIP3   OH244065   2.108   3.815  14.652  0.3644  0.2240  0.8066
 7525TIP3    H144066   2.020   3.837  14.619  0.1186 -1.7517 -0.0038
 7525TIP3    H244067   2.116   3.865  14.733 -0.7330  1.9246 -0.0766
 7526TIP3   OH244068   6.199   6.479   0.687  0.2740  0.3223 -0.1558
 7526TIP3    H144069   6.196   6.399   0.739 -1.3801 -0.1907 -0.9849
 7526TIP3    H244070   6.188   6.450   0.597  1.2819  1.3619 -0.6505
 7527TIP3   OH244071   0.721   4.443   6.096 -0.0108  0.5385  0.1511
 7527TIP3    H144072   0.785   4.509   6.124 -0.3899  0.4679  1.2289
 7527TIP3    H244073   0.637   4.482   6.119 -0.2375 -0.3171  0.7973
 7528TIP3   OH244074   6.065   3.080  11.982  0.0059 -0.1413  0.2186
 7528TIP3    H144075   5.975   3.090  11.951 -0.5517 -0.3281  1.6788
 7528TIP3    H244076   6.088   3.165  12.018  0.4378 -0.0822 -0.1844
 7529TIP3   OH244077   2.479   1.799  11.506 -0.1100  0.2187 -0.3677
 7529TIP3    H144078   2.391   1.831  11.525 -0.0611  0.4807 -0.5818
 7529TIP3    H244079   2.530   1.877  11.486 -0.1602 -0.0308 -1.5722
 7530TIP3   OH244080   0.764   4.335  11.618 -0.0688  0.0710 -0.4448
 7530TIP3    H144081   0.746   4.315  11.527  1.3317  0.7072 -0.9064
 7530TIP3    H244082   0.715   4.270  11.668  0.9839 -1.7954 -1.7163
 7531TIP3   OH244083   6.236   6.118  10.647  0.6205  0.3009 -0.2222
 7531TIP3    H144084   6.245   6.030  10.610 -0.3429  0.1223 -0.0604
 7531TIP3    H244085   6.311   6.167  10.611  0.8299 -0.4155 -0.7931
 7532TIP3   OH244086   3.436   2.324   5.327  0.1829  0.4040 -0.5470
 7532TIP3    H144087   3.358   2.271   5.346  0.1268  0.4957 -0.5161
 7532TIP3    H244088   3.508   2.277   5.368 -0.2642  1.8531  2.1511
 7533TIP3   OH244089   2.784   3.534   0.057 -0.3030 -0.7209 -0.1761
 7533TIP3    H144090   2.764   3.562  -0.032 -0.5857 -0.1857  0.0478
 7533TIP3    H244091   2.876   3.556   0.070 -0.7204  0.8659  0.2582
 7534TIP3   OH244092   4.000   5.081   2.816  0.5371  0.7849 -0.2144
 7534TIP3    H144093   3.945   5.008   2.844  2.1074 -0.8764 -1.2007
 7534TIP3    H244094   4.043   5.111   2.896  0.2536  0.2701  0.1365
 7535TIP3   OH244095   3.701   6.069   5.882  0.4543 -0.0535  0.2370
 7535TIP3    H144096   3.630   6.043   5.939  0.2069 -1.8873 -0.8406
 7535TIP3    H244097   3.723   6.158   5.911 -1.0638 -0.1083  1.7364
 7536TIP3   OH244098   0.439   2.996   4.603 -0.0039 -0.1716  0.2607
 7536TIP3    H144099   0.372   3.029   4.543  1.3808  0.9368 -0.7579
 7536TIP3    H244100   0.393   2.931   4.657 -2.2275  1.5198  0.5746
 7537TIP3   OH244101   0.255   1.805  10.858  0.4149 -0.3137 -0.5865
 7537TIP3    H144102   0.260   1.710  10.869 -1.2615 -0.5509 -1.5467
 7537TIP3    H244103   0.175   1.819  10.808  0.4010  1.6558 -0.0778
 7538TIP3   OH244104   2.488   0.593   6.412  0.5605  0.2435  0.5626
 7538TIP3    H144105   2.494   0.518   6.471  0.1454  0.6158  1.0810
 7538TIP3    H244106   2.579   0.615   6.393  0.7376  0.9338  2.1097
 7539TIP3   OH244107   2.487   1.027  13.124  0.3128  0.1376 -0.1389
 7539TIP3    H144108   2.541   1.106  13.119 -1.5391  1.4006 -2.8145
 7539TIP3    H244109   2.411   1.054  13.176  0.8531 -0.7650  1.1864
 7540TIP3   OH244110   3.968   4.935   5.456  0.1255 -0.3692 -0.3717
 7540TIP3    H144111   4.024   4.908   5.383  0.2829 -0.0209 -0.3811
 7540TIP3    H244112   4.022   4.996   5.507  0.4129 -1.4508  0.6578
 7541TIP3   OH244113   2.117   1.371  12.410 -0.1658 -0.1681 -0.0988
 7541TIP3    H144114   2.210   1.351  12.412 -0.2304 -0.5681 -0.8177
 7541TIP3    H244115   2.087   1.338  12.326 -0.9247  0.1147  0.0521
 7542TIP3   OH244116   6.302   2.343  13.374 -0.0429  0.0839 -0.3180
 7542TIP3    H144117   6.263   2.361  13.459  0.9294  0.7693  0.0024
 7542TIP3    H244118   6.329   2.251  13.379 -0.6985 -0.1084 -0.1883
 7543TIP3   OH244119   1.271   1.195   0.080 -0.1165 -0.5334  0.1190
 7543TIP3    H144120   1.176   1.183   0.091 -0.2414 -1.9214 -1.9516
 7543TIP3    H244121   1.303   1.212   0.169 -2.2234 -0.5746  0.9483
 7544TIP3   OH244122   4.113   1.035  13.688 -0.0988 -0.1122 -0.5880
 7544TIP3    H144123   4.195   0.986  13.687 -0.4773 -0.7739 -0.4672
 7544TIP3    H244124   4.045   0.967  13.689 -0.6373  0.4188 -0.2764
 7545TIP3   OH244125   6.656   5.828  11.782  0.3049 -0.2494  0.2970
 7545TIP3    H144126   6.710   5.753  11.808 -1.9219 -2.4220 -0.9716
 7545TIP3    H244127   6.589   5.834  11.850 -0.8317 -0.8762 -0.7368
 7546TIP3   OH244128   3.262   2.053  11.144  0.1278 -0.5902 -0.1676
 7546TIP3    H144129   3.349   2.089  11.161 -1.0452  2.5245 -0.0868
 7546TIP3    H244130   3.268   2.014  11.057  0.9664  2.2711 -1.5074
 7547TIP3   OH244131   4.067   0.006  12.085 -0.0211 -0.6944  0.5088
 7547TIP3    H144132   4.088   0.099  12.086 -0.8464 -0.4621 -1.2264
 7547TIP3    H244133   4.128  -0.033  12.022 -1.1654 -0.9145 -0.5022
 7548TIP3   OH244134   4.159   3.762   5.945 -0.1544 -0.0122  0.0061
 7548TIP3    H144135   4.250   3.791   5.948 -0.1762  0.0010  0.8482
 7548TIP3    H244136   4.157   3.684   6.000 -0.9070  0.7476  1.0990
 7549TIP3   OH244137   5.554   1.549  12.766 -0.1541  0.0713 -0.4233
 7549TIP3    H144138   5.604   1.604  12.706  1.4676 -1.0843 -0.1954
 7549TIP3    H244139   5.620   1.494  12.809 -1.3124  0.4929  2.0359
 7550TIP3   OH244140   5.409   5.882  11.101 -0.0815  0.5335 -0.1188
 7550TIP3    H144141   5.501   5.895  11.078 -0.4748  1.1320 -1.4713
 7550TIP3    H244142   5.379   5.812  11.042 -0.4322  0.1732  0.4794
 7551TIP3   OH244143   4.858   0.578   4.529 -0.3137  0.5641  0.3100
 7551TIP3    H144144   4.816   0.499   4.563  1.1155 -0.3979 -0.0788
 7551TIP3    H244145   4.803   0.650   4.559 -0.8200 -0.4739  1.9434
 7552TIP3   OH244146   1.391   0.774  11.455  0.0309 -0.0065 -0.1604
 7552TIP3    H144147   1.296   0.763  11.452  0.0955 -0.4234 -1.3051
 7552TIP3    H244148   1.426   0.685  11.446  0.5283  0.1510  0.1667
 7553TIP3   OH244149   3.505   4.574   6.220  0.5026  0.3361  0.2600
 7553TIP3    H144150   3.593   4.581   6.183  0.6956  0.9019  0.8049
 7553TIP3    H244151   3.455   4.527   6.154  1.1168  0.3568 -0.2317
 7554TIP3   OH244152   3.772   5.459  13.000  0.3130  0.2167 -0.1354
 7554TIP3    H144153   3.695   5.509  13.030  0.2606  0.3732 -0.5321
 7554TIP3    H244154   3.846   5.499  13.046 -0.0368 -1.1944  1.8200
 7555TIP3   OH244155   1.313   3.885   0.623 -0.2728  0.4879 -0.2297
 7555TIP3    H144156   1.288   3.967   0.580  2.0812  0.8401 -1.0351
 7555TIP3    H244157   1.258   3.819   0.581 -1.2416  1.4563 -0.5296
 7556TIP3   OH244158   3.274   3.549   1.722  0.7499  0.0082 -0.0501
 7556TIP3    H144159   3.278   3.587   1.810 -1.1001 -0.3137  0.2169
 7556TIP3    H244160   3.257   3.623   1.664  0.2235  0.0010  0.0901
 7557TIP3   OH244161   6.010   5.719  12.706  0.3320  0.6284  0.5902
 7557TIP3    H144162   5.973   5.783  12.645  1.9539  1.1144  0.0763
 7557TIP3    H244163   6.104   5.727  12.695  0.6436  0.1557  2.6175
 7558TIP3   OH244164   1.015   3.141   3.643  0.1473 -0.0952 -0.3415
 7558TIP3    H144165   1.074   3.071   3.614 -0.6377 -0.2753 -1.5691
 7558TIP3    H244166   0.930   3.099   3.652 -0.6467  0.8901 -2.3816
 7559TIP3   OH244167   0.251   2.699  14.867  0.2509 -0.3967  0.7354
 7559TIP3    H144168   0.190   2.673  14.798  0.0825 -1.0719  1.1398
 7559TIP3    H244169   0.314   2.627  14.873  0.6469 -0.0497  0.8498
 7560TIP3   OH244170   4.281   0.355   1.304  0.2245  0.1659 -0.3524
 7560TIP3    H144171   4.281   0.422   1.372  0.8791  0.6284 -0.7891
 7560TIP3    H244172   4.296   0.273   1.351 -0.6426  0.3102  0.1938
 7561TIP3   OH244173   1.959   0.609  16.753 -0.1435  0.5575  0.2750
 7561TIP3    H144174   1.905   0.604  16.832 -0.9392 -0.7473 -0.3197
 7561TIP3    H244175   2.030   0.547  16.769  0.6543  1.5290  0.6339
 7562TIP3   OH244176   1.619   2.634   2.443 -0.0805 -0.5657 -0.1484
 7562TIP3    H144177   1.536   2.668   2.476 -0.6359 -0.4320 -1.6180
 7562TIP3    H244178   1.617   2.541   2.467  1.3043  0.2272  3.5975
 7563TIP3   OH244179   1.406   5.790   2.973 -0.6779  0.1291  0.5645
 7563TIP3    H144180   1.322   5.744   2.974 -1.3019  1.1055 -1.3920
 7563TIP3    H244181   1.447   5.767   3.056 -2.3401 -1.3592  1.0375
 7564TIP3   OH244182   3.884   0.742   5.491  0.1043  0.1311  0.1750
 7564TIP3    H144183   3.871   0.726   5.398  2.3511  1.0601 -0.3604
 7564TIP3    H244184   3.952   0.680   5.517 -0.4298 -0.0524  1.1976
 7565TIP3   OH244185   0.976   4.475   3.186  0.3578  0.2283 -0.0762
 7565TIP3    H144186   0.926   4.409   3.234 -0.0500 -0.2703 -1.1571
 7565TIP3    H244187   0.909   4.533   3.149  0.5407 -0.4252 -1.5055
 7566TIP3   OH244188   6.275   4.654  17.189  0.3168  0.7402 -0.3502
 7566TIP3    H144189   6.218   4.707  17.134 -0.4515 -0.5134 -0.7967
 7566TIP3    H244190   6.218   4.587  17.226  1.3839 -0.2250 -0.3820
 7567TIP3   OH244191   3.969   4.475   2.929 -0.1951  0.6377  0.0666
 7567TIP3    H144192   3.962   4.396   2.983  1.6731  0.5956  0.3129
 7567TIP3    H244193   3.962   4.442   2.839  2.1829 -0.1115  0.0794
 7568TIP3   OH244194   5.338   1.512  15.968  0.0983 -0.0320  0.1553
 7568TIP3    H144195   5.337   1.574  15.895  0.6853 -0.1693  0.0268
 7568TIP3    H244196   5.246   1.489  15.980  0.0904 -0.9926 -1.3899
 7569TIP3   OH244197   5.541   2.279  16.371 -0.3195 -0.9958 -0.0911
 7569TIP3    H144198   5.499   2.361  16.399  0.8021 -0.7166  0.8394
 7569TIP3    H244199   5.630   2.305  16.347 -0.4263 -1.7020 -1.3203
 7570TIP3   OH244200   2.920   4.766  16.093  0.4133  0.0509 -0.0984
 7570TIP3    H144201   2.944   4.726  16.177  0.8203  1.2550  0.3757
 7570TIP3    H244202   2.969   4.716  16.028  2.2279  0.7832  0.6272
 7571TIP3   OH244203   5.801   0.441  13.519  0.5958 -0.0572  0.3062
 7571TIP3    H144204   5.759   0.444  13.605  2.2423 -0.0815  1.1510
 7571TIP3    H244205   5.738   0.484  13.460 -0.7378 -0.4019  1.4258
 7572TIP3   OH244206   1.283   4.847   4.620 -0.1284  0.2859  0.2000
 7572TIP3    H144207   1.301   4.845   4.714  0.8063 -0.2566  0.0218
 7572TIP3    H244208   1.358   4.803   4.581 -1.5453 -1.5161 -0.6477
 7573TIP3   OH244209   3.708   4.253   6.173 -0.5406 -0.7112  0.8122
 7573TIP3    H144210   3.620   4.248   6.209 -0.2619 -0.9399  1.4643
 7573TIP3    H244211   3.695   4.262   6.078 -1.2744 -0.0638  0.9672
 7574TIP3   OH244212   5.750   6.186  15.845 -0.1854 -0.4390 -0.3064
 7574TIP3    H144213   5.813   6.116  15.830 -0.9848 -0.9901 -1.1861
 7574TIP3    H244214   5.719   6.210  15.757 -0.9577  0.0410  0.0841
 7575TIP3   OH244215   0.174   2.686  14.223  0.2784  0.2192  0.5179
 7575TIP3    H144216   0.159   2.688  14.318  0.4157 -1.5566  0.6099
 7575TIP3    H244217   0.114   2.619  14.190  0.9401  0.1078 -0.5066
 7576TIP3   OH244218   2.221   2.806   1.368  0.0213 -0.6976 -0.1408
 7576TIP3    H144219   2.218   2.734   1.431 -1.4642 -0.4636  0.0834
 7576TIP3    H244220   2.274   2.873   1.411  1.1012 -1.4987 -0.1966
 7577TIP3   OH244221   3.878   1.049  16.574  0.5389 -0.0804 -0.4773
 7577TIP3    H144222   3.823   1.054  16.496  1.7106  2.8931 -1.2528
 7577TIP3    H244223   3.928   0.968  16.563 -1.2028 -1.0929 -1.4142
 7578TIP3   OH244224   6.592   2.059   1.028  0.1656  0.1046 -0.1946
 7578TIP3    H144225   6.656   2.091   1.091  0.1853  0.9012 -0.6058
 7578TIP3    H244226   6.626   1.974   0.999  0.0101 -0.4009  1.0719
 7579TIP3   OH244227   6.387   4.511  15.360  0.0951  0.0007  0.4441
 7579TIP3    H144228   6.341   4.452  15.301  2.3143 -1.3810 -0.0161
 7579TIP3    H244229   6.418   4.582  15.303 -1.6494  1.1306  0.8157
 7580TIP3   OH244230   3.240   3.995   1.168  0.3914  0.4568  0.2295
 7580TIP3    H144231   3.269   3.973   1.079 -0.0064  0.9055 -0.0149
 7580TIP3    H244232   3.310   4.050   1.203  0.8164 -0.1884  0.4024
 7581TIP3   OH244233   0.669   1.934  13.475 -0.0913  0.7758  0.6805
 7581TIP3    H144234   0.659   1.923  13.570 -0.1330 -2.4206  0.4238
 7581TIP3    H244235   0.610   2.007  13.453  0.2419  1.8841  3.1210
 7582TIP3   OH244236   3.512   4.020  11.980 -0.9588  0.1810  0.2236
 7582TIP3    H144237   3.515   4.054  11.891  0.9328 -1.6321 -0.5041
 7582TIP3    H244238   3.579   4.070  12.027  0.5166 -1.1366 -0.3629
 7583TIP3   OH244239   5.130   0.257   3.141 -0.2395  0.1505 -0.6845
 7583TIP3    H144240   5.138   0.278   3.234 -1.4411  0.1559 -0.5735
 7583TIP3    H244241   5.038   0.236   3.128 -0.3757  1.3762 -2.1163
 7584TIP3   OH244242   4.950   2.145   4.820  0.0711  0.1946 -0.4946
 7584TIP3    H144243   4.905   2.169   4.739  0.7615 -1.3668 -1.4072
 7584TIP3    H244244   4.994   2.062   4.799  1.1387  0.2848  1.1677
 7585TIP3   OH244245   4.333   6.225  11.406  0.2268  0.0085 -0.2357
 7585TIP3    H144246   4.363   6.248  11.494 -0.3581  0.1750 -0.0701
 7585TIP3    H244247   4.294   6.305  11.372  0.5289 -0.0327 -0.6823
 7586TIP3   OH244248   3.748   3.393  11.159  0.3552  0.1435 -1.0722
 7586TIP3    H144249   3.659   3.365  11.141 -0.0472  1.6969 -1.6020
 7586TIP3    H244250   3.803   3.327  11.117 -0.5198 -0.8352 -0.7249
 7587TIP3   OH244251   1.053   4.182   0.976  0.1694  0.1049 -0.2358
 7587TIP3    H144252   1.082   4.124   1.047 -0.3754 -1.9402 -1.5819
 7587TIP3    H244253   1.043   4.268   1.017  2.4193 -0.3937  1.5523
 7588TIP3   OH244254   3.963   0.435  13.428  0.0039  0.7689 -0.1860
 7588TIP3    H144255   3.870   0.438  13.450  0.3413 -0.3547  1.5812
 7588TIP3    H244256   3.969   0.481  13.344 -2.4383 -1.0178 -1.4828
 7589TIP3   OH244257   5.732   1.180   5.789  0.0799 -0.0824  0.0498
 7589TIP3    H144258   5.645   1.160   5.755 -0.3543 -0.4044  1.2947
 7589TIP3    H244259   5.720   1.264   5.835  0.3946 -0.1779  0.3082
 7590TIP3   OH244260   1.895   4.538  13.557 -0.1345 -0.1037 -0.4144
 7590TIP3    H144261   1.928   4.625  13.579 -1.6699 -0.2099  2.9861
 7590TIP3    H244262   1.971   4.491  13.524  1.4862  1.5847  0.6949
 7591TIP3   OH244263   6.392   5.718  16.508 -0.9637  0.0139 -0.8245
 7591TIP3    H144264   6.324   5.781  16.530 -1.3578 -0.6149 -0.2015
 7591TIP3    H244265   6.354   5.664  16.439 -0.5776  0.5200 -1.4511
 7592TIP3   OH244266   4.073   5.344   4.217  0.3544  0.4293 -0.3878
 7592TIP3    H144267   4.152   5.371   4.170  1.0290 -0.5762  0.1174
 7592TIP3    H244268   4.096   5.259   4.255 -1.1538 -0.1171 -0.6404
 7593TIP3   OH244269   6.145   2.724  15.417  0.4120  0.1150  0.1895
 7593TIP3    H144270   6.096   2.758  15.492 -0.2501  0.1180 -0.2461
 7593TIP3    H244271   6.167   2.634  15.443  2.9189  1.0391  1.7171
 7594TIP3   OH244272   2.963   5.142   6.240  0.1904 -0.2735  0.0416
 7594TIP3    H144273   3.033   5.156   6.304 -1.0322  1.2482  1.1212
 7594TIP3    H244274   2.956   5.046   6.234  0.9182 -0.4637  1.5505
 7595TIP3   OH244275   5.350   2.153  13.470 -0.1897 -0.1171 -0.2964
 7595TIP3    H144276   5.372   2.215  13.401  0.5783 -1.5753 -1.4207
 7595TIP3    H244277   5.262   2.177  13.498 -0.9360 -0.0754 -2.4851
 7596TIP3   OH244278   2.284   3.107  15.275 -0.2405 -1.0513 -0.0242
 7596TIP3    H144279   2.277   3.125  15.181  0.1875 -1.9863 -0.2559
 7596TIP3    H244280   2.258   3.015  15.283 -0.6960 -0.8618  0.8422
 7597TIP3   OH244281   5.020   6.694   3.708 -0.2388  0.3512  0.7094
 7597TIP3    H144282   5.028   6.787   3.689  0.8820  0.3901  1.3435
 7597TIP3    H244283   5.017   6.653   3.621  0.5570  0.8717  0.4275
 7598TIP3   OH244284   6.109   5.779  11.398  0.5843 -0.0084  0.2042
 7598TIP3    H144285   6.019   5.778  11.430  1.8250  0.7799  4.2664
 7598TIP3    H244286   6.144   5.693  11.421  2.2625  1.4547  3.8850
 7599TIP3   OH244287   1.115   6.425  16.050  0.3043  0.2709 -0.2877
 7599TIP3    H144288   1.115   6.458  16.140 -0.9513  1.1268 -0.5806
 7599TIP3    H244289   1.121   6.330  16.060 -1.5809  0.1977  0.8168
 7600TIP3   OH244290   1.294   2.042  16.794 -0.0644  0.1557 -0.1282
 7600TIP3    H144291   1.362   2.057  16.729  0.9840  2.4934  1.3863
 7600TIP3    H244292   1.299   1.948  16.813  1.9685  0.0755 -0.8538
 7601TIP3   OH244293   6.631   2.568  15.153  0.1411 -0.0444  0.2086
 7601TIP3    H144294   6.569   2.621  15.203  0.2429  1.5288 -1.2275
 7601TIP3    H244295   6.716   2.585  15.194 -0.1729 -1.2250  1.4038
 7602TIP3   OH244296   5.123   5.620  16.583  0.1068  0.4222  0.0272
 7602TIP3    H144297   5.205   5.666  16.599  0.5204  0.0263 -0.9018
 7602TIP3    H244298   5.149   5.537  16.543 -0.5936 -0.8252  2.0020
 7603TIP3   OH244299   4.030   0.025  11.403 -0.3530  0.4721 -0.0039
 7603TIP3    H144300   3.976  -0.030  11.460 -1.1652  0.3019 -0.9011
 7603TIP3    H244301   4.087   0.073  11.463  0.3866 -1.3332  0.8128
 7604TIP3   OH244302   1.666   1.953   0.286  0.0095 -0.2794  0.1571
 7604TIP3    H144303   1.693   1.953   0.378  1.6699 -0.6919 -0.2901
 7604TIP3    H244304   1.748   1.943   0.237 -0.8627 -0.3026 -1.3646
 7605TIP3   OH244305   1.978   5.657   2.803  0.0366  0.2724 -0.3870
 7605TIP3    H144306   2.074   5.657   2.801  0.0659  1.3465  0.1628
 7605TIP3    H244307   1.953   5.674   2.712  0.3427 -0.6435 -0.6555
 7606TIP3   OH244308   1.008   2.397  16.226 -0.2443  0.1872  0.3811
 7606TIP3    H144309   1.004   2.460  16.154 -0.3252 -1.8054 -1.4264
 7606TIP3    H244310   1.001   2.452  16.305 -1.5613  2.3323 -1.1009
 7607TIP3   OH244311   1.095   1.861   2.828 -0.3447  0.0401 -0.0147
 7607TIP3    H144312   1.184   1.844   2.796  0.2950  0.1758  1.6081
 7607TIP3    H244313   1.102   1.940   2.880 -0.9788 -0.9843  1.7345
 7608TIP3   OH244314   3.006   4.813  14.187 -0.1157  0.1807  0.6344
 7608TIP3    H144315   2.976   4.805  14.096 -1.1166  2.7540  0.6476
 7608TIP3    H244316   3.089   4.766  14.189  0.8113  1.4843 -2.1107
 7609TIP3   OH244317   3.350   3.471  14.508 -0.2870  0.3769  0.6324
 7609TIP3    H144318   3.323   3.398  14.453 -0.6398  0.3984  0.7720
 7609TIP3    H244319   3.370   3.541  14.447  1.5329 -0.2951  0.4055
 7610TIP3   OH244320   0.519   5.188  14.768 -0.1213 -0.1071  0.6702
 7610TIP3    H144321   0.518   5.154  14.679 -1.7624  2.8987 -0.6031
 7610TIP3    H244322   0.437   5.156  14.806 -1.2552  1.5674 -0.2408
 7611TIP3   OH244323   5.445   1.928  13.366 -0.0577 -0.0641 -0.3351
 7611TIP3    H144324   5.413   2.014  13.394  0.5401  0.3486 -0.8859
 7611TIP3    H244325   5.524   1.947  13.316 -0.5729 -0.8444 -1.4974
 7612TIP3   OH244326   1.118   3.378  14.867  0.5755  0.0367 -0.0928
 7612TIP3    H144327   1.148   3.384  14.776 -0.4745 -0.7573 -0.5194
 7612TIP3    H244328   1.137   3.288  14.893  3.1324  0.8972  1.3491
 7613TIP3   OH244329   5.415   2.614  15.826  0.0888  0.6518  0.0516
 7613TIP3    H144330   5.398   2.610  15.732 -3.5022  1.2026  0.5702
 7613TIP3    H244331   5.411   2.707  15.848 -0.9211  0.4010  1.0091
 7614TIP3   OH244332   1.293   4.484   5.795  0.4431 -0.2824 -0.1813
 7614TIP3    H144333   1.358   4.422   5.827 -0.0601 -1.0127 -0.5498
 7614TIP3    H244334   1.340   4.567   5.789  1.1585 -0.6524  0.1922
 7615TIP3   OH244335   0.265   3.134  15.940 -0.5660 -0.3043  0.0091
 7615TIP3    H144336   0.200   3.160  15.874 -1.9047 -1.4530  0.8131
 7615TIP3    H244337   0.214   3.129  16.022 -0.1385 -3.8921  0.1951
 7616TIP3   OH244338   1.068   6.213  14.885 -0.2091 -0.6730  0.0090
 7616TIP3    H144339   1.022   6.268  14.950 -0.4388 -0.0542 -0.6638
 7616TIP3    H244340   1.010   6.212  14.809  1.6242  1.6195 -1.5655
 7617TIP3   OH244341   2.029   1.775  12.132 -0.1107  0.2530 -0.1489
 7617TIP3    H144342   2.025   1.809  12.043 -0.9939  1.9623  0.5019
 7617TIP3    H244343   1.976   1.694  12.129 -0.7038  0.6539 -1.0250
 7618TIP3   OH244344   1.835   4.646  12.748 -0.5732  0.1531  0.2183
 7618TIP3    H144345   1.766   4.629  12.684  0.2013 -2.0050 -0.1116
 7618TIP3    H244346   1.860   4.737  12.731 -1.9115  0.3333 -1.0273
 7619TIP3   OH244347   1.382   1.888   2.479 -0.0522 -0.5100  0.3000
 7619TIP3    H144348   1.443   1.826   2.439  0.9058  1.5342 -1.6208
 7619TIP3    H244349   1.300   1.876   2.430  0.5467  0.6448 -1.0413
 7620TIP3   OH244350   4.130   3.991   5.482  0.1217  0.5248  0.3287
 7620TIP3    H144351   4.142   4.082   5.507  0.9878  0.1275  1.4428
 7620TIP3    H244352   4.106   3.946   5.563  2.3749 -0.6992  0.3945
 7621TIP3   OH244353   5.298   2.651   2.759  0.2525  0.3612  0.0204
 7621TIP3    H144354   5.304   2.564   2.799 -0.5611  0.6008  0.6952
 7621TIP3    H244355   5.239   2.700   2.817 -0.4818  0.8963 -1.1389
 7622TIP3   OH244356   2.240   6.436   2.621 -0.0358  0.5678  0.2711
 7622TIP3    H144357   2.154   6.419   2.582  0.3312 -0.7926  0.0108
 7622TIP3    H244358   2.300   6.443   2.546  0.3766 -0.3100  0.5055
 7623TIP3   OH244359   5.902   5.137  11.677  0.3206 -0.1265  0.2576
 7623TIP3    H144360   5.971   5.138  11.611 -0.5515  0.2632 -0.6842
 7623TIP3    H244361   5.888   5.044  11.695  1.1568 -0.2022  0.5428
 7624TIP3   OH244362   3.740   6.596   3.432 -0.5834 -0.0312  0.0070
 7624TIP3    H144363   3.686   6.527   3.470 -0.5721  0.1455  0.3417
 7624TIP3    H244364   3.698   6.616   3.349 -1.0756  0.1617  0.3026
 7625TIP3   OH244365   6.155   1.149  11.936  0.7558 -0.7980  0.5988
 7625TIP3    H144366   6.143   1.234  11.979 -0.6628  0.5617 -2.2124
 7625TIP3    H244367   6.125   1.085  12.001  1.4813  0.8141  2.6580
 7626TIP3   OH244368   5.165   4.719   2.834 -0.3793  0.2080 -0.2412
 7626TIP3    H144369   5.100   4.713   2.904 -0.7842 -0.2780 -0.6498
 7626TIP3    H244370   5.224   4.645   2.849 -1.7839 -1.2994 -1.6994
 7627TIP3   OH244371   5.793   0.371   1.586 -0.3693 -0.6368 -0.2673
 7627TIP3    H144372   5.803   0.298   1.524  1.6239 -0.4823 -0.2165
 7627TIP3    H244373   5.823   0.448   1.537 -0.3623 -0.2366  0.3625
 7628TIP3   OH244374   6.187   3.972  11.619  0.0595  0.1565  0.4585
 7628TIP3    H144375   6.261   3.913  11.623  0.3662  0.5819  1.3430
 7628TIP3    H244376   6.194   4.014  11.533 -0.1520 -1.0493 -0.1676
 7629TIP3   OH244377   3.895   6.663  13.445  0.0948 -0.0052  0.0304
 7629TIP3    H144378   3.922   6.743  13.489 -0.7390 -0.0737  0.6975
 7629TIP3    H244379   3.862   6.693  13.360 -0.3783  0.3948  0.3440
 7630TIP3   OH244380   2.676   6.580  17.098  0.5638  0.1917 -0.2652
 7630TIP3    H144381   2.766   6.566  17.070  1.2025  0.4391  1.5278
 7630TIP3    H244382   2.680   6.581  17.194 -1.3316  0.3155 -0.1381
 7631TIP3   OH244383   4.199   5.368  14.712  0.3154 -0.5825  1.1269
 7631TIP3    H144384   4.236   5.371  14.624 -1.6211  0.2935  0.2763
 7631TIP3    H244385   4.200   5.459  14.743  2.5584 -1.0853  2.7787
 7632TIP3   OH244386   0.453   4.340  12.918 -0.7160  0.2767  0.1219
 7632TIP3    H144387   0.466   4.433  12.936 -0.3294  0.0208  1.2657
 7632TIP3    H244388   0.399   4.309  12.990 -0.7784 -0.4024 -0.2082
 7633TIP3   OH244389   1.772   4.960   4.525  0.1140 -0.4507  0.2232
 7633TIP3    H144390   1.803   4.871   4.508 -1.1452 -0.9468  0.4580
 7633TIP3    H244391   1.815   4.986   4.606 -0.4980 -1.3407  0.8433
 7634TIP3   OH244392   3.472   6.537   3.282 -0.1060  0.3281 -0.1025
 7634TIP3    H144393   3.476   6.460   3.226  2.1588 -0.2609  0.7464
 7634TIP3    H244394   3.479   6.611   3.222 -0.6750 -0.1655 -0.7988
 7635TIP3   OH244395   6.461   2.697  12.599  0.5658  0.1716 -0.7802
 7635TIP3    H144396   6.466   2.639  12.523  1.2776  0.7295 -1.1714
 7635TIP3    H244397   6.546   2.740  12.602  0.9044 -0.5183  0.8870
 7636TIP3   OH244398   1.089   0.898   0.255 -0.1453  0.7842 -0.5887
 7636TIP3    H144399   1.089   0.897   0.159 -1.4010 -0.1300 -0.5967
 7636TIP3    H244400   1.059   0.987   0.277 -0.7881  0.6927 -1.0577
 7637TIP3   OH244401   3.171   5.596   2.988 -0.2214 -0.1898 -0.2263
 7637TIP3    H144402   3.266   5.588   2.983 -0.0645  1.4611 -0.6093
 7637TIP3    H244403   3.139   5.506   2.984  1.3394 -0.8360  0.7885
 7638TIP3   OH244404   6.722   2.228   6.026  0.3036 -0.3264 -0.3899
 7638TIP3    H144405   6.802   2.270   5.996  2.0838 -0.0429  3.9987
 7638TIP3    H244406   6.682   2.292   6.085 -1.0617 -1.9467  0.5309
 7639TIP3   OH244407   0.932   0.751   0.501  0.0966  0.0296 -0.3167
 7639TIP3    H144408   0.868   0.686   0.472 -0.5496  1.4600 -2.3067
 7639TIP3    H244409   0.880   0.827   0.525  0.9358  0.3942  0.3763
 7640TIP3   OH244410   0.669   3.129   5.454  0.8466  0.3827 -0.3487
 7640TIP3    H144411   0.695   3.039   5.473 -0.2314 -0.1198 -1.1636
 7640TIP3    H244412   0.750   3.174   5.432  1.1149 -1.0383 -2.4865
 7641TIP3   OH244413   3.807   1.670  12.847 -0.0830 -0.1621  0.6164
 7641TIP3    H144414   3.848   1.667  12.934 -0.3294 -0.4529  0.7231
 7641TIP3    H244415   3.827   1.758  12.815 -1.3558  0.5489  1.6407
 7642TIP3   OH244416   2.223   2.349   5.959  0.5115 -0.1662 -0.4360
 7642TIP3    H144417   2.223   2.426   5.902  0.5550  0.8931  0.9412
 7642TIP3    H244418   2.203   2.383   6.046 -0.7124 -1.8971  0.0124
 7643TIP3   OH244419   0.230   0.018  16.421 -0.1944 -0.0799 -0.4661
 7643TIP3    H144420   0.289   0.074  16.471 -0.1122  0.6635 -1.3776
 7643TIP3    H244421   0.277   0.000  16.340 -1.5429  1.2337 -1.5823
 7644TIP3   OH244422   4.490   4.252  14.275 -0.1913 -0.6163 -0.6071
 7644TIP3    H144423   4.420   4.291  14.222  0.5219  1.4363 -0.1450
 7644TIP3    H244424   4.547   4.209  14.212 -0.2730  0.3010 -1.3298
 7645TIP3   OH244425   6.341   2.767   1.021  0.1493  0.1186  0.2725
 7645TIP3    H144426   6.411   2.775   0.956 -0.5053  1.3953 -0.3222
 7645TIP3    H244427   6.261   2.759   0.969 -0.3430  0.7522  0.9030
 7646TIP3   OH244428   3.248   4.157  11.141  0.2470 -0.2613  0.3497
 7646TIP3    H144429   3.269   4.136  11.232 -0.7621 -0.8888  0.4518
 7646TIP3    H244430   3.154   4.178  11.142  0.5346  1.2282 -0.2964
 7647TIP3   OH244431   6.425   6.377   2.823 -0.0834  0.3827 -0.0908
 7647TIP3    H144432   6.385   6.362   2.737 -1.7757 -0.8255  0.8273
 7647TIP3    H244433   6.488   6.306   2.832 -1.0729 -0.4856  0.2758
 7648TIP3   OH244434   3.691   3.845  17.015 -0.3108  0.6930  0.3387
 7648TIP3    H144435   3.784   3.847  17.040 -0.1386  0.1755 -0.2352
 7648TIP3    H244436   3.661   3.935  17.026  0.4365  1.0032 -0.1112
 7649TIP3   OH244437   1.074   5.659   5.559  0.2998  0.2520  0.4639
 7649TIP3    H144438   1.071   5.563   5.564 -1.8593  0.2380 -0.1187
 7649TIP3    H244439   1.095   5.687   5.647 -1.5900 -0.7439  1.3001
 7650TIP3   OH244440   1.448   2.751  16.012 -0.2211  0.3783 -0.1723
 7650TIP3    H144441   1.515   2.683  16.006 -0.4201  0.2833 -1.6208
 7650TIP3    H244442   1.456   2.800  15.930 -1.9349  0.3338 -0.3955
 7651TIP3   OH244443   3.675   2.707   4.904  0.1689 -0.3326  0.4454
 7651TIP3    H144444   3.768   2.691   4.922  0.4564  0.4484 -0.2605
 7651TIP3    H244445   3.646   2.629   4.856  0.4924 -0.5345  0.5764
 7652TIP3   OH244446   0.965   1.932   4.356  0.1261  0.2203  0.3166
 7652TIP3    H144447   0.879   1.922   4.315  0.3380 -1.4201  0.2227
 7652TIP3    H244448   0.996   2.017   4.326 -1.2880  0.6611  0.0312
 7653TIP3   OH244449   3.592   6.816  11.936  0.2617 -0.0729  0.0275
 7653TIP3    H144450   3.511   6.835  11.984  0.9835  0.3682  1.1171
 7653TIP3    H244451   3.662   6.843  11.996  1.2091  0.4289 -1.2743
 7654TIP3   OH244452   6.394   0.417  14.804 -0.1121  0.5624  0.7423
 7654TIP3    H144453   6.363   0.375  14.885  0.2938 -0.3312  0.4463
 7654TIP3    H244454   6.377   0.352  14.736  0.8034  0.7660  0.3111
 7655TIP3   OH244455   6.603   0.667   3.758  0.4404 -0.1174  0.3324
 7655TIP3    H144456   6.598   0.703   3.847  0.1993  1.9134 -0.4382
 7655TIP3    H244457   6.692   0.632   3.751  0.9644  1.0569  0.9128
 7656TIP3   OH244458   6.427   5.384   4.082  0.4080  0.1780 -0.3304
 7656TIP3    H144459   6.484   5.419   4.014 -0.7573  1.0632 -0.8939
 7656TIP3    H244460   6.358   5.449   4.091 -1.1856 -1.3896 -0.5496
 7657TIP3   OH244461   1.713   4.564  11.088 -0.3367 -0.4628  0.2283
 7657TIP3    H144462   1.788   4.610  11.051 -1.3256 -0.1368 -1.4983
 7657TIP3    H244463   1.653   4.634  11.114 -0.0100 -0.7156  1.7441
 7658TIP3   OH244464   1.524   5.714  15.741  0.0505  0.2222  0.2533
 7658TIP3    H144465   1.577   5.743  15.666 -0.2002  0.4587  0.1661
 7658TIP3    H244466   1.486   5.795  15.776  1.0631  0.2564  1.3399
 7659TIP3   OH244467   1.435   6.030  16.413 -0.3587  0.6216  0.1018
 7659TIP3    H144468   1.501   6.099  16.407  0.8661 -0.6249 -1.4465
 7659TIP3    H244469   1.351   6.078  16.414  0.4428  2.1305 -0.8166
 7660TIP3   OH244470   3.714   3.498  13.981 -0.5894 -0.0987 -0.6497
 7660TIP3    H144471   3.635   3.551  13.968  0.4058  1.4193 -0.8364
 7660TIP3    H244472   3.711   3.473  14.073 -2.1528 -1.5720 -1.0545
 7661TIP3   OH244473   5.225   4.766  16.235  0.0597  0.4901 -0.0033
 7661TIP3    H144474   5.250   4.684  16.192 -0.6950 -0.5487  1.4468
 7661TIP3    H244475   5.308   4.801  16.269  0.6140  1.1410 -1.8868
 7662TIP3   OH244476   6.744   2.533   5.163 -0.2758  1.4785  0.2251
 7662TIP3    H144477   6.672   2.573   5.212 -1.9025 -0.1194 -0.7097
 7662TIP3    H244478   6.704   2.505   5.081  0.5343 -2.2694  0.8964
 7663TIP3   OH244479   3.645   2.669   2.920  0.4514 -0.0400 -0.4489
 7663TIP3    H144480   3.577   2.631   2.975  1.4215  0.5286  1.1910
 7663TIP3    H244481   3.597   2.720   2.854 -0.7423 -1.3192 -0.6055
 7664TIP3   OH244482   0.970   6.471  15.826 -0.0056  0.0915 -0.2715
 7664TIP3    H144483   1.037   6.456  15.892  0.4836  0.4704 -0.6706
 7664TIP3    H244484   0.948   6.564  15.835 -0.3985 -0.0090 -0.2100
 7665TIP3   OH244485   1.073   5.602   2.577 -0.6571  0.8691  0.5672
 7665TIP3    H144486   1.007   5.668   2.599 -1.0569  0.5649  0.2890
 7665TIP3    H244487   1.081   5.607   2.482  0.0143  1.1757  0.6318
 7666TIP3   OH244488   2.417   0.603  12.198 -0.2912 -0.3777 -0.3702
 7666TIP3    H144489   2.406   0.640  12.110 -1.0657 -0.7600 -0.4482
 7666TIP3    H244490   2.327   0.592  12.230 -0.1476 -2.7142 -0.5755
 7667TIP3   OH244491   1.966   6.342  11.493  0.0443  0.1658  0.0716
 7667TIP3    H144492   2.044   6.372  11.538  0.1401  1.0523 -0.6657
 7667TIP3    H244493   1.999   6.291  11.419 -0.0821  0.3919 -0.1387
 7668TIP3   OH244494   2.557   1.257   2.563 -0.2105  0.1726 -0.3644
 7668TIP3    H144495   2.523   1.245   2.475 -0.9506  0.2720 -0.1034
 7668TIP3    H244496   2.497   1.320   2.603  1.3205  1.7850 -0.4653
 7669TIP3   OH244497   1.735   1.532   0.475  0.7954 -0.2221 -0.2811
 7669TIP3    H144498   1.697   1.515   0.388  0.1451  0.2701 -0.1051
 7669TIP3    H244499   1.816   1.481   0.476  0.5822 -0.5965 -1.0062
 7670TIP3   OH244500   2.331   1.277  14.061  0.3269  0.6857  0.3166
 7670TIP3    H144501   2.330   1.214  13.989 -0.0502  1.8680 -0.7458
 7670TIP3    H244502   2.384   1.236  14.129  0.8001 -0.3972 -0.6881
 7671TIP3   OH244503   1.079   4.207  13.536 -0.2917  0.1621 -0.5161
 7671TIP3    H144504   1.054   4.260  13.611  0.1611 -0.4770  0.0959
 7671TIP3    H244505   1.163   4.243  13.508 -0.2006  0.0531 -0.3814
 7672TIP3   OH244506   1.442   3.840   1.887 -0.5778  0.2459 -0.0078
 7672TIP3    H144507   1.463   3.934   1.888  0.1171  0.0947  0.8045
 7672TIP3    H244508   1.416   3.822   1.797  0.9675  0.8523 -0.6047
 7673TIP3   OH244509   4.749   2.147   2.756  0.1471  0.4961  0.0539
 7673TIP3    H144510   4.752   2.215   2.824 -1.5162 -0.1905  0.8648
 7673TIP3    H244511   4.839   2.141   2.724  0.6990  1.7657  1.2618
 7674TIP3   OH244512   3.438   6.386  11.972  0.0679 -0.6698  0.4829
 7674TIP3    H144513   3.499   6.457  11.992  0.6834 -0.3511 -2.2011
 7674TIP3    H244514   3.352   6.421  11.995  0.5201  0.3586  0.6606
 7675TIP3   OH244515   4.691   5.006  11.937  0.3376 -0.2446  0.2037
 7675TIP3    H144516   4.729   4.936  11.989 -0.2756 -1.1334 -0.4890
 7675TIP3    H244517   4.754   5.021  11.866  0.4330 -0.1473  0.3092
 7676TIP3   OH244518   2.584   6.634   1.685 -0.5978  0.1911  0.5968
 7676TIP3    H144519   2.516   6.686   1.642  0.1321  2.6291  2.1768
 7676TIP3    H244520   2.663   6.650   1.632 -0.2973  1.0039  1.2742
 7677TIP3   OH244521   6.044   4.183   0.665 -0.0995  0.6011  0.0881
 7677TIP3    H144522   5.976   4.131   0.708 -0.9249  1.4716 -0.1226
 7677TIP3    H244523   6.031   4.272   0.699 -0.3059  1.1652 -1.3958
 7678TIP3   OH244524   5.501   3.457   2.782 -0.1041  0.5996  0.0191
 7678TIP3    H144525   5.586   3.454   2.738 -0.1824  0.4195 -0.1237
 7678TIP3    H244526   5.466   3.368   2.771 -0.6453  0.8859 -0.5800
 7679TIP3   OH244527   0.034   0.353  13.541 -0.0891 -0.4305 -0.5228
 7679TIP3    H144528   0.123   0.319  13.533 -0.1043 -0.4267 -0.7033
 7679TIP3    H244529  -0.012   0.287  13.594 -0.2095 -0.8676 -1.1538
 7680TIP3   OH244530   6.333   5.493  13.139 -0.4294 -0.1929 -0.2169
 7680TIP3    H144531   6.277   5.444  13.079 -0.9998  0.1447  0.0247
 7680TIP3    H244532   6.420   5.455  13.128 -0.7647 -0.9290 -0.3789
 7681TIP3   OH244533   2.170   0.766  15.292 -0.0811 -0.2224 -0.9432
 7681TIP3    H144534   2.199   0.717  15.215 -3.2594 -0.2867 -2.2327
 7681TIP3    H244535   2.094   0.717  15.324  0.0317  0.8647  1.1238
 7682TIP3   OH244536   4.164   5.478   3.255  0.2239  0.0495  0.3373
 7682TIP3    H144537   4.079   5.485   3.213 -0.4164  0.6259  1.6642
 7682TIP3    H244538   4.191   5.569   3.270  0.7109 -0.1356  0.6299
 7683TIP3   OH244539   6.289   0.434   4.948  0.7657 -0.6288 -0.2480
 7683TIP3    H144540   6.288   0.503   5.015  1.9536 -0.7353 -0.1071
 7683TIP3    H244541   6.336   0.473   4.874 -1.2731 -0.1977 -1.4127
 7684TIP3   OH244542   5.346   3.340   2.013  0.0475  0.0428 -0.1014
 7684TIP3    H144543   5.405   3.341   2.087  1.2957  1.1586 -1.0698
 7684TIP3    H244544   5.403   3.327   1.937 -0.9388  1.0677 -1.0527
 7685TIP3   OH244545   1.372   0.314  15.715 -0.4273  0.3881  0.4262
 7685TIP3    H144546   1.367   0.351  15.627 -3.2679  0.7669  0.6491
 7685TIP3    H244547   1.461   0.278  15.721  0.6033  2.2843 -1.7601
 7686TIP3   OH244548   0.255   5.948  16.129  0.2589  0.0673  0.2074
 7686TIP3    H144549   0.188   5.938  16.062 -0.5954 -1.0323  1.1910
 7686TIP3    H244550   0.261   6.043  16.143 -1.3347  0.1720  0.3414
 7687TIP3   OH244551   2.495   2.346   1.284 -0.0761  0.1464 -0.0697
 7687TIP3    H144552   2.549   2.281   1.237 -1.1400 -1.4969  0.8706
 7687TIP3    H244553   2.559   2.402   1.328  0.9482  1.2791 -2.7447
 7688TIP3   OH244554   5.056   1.557  11.508 -0.1489  0.3811  0.3457
 7688TIP3    H144555   4.982   1.618  11.501 -0.4615 -0.0600 -0.3195
 7688TIP3    H244556   5.035   1.502  11.583  0.4069  1.4401  1.2982
 7689TIP3   OH244557   6.815   1.300   6.252 -0.3071 -0.1139 -0.3667
 7689TIP3    H144558   6.771   1.222   6.285  0.7206 -0.8026 -0.5850
 7689TIP3    H244559   6.907   1.287   6.275 -0.0864  0.9102 -0.6397
 7690TIP3   OH244560   2.139   2.271  16.005  0.3733  0.0116  0.3635
 7690TIP3    H144561   2.081   2.238  16.074 -0.0647  0.8743  0.4165
 7690TIP3    H244562   2.225   2.238  16.029  0.6059  1.9270  2.4714
 7691TIP3   OH244563   0.735   5.929  12.321  0.1217 -0.5800 -0.2574
 7691TIP3    H144564   0.644   5.929  12.290  0.8170 -1.3421 -2.4738
 7691TIP3    H244565   0.775   5.853  12.278  1.8570 -0.1639  0.5406
 7692TIP3   OH244566   1.480   0.545   5.092  0.5341 -0.0126 -0.8937
 7692TIP3    H144567   1.407   0.580   5.144  1.5587  1.2749 -0.2673
 7692TIP3    H244568   1.466   0.580   5.004  1.4722  2.0176 -0.3114
 7693TIP3   OH244569   2.675   6.625  11.338 -0.5882 -0.0191  0.3737
 7693TIP3    H144570   2.617   6.568  11.288  0.6994 -0.2590 -0.9186
 7693TIP3    H244571   2.712   6.685  11.273  1.9597 -1.0246  0.7842
 7694TIP3   OH244572   3.435   5.823   5.062 -0.0900  0.0406 -0.3516
 7694TIP3    H144573   3.479   5.881   5.001  0.1847 -0.8320 -1.0119
 7694TIP3    H244574   3.498   5.810   5.133  0.7788 -1.1929 -1.2839
 7695TIP3   OH244575   2.681   1.647   4.920  0.4728 -0.2462 -0.0986
 7695TIP3    H144576   2.615   1.622   4.856  0.1539 -1.3636  0.6368
 7695TIP3    H244577   2.750   1.582   4.912  1.3708  0.7439 -0.6541
 7696TIP3   OH244578   3.417   1.988   0.910  0.7386  0.3834 -0.1968
 7696TIP3    H144579   3.496   2.025   0.870  0.8868 -0.6022 -0.8580
 7696TIP3    H244580   3.415   2.025   0.998  0.7686  2.1026 -0.8717
 7697TIP3   OH244581   5.602   3.701   5.826  0.0495  0.1825  0.0266
 7697TIP3    H144582   5.609   3.796   5.839  0.8505  0.0431  0.7080
 7697TIP3    H244583   5.532   3.675   5.885 -0.6697  0.4440 -0.6977
 7698TIP3   OH244584   3.993   5.580   6.086  0.8829  0.7434 -0.1062
 7698TIP3    H144585   4.047   5.521   6.139 -0.8048 -0.5668  0.2378
 7698TIP3    H244586   3.943   5.631   6.149 -1.3709 -1.0467 -0.3340
 7699TIP3   OH244587   3.745   0.403  12.723 -0.4180 -0.1869 -0.2838
 7699TIP3    H144588   3.783   0.405  12.811 -0.3968 -1.5389 -0.2305
 7699TIP3    H244589   3.656   0.438  12.735 -0.0565  0.6357  0.0619
 7700TIP3   OH244590   4.301   1.712   6.003  0.6293 -0.0641  0.7685
 7700TIP3    H144591   4.358   1.781   6.039 -0.6632  1.3333  0.2479
 7700TIP3    H244592   4.213   1.744   6.019 -0.0205 -1.7112  0.6508
 7701TIP3   OH244593   1.212   3.473   2.026  0.0007  0.0094 -0.0753
 7701TIP3    H144594   1.147   3.530   1.985  0.3282 -1.4808 -2.9684
 7701TIP3    H244595   1.282   3.533   2.054 -0.2934  1.1988 -1.7109
 7702TIP3   OH244596   4.246   2.348  12.462 -0.5367  0.7934 -0.2980
 7702TIP3    H144597   4.316   2.411  12.443 -0.3231  0.2815 -1.2328
 7702TIP3    H244598   4.291   2.271  12.495 -0.6246  0.3420 -1.2112
 7703TIP3   OH244599   6.576   1.595  16.723 -0.0664  0.4755  0.1962
 7703TIP3    H144600   6.531   1.550  16.652  2.9966 -1.5636 -0.6534
 7703TIP3    H244601   6.522   1.578  16.800 -1.5088 -0.5218 -0.9767
 7704TIP3   OH244602   5.108   2.041  11.061  0.3002  0.4683  0.0665
 7704TIP3    H144603   5.174   2.067  11.125  1.0338  0.5267 -0.7043
 7704TIP3    H244604   5.091   1.949  11.080 -0.1784  0.7232  0.9404
 7705TIP3   OH244605   6.112   2.283   5.666  0.1831 -0.0697  0.7463
 7705TIP3    H144606   6.037   2.288   5.606  0.8534 -0.7730 -0.1704
 7705TIP3    H244607   6.186   2.262   5.610  1.1016  0.7132  1.6368
 7706TIP3   OH244608   1.606   1.654  14.507 -0.4335 -0.9957  0.2871
 7706TIP3    H144609   1.546   1.711  14.556  1.6088  1.2317  0.3717
 7706TIP3    H244610   1.582   1.565  14.534 -0.4776  0.0213  4.1953
 7707TIP3   OH244611   1.444   3.618   2.092 -0.0257  0.7343  0.3320
 7707TIP3    H144612   1.428   3.687   2.027 -0.6608 -0.4781 -0.8379
 7707TIP3    H244613   1.539   3.622   2.107  0.7965 -1.1392 -3.2918
 7708TIP3   OH244614   2.999   2.188   4.366 -0.3440  0.0007  0.0359
 7708TIP3    H144615   3.061   2.247   4.324 -0.1799  0.8938  1.4845
 7708TIP3    H244616   2.942   2.159   4.295 -0.9067  2.4960 -0.6172
 7709TIP3   OH244617   4.855   2.796  14.568 -0.2967  0.2132  0.1861
 7709TIP3    H144618   4.869   2.718  14.623 -1.7135 -0.6076 -0.5724
 7709TIP3    H244619   4.793   2.849  14.618 -1.4298 -0.4399 -0.4829
 7710TIP3   OH244620   3.333   2.039  11.567 -0.6795  0.1156 -0.4192
 7710TIP3    H144621   3.389   2.027  11.643 -1.1492 -2.3323 -0.3669
 7710TIP3    H244622   3.393   2.045  11.493 -0.2246 -3.1546 -0.4493
 7711TIP3   OH244623   2.219   2.342   5.521  0.0315  0.5015  0.2050
 7711TIP3    H144624   2.181   2.288   5.590  0.1638 -0.9276 -0.8061
 7711TIP3    H244625   2.312   2.322   5.524  0.2589  1.5465  0.5460
 7712TIP3   OH244626   4.975   6.223  15.033 -0.4123 -0.0638 -0.3896
 7712TIP3    H144627   5.063   6.192  15.054 -0.7132 -1.5684 -1.2170
 7712TIP3    H244628   4.986   6.318  15.019  0.8670 -0.0493  0.5400
 7713TIP3   OH244629   2.388   6.439   4.387 -0.2668 -0.1448  0.2853
 7713TIP3    H144630   2.386   6.350   4.351 -1.7607 -0.3959  0.9012
 7713TIP3    H244631   2.325   6.487   4.332  1.3658  0.8657 -0.7870
 7714TIP3   OH244632   2.138   1.477   3.009 -0.2046  0.2081 -0.7716
 7714TIP3    H144633   2.047   1.492   3.035 -0.1825 -0.0785 -0.5218
 7714TIP3    H244634   2.167   1.562   2.975 -0.1498  0.6827  0.3952
 7715TIP3   OH244635   1.866   6.647  15.213 -0.8420 -0.2172 -0.2409
 7715TIP3    H144636   1.951   6.603  15.206 -0.5078  0.6300 -2.0893
 7715TIP3    H244637   1.805   6.576  15.234  0.4896 -0.5910  3.0424
 7716TIP3   OH244638   2.773   1.038   6.099  1.0614 -0.6323  0.0087
 7716TIP3    H144639   2.769   0.978   6.025  1.5875 -0.3455 -0.2574
 7716TIP3    H244640   2.775   0.981   6.176 -0.5252 -0.9218 -0.1282
 7717TIP3   OH244641   6.070   2.818  15.888  0.1603  0.0770 -0.4470
 7717TIP3    H144642   6.079   2.725  15.909 -0.8733  0.0458 -0.0860
 7717TIP3    H244643   6.153   2.857  15.916 -0.5645 -0.2127  2.4189
 7718TIP3   OH244644   4.245   3.551   6.416  0.7346  0.3651  0.2917
 7718TIP3    H144645   4.247   3.546   6.512 -1.1597  0.3798  0.3633
 7718TIP3    H244646   4.216   3.464   6.388  3.1220 -0.2837 -0.4196
 7719TIP3   OH244647   2.816   4.651   6.610  0.4995 -0.0732 -0.1736
 7719TIP3    H144648   2.854   4.592   6.675 -0.5500 -0.5547  0.0139
 7719TIP3    H244649   2.856   4.625   6.527  1.1735 -0.0405  0.1339
 7720TIP3   OH244650   5.220   0.136  12.450  0.0588  0.2072  0.7831
 7720TIP3    H144651   5.214   0.077  12.525  0.5634 -0.2588  0.4692
 7720TIP3    H244652   5.248   0.080  12.378 -3.1511  0.0323 -0.4965
 7721TIP3   OH244653   4.865   3.179  12.444 -0.0060 -0.2113 -0.1258
 7721TIP3    H144654   4.955   3.191  12.413  0.4091  1.2052  1.4519
 7721TIP3    H244655   4.835   3.099  12.400  2.1656 -0.9625 -0.3898
 7722TIP3   OH244656   1.338   5.224  15.985  0.0521  0.7024 -0.3677
 7722TIP3    H144657   1.269   5.245  16.048  0.3767 -1.1500  0.6841
 7722TIP3    H244658   1.412   5.280  16.011 -0.0190  0.3944  0.5467
 7723TIP3   OH244659   1.722   6.113  12.280  0.1503 -0.1686 -0.2552
 7723TIP3    H144660   1.736   6.147  12.368  0.6769 -0.8235 -0.0752
 7723TIP3    H244661   1.690   6.024  12.294  2.4825 -1.1438 -0.7110
 7724TIP3   OH244662   4.524   0.058  15.781  0.7229  0.1722 -0.1676
 7724TIP3    H144663   4.503   0.062  15.874  1.1224  0.1898 -0.0738
 7724TIP3    H244664   4.575   0.138  15.765  0.0627  0.5228 -0.5555
 7725TIP3   OH244665   1.952   3.866  12.199 -0.0208  0.0986  0.0070
 7725TIP3    H144666   1.879   3.901  12.251  0.2814 -0.0428  0.5302
 7725TIP3    H244667   1.934   3.773  12.192 -1.2246  0.4258 -2.0252
 7726TIP3   OH244668   4.479   3.017  13.352 -0.1173  0.3670  0.1960
 7726TIP3    H144669   4.435   3.007  13.437 -0.8993  0.4990 -0.1807
 7726TIP3    H244670   4.435   3.092  13.312 -3.0008 -2.3109 -2.2195
 7727TIP3   OH244671   4.614   1.777   0.532  0.6068 -0.1163 -0.1405
 7727TIP3    H144672   4.532   1.796   0.577  0.0507 -0.8668 -0.8062
 7727TIP3    H244673   4.651   1.703   0.580  1.0694  0.4291  0.3600
 7728TIP3   OH244674   0.493   0.323  12.158 -0.4392  0.2994  0.4263
 7728TIP3    H144675   0.470   0.366  12.241 -0.6670 -0.5422  0.8093
 7728TIP3    H244676   0.554   0.254  12.183 -0.6172 -0.0476 -0.0911
 7729TIP3   OH244677   5.962   6.481  13.570  0.2734 -0.7244 -0.4863
 7729TIP3    H144678   5.999   6.475  13.482  1.7017  0.4723 -0.0154
 7729TIP3    H244679   5.977   6.572  13.595  0.1746 -1.1276  1.1108
 7730TIP3   OH244680   6.769   6.593  13.252  0.2304 -0.2344  0.0465
 7730TIP3    H144681   6.827   6.643  13.195 -1.5054  1.3334 -0.4192
 7730TIP3    H244682   6.804   6.608  13.340  0.6745  0.4961 -0.2487
 7731TIP3   OH244683   1.896   1.861  11.454 -0.1523 -0.0694 -0.0783
 7731TIP3    H144684   1.991   1.854  11.471  0.0246 -1.3702 -1.3647
 7731TIP3    H244685   1.856   1.833  11.537  0.6633 -4.2579 -0.8350
 7732TIP3   OH244686   4.403   3.963   3.113 -0.1771  0.0823 -0.0990
 7732TIP3    H144687   4.346   4.036   3.090 -1.9754 -0.7723  1.3500
 7732TIP3    H244688   4.393   3.954   3.208  2.6838  0.0976  0.2772
 7733TIP3   OH244689   1.168   3.389   0.208  0.5571 -0.0938 -0.2775
 7733TIP3    H144690   1.132   3.478   0.219 -0.2031 -0.3875 -0.3445
 7733TIP3    H244691   1.153   3.368   0.116  0.4777 -0.4008 -0.1951
 7734TIP3   OH244692   5.921   4.109   4.588 -0.4258 -0.5001 -0.1863
 7734TIP3    H144693   5.873   4.189   4.568 -0.0934 -0.2026  0.1720
 7734TIP3    H244694   5.854   4.043   4.602 -0.7465 -0.0459  0.4822
 7735TIP3   OH244695   1.099   1.264  16.839  0.0909 -0.2439 -0.4967
 7735TIP3    H144696   1.013   1.278  16.800 -0.6575 -1.1709  0.7425
 7735TIP3    H244697   1.152   1.228  16.768 -0.3424  0.9161 -1.4412
 7736TIP3   OH244698   4.312   6.465  12.668 -0.0216  0.1515  0.4165
 7736TIP3    H144699   4.217   6.475  12.670 -0.0288  0.0631  0.5144
 7736TIP3    H244700   4.345   6.542  12.713  0.0413  1.3757 -1.5983
 7737TIP3   OH244701   2.057   2.445  12.042 -0.2300 -0.0034 -0.2050
 7737TIP3    H144702   2.150   2.425  12.029 -0.1869 -1.5598  1.9315
 7737TIP3    H244703   2.051   2.540  12.036  1.3216  0.0498 -1.3332
 7738TIP3   OH244704   1.297   5.526  11.198 -0.1009 -0.1542 -0.5310
 7738TIP3    H144705   1.309   5.484  11.114  2.4270 -0.5726 -0.0557
 7738TIP3    H244706   1.341   5.468  11.261 -1.5190  0.3630  1.0235
 7739TIP3   OH244707   4.719   4.007   4.193  0.3988 -0.2334 -0.1050
 7739TIP3    H144708   4.775   4.044   4.261  1.2158  0.4863 -1.1398
 7739TIP3    H244709   4.778   3.951   4.141 -0.1399 -0.5184 -0.4222
 7740TIP3   OH244710   1.665   3.261  16.613 -0.0767  0.3093 -0.3941
 7740TIP3    H144711   1.656   3.343  16.565 -1.0724  0.3862 -0.0860
 7740TIP3    H244712   1.610   3.272  16.690 -2.1199 -1.5119 -1.4866
 7741TIP3   OH244713   1.738   6.630   5.805 -0.0003 -0.5835 -0.3231
 7741TIP3    H144714   1.744   6.535   5.791 -0.7574 -0.7623  0.4461
 7741TIP3    H244715   1.647   6.644   5.831  0.4116  0.1918  0.7672
 7742TIP3   OH244716   1.592   0.804  15.832 -0.4993  0.5644  0.0596
 7742TIP3    H144717   1.656   0.836  15.895 -0.3451  0.6640 -0.1467
 7742TIP3    H244718   1.521   0.869  15.836 -1.1656 -0.1977  1.1907
 7743TIP3   OH244719   2.706   6.476   4.750  0.0701 -0.5488  0.2630
 7743TIP3    H144720   2.616   6.462   4.780 -0.6955  0.3262 -1.4906
 7743TIP3    H244721   2.708   6.439   4.661  1.6484 -1.1598  0.5172
 7744TIP3   OH244722   4.459   1.919   6.088  0.2512  0.5769 -0.3060
 7744TIP3    H144723   4.554   1.917   6.081  0.1818 -1.6665 -1.7475
 7744TIP3    H244724   4.432   1.992   6.032  1.1129  1.1504  0.0215
 7745TIP3   OH244725   0.121   5.671  13.958  0.2425 -0.3052  0.4435
 7745TIP3    H144726   0.200   5.639  14.001  1.7485  0.3660 -1.6655
 7745TIP3    H244727   0.069   5.710  14.029  2.0766 -0.2198  1.7983
 7746TIP3   OH244728   0.604   3.983   3.038 -0.0556 -0.2764  0.3215
 7746TIP3    H144729   0.619   3.983   2.943 -0.6414 -0.6179  0.2160
 7746TIP3    H244730   0.670   4.041   3.074 -2.5078  3.5418 -0.7291
 7747TIP3   OH244731   3.134   0.180   3.127 -0.6287 -0.0264  0.8585
 7747TIP3    H144732   3.101   0.187   3.216  0.9617 -0.1995  1.4809
 7747TIP3    H244733   3.178   0.264   3.111 -0.6749 -0.0987  0.3313
 7748TIP3   OH244734   5.886   6.498   3.929  0.0840 -0.3649  0.0087
 7748TIP3    H144735   5.839   6.469   4.007 -0.3110 -0.3962 -0.2351
 7748TIP3    H244736   5.921   6.584   3.952  1.8226 -1.2703  0.9656
 7749TIP3   OH244737   4.496   5.704  12.810 -0.9758 -0.0531 -0.5603
 7749TIP3    H144738   4.553   5.736  12.880 -0.2774 -2.6950  0.2112
 7749TIP3    H244739   4.535   5.738  12.729  0.6888 -0.3521  0.0825
 7750TIP3   OH244740   0.610   6.460   3.041 -0.0338 -0.5533 -0.0377
 7750TIP3    H144741   0.571   6.373   3.033  1.9857 -1.5569  0.4299
 7750TIP3    H244742   0.600   6.499   2.954 -2.0224 -0.7188  0.0535
 7751TIP3   OH244743   0.569   4.391   0.247  0.0357 -0.1130  0.0886
 7751TIP3    H144744   0.599   4.470   0.291  1.0956 -0.2631 -0.3291
 7751TIP3    H244745   0.568   4.414   0.154 -1.2369 -0.0990  0.0920
 7752TIP3   OH244746   6.052   4.335  14.355 -0.2020 -0.5189 -0.0664
 7752TIP3    H144747   6.106   4.414  14.354 -0.0146 -0.6267  0.7648
 7752TIP3    H244748   5.981   4.354  14.293  0.7488 -0.3691 -1.1515
 7753TIP3   OH244749   2.650   6.724  11.990 -0.1621  0.1747  0.6225
 7753TIP3    H144750   2.654   6.629  11.996  0.1920  0.1902  0.6746
 7753TIP3    H244751   2.741   6.752  12.003 -0.4142  0.5792  1.5290
 7754TIP3   OH244752   3.663   3.603  10.632  0.2725  0.2970 -0.7383
 7754TIP3    H144753   3.719   3.679  10.648 -0.3620  0.6487 -0.1241
 7754TIP3    H244754   3.575   3.639  10.628  0.0082 -0.3551 -0.8568
 7755TIP3   OH244755   5.163   5.711  16.079  0.1364  0.8510 -0.2878
 7755TIP3    H144756   5.233   5.735  16.018  1.1695  1.0085  0.9095
 7755TIP3    H244757   5.203   5.718  16.165 -1.3209  0.7672  0.4328
 7756TIP3   OH244758   2.399   0.493  13.761 -0.2042 -0.6990  0.3896
 7756TIP3    H144759   2.494   0.504  13.764 -0.3471  0.4743  0.7973
 7756TIP3    H244760   2.365   0.579  13.741 -1.0868 -1.5743 -2.2060
 7757TIP3   OH244761   4.836   0.291   5.480 -0.1897 -0.6113  0.4659
 7757TIP3    H144762   4.881   0.268   5.561 -2.2305 -0.7120  1.6400
 7757TIP3    H244763   4.771   0.222   5.467  0.8748 -1.2727 -1.9764
 7758TIP3   OH244764   0.164   1.900   1.681  0.4963  0.3917  0.2945
 7758TIP3    H144765   0.143   1.960   1.609 -0.4035  0.8516  0.9165
 7758TIP3    H244766   0.157   1.954   1.759  0.6055 -0.3105  0.7955
 7759TIP3   OH244767   3.218   1.096   0.271  0.3871 -0.4499  0.0700
 7759TIP3    H144768   3.304   1.114   0.309  0.4796  1.9850 -1.1098
 7759TIP3    H244769   3.197   1.007   0.300  2.8535 -0.7486  1.1799
 7760TIP3   OH244770   3.131   3.750   1.543 -0.0286  0.1580 -0.3494
 7760TIP3    H144771   3.089   3.801   1.473  1.4969 -0.2001 -1.5812
 7760TIP3    H244772   3.186   3.814   1.589  0.2266  0.0782 -0.5363
 7761TIP3   OH244773   6.474   2.576  12.854 -0.3905 -1.0285  0.7211
 7761TIP3    H144774   6.564   2.578  12.886 -0.2575 -1.2098  0.3738
 7761TIP3    H244775   6.474   2.634  12.777 -0.6590 -0.7382  0.9341
 7762TIP3   OH244776   2.744   4.234   2.846  0.2643  0.0961 -0.5319
 7762TIP3    H144777   2.807   4.238   2.775 -1.7686  4.5254 -2.4401
 7762TIP3    H244778   2.759   4.313   2.897 -2.4569  0.3749  0.0226
 7763TIP3   OH244779   2.172   0.365  16.138 -0.5193 -0.0651  0.5629
 7763TIP3    H144780   2.082   0.378  16.169 -1.0252 -0.5017 -0.6445
 7763TIP3    H244781   2.198   0.281  16.174 -0.1744  0.5525  1.8125
 7764TIP3   OH244782   1.051   4.319  11.653  0.2185 -0.0463 -0.1580
 7764TIP3    H144783   1.038   4.328  11.747  2.0035  3.4115 -0.0607
 7764TIP3    H244784   0.964   4.326  11.615 -0.2816  1.1501  1.1574
 7765TIP3   OH244785   4.966   0.160   3.738  0.0599  0.4817 -0.5329
 7765TIP3    H144786   4.992   0.206   3.818  1.0783  1.0107 -1.1589
 7765TIP3    H244787   4.875   0.185   3.725 -0.8042 -1.1879  1.5563
 7766TIP3   OH244788   1.217   2.764  15.076 -0.0775  0.0288  0.0202
 7766TIP3    H144789   1.250   2.831  15.016 -1.5891 -0.6851 -1.6994
 7766TIP3    H244790   1.165   2.813  15.140 -0.6324  0.5818 -0.8327
 7767TIP3   OH244791   2.062   4.248   5.765 -0.2739  0.3116  0.0531
 7767TIP3    H144792   2.047   4.258   5.671  0.7845 -0.0589 -0.1720
 7767TIP3    H244793   1.979   4.215   5.799 -1.0574  1.5897 -0.5467
 7768TIP3   OH244794   0.447   6.311  12.460 -0.7499 -0.0177 -0.4498
 7768TIP3    H144795   0.381   6.258  12.505 -0.8426  0.5126  0.0581
 7768TIP3    H244796   0.434   6.292  12.367 -1.9124  0.4046 -0.3918
 7769TIP3   OH244797   2.440   5.761   3.687  0.1561  0.4423 -0.7618
 7769TIP3    H144798   2.403   5.815   3.757  0.6476  0.4499 -0.5071
 7769TIP3    H244799   2.363   5.723   3.644 -0.1490 -1.4389  1.2539
 7770TIP3   OH244800   5.210   5.368  10.656  1.0061 -0.7985 -0.1462
 7770TIP3    H144801   5.164   5.295  10.615  0.4659  0.1514 -1.2960
 7770TIP3    H244802   5.141   5.415  10.704  1.2381 -0.7330  0.1224
 7771TIP3   OH244803   3.763   4.602  15.778  0.1099 -0.6718  0.5628
 7771TIP3    H144804   3.841   4.653  15.802  0.6847 -0.7544 -1.0349
 7771TIP3    H244805   3.692   4.644  15.826  0.6695  1.2501 -0.1942
 7772TIP3   OH244806   4.253   0.192   2.753 -0.4933  0.4768  0.2377
 7772TIP3    H144807   4.234   0.168   2.663 -0.7699  0.6796  0.2405
 7772TIP3    H244808   4.267   0.287   2.750 -0.3260  0.4577  0.3785
 7773TIP3   OH244809   5.138   0.653  10.632 -0.1838 -0.6988  0.0392
 7773TIP3    H144810   5.198   0.707  10.581  1.4793 -1.1616  1.4170
 7773TIP3    H244811   5.067   0.712  10.656 -1.5170 -0.6484 -3.4136
 7774TIP3   OH244812   6.483   5.884  12.847 -0.1607  0.2601 -0.2193
 7774TIP3    H144813   6.414   5.928  12.897 -0.3281  0.3240 -0.5034
 7774TIP3    H244814   6.563   5.931  12.869 -0.5765  1.8228 -1.8080
 7775TIP3   OH244815   1.695   5.729   0.545 -0.8271 -0.2432  0.2456
 7775TIP3    H144816   1.705   5.644   0.503  2.5127 -0.0261  0.3300
 7775TIP3    H244817   1.775   5.740   0.598 -2.4650  1.7234  2.5593
 7776TIP3   OH244818   2.510   3.974   0.598  0.4148  0.1530 -0.2788
 7776TIP3    H144819   2.563   3.895   0.595  1.0488  0.5942 -2.5061
 7776TIP3    H244820   2.420   3.943   0.581  0.3875 -0.2610  0.5807
 7777TIP3   OH244821   4.256   6.307   2.773  0.0688  0.5052  0.2809
 7777TIP3    H144822   4.233   6.272   2.687  0.6978 -1.4988  0.8671
 7777TIP3    H244823   4.342   6.346   2.761 -0.2068  0.9822 -0.1759
 7778TIP3   OH244824   3.876   0.664   1.908  0.2962  0.3296  0.5410
 7778TIP3    H144825   3.891   0.606   1.982 -1.4379 -1.9188 -0.7201
 7778TIP3    H244826   3.807   0.724   1.937 -3.1234 -2.9004 -0.2035
 7779TIP3   OH244827   0.286   3.106  13.102 -0.3287 -0.4652 -0.2156
 7779TIP3    H144828   0.343   3.181  13.084  1.3373 -1.0458  2.1238
 7779TIP3    H244829   0.309   3.041  13.036  2.3099 -0.9119  1.0242
 7780TIP3   OH244830   6.442   1.058   4.830 -0.5983  0.2888 -0.0497
 7780TIP3    H144831   6.503   0.986   4.844 -0.8920  0.1079  0.3033
 7780TIP3    H244832   6.362   1.017   4.797 -0.5884  0.5075 -0.3520
 7781TIP3   OH244833   1.296   4.503   0.620 -0.3846  0.6550 -0.1920
 7781TIP3    H144834   1.206   4.489   0.591 -0.3854  0.7560 -0.2423
 7781TIP3    H244835   1.331   4.416   0.634  0.1755  0.4955 -2.2191
 7782TIP3   OH244836   1.947   4.728  11.057  0.2575  0.5588  0.1451
 7782TIP3    H144837   1.986   4.752  10.973 -0.5230  2.0598  0.1737
 7782TIP3    H244838   1.909   4.810  11.089 -2.0030 -0.6168  0.5881
 7783TIP3   OH244839   3.077   4.313   4.022  0.1115  0.2010  0.1944
 7783TIP3    H144840   2.996   4.309   4.072  0.3374  0.6182  0.5977
 7783TIP3    H244841   3.133   4.374   4.070  0.5840  0.0901 -0.1983
 7784TIP3   OH244842   2.484   3.355  16.744 -0.4257  0.4167  0.0599
 7784TIP3    H144843   2.509   3.263  16.737 -1.7060  0.0732 -0.2944
 7784TIP3    H244844   2.466   3.382  16.654  2.2326  1.7434 -0.1734
 7785TIP3   OH244845   5.349   3.981   5.251 -0.9018  0.1915 -0.2678
 7785TIP3    H144846   5.277   3.919   5.236 -0.6288  0.2521 -2.0713
 7785TIP3    H244847   5.427   3.925   5.256 -0.8042  0.2812 -0.7024
 7786TIP3   OH244848   2.942   0.418  15.822 -0.4587  0.3844 -0.0651
 7786TIP3    H144849   3.005   0.473  15.776  0.1301  0.7833  1.1512
 7786TIP3    H244850   2.906   0.474  15.891 -1.3300 -0.1684 -0.0438
 7787TIP3   OH244851   5.892   3.503   3.965 -0.7486  0.2775 -0.7940
 7787TIP3    H144852   5.903   3.428   4.024  2.1848  0.4010 -1.0498
 7787TIP3    H244853   5.929   3.577   4.013 -3.5592  1.6637 -0.5683
 7788TIP3   OH244854   3.910   0.880  14.647 -0.2711  0.5866 -0.2504
 7788TIP3    H144855   3.947   0.955  14.599 -1.4782 -0.3992 -2.9180
 7788TIP3    H244856   3.821   0.909  14.671 -0.1987  0.5333  0.0878
 7789TIP3   OH244857   5.370   0.430  12.218 -0.2220  0.2292 -0.6391
 7789TIP3    H144858   5.301   0.443  12.153 -0.5038 -1.3381 -0.6921
 7789TIP3    H244859   5.449   0.465  12.176 -0.3942 -0.7792 -1.8620
 7790TIP3   OH244860   5.889   3.255  12.531 -0.2094  0.0540  0.4197
 7790TIP3    H144861   5.897   3.247  12.436 -2.1604 -1.9775  0.3520
 7790TIP3    H244862   5.907   3.348  12.548  3.3805 -0.0807 -1.4667
 7791TIP3   OH244863   2.511   4.283  11.991  0.1939  0.1036 -0.1451
 7791TIP3    H144864   2.503   4.320  11.903 -1.3929  0.3058  0.0569
 7791TIP3    H244865   2.455   4.338  12.045  2.0870  0.7460  1.2895
 7792TIP3   OH244866   0.570   0.571  16.765  0.1322 -0.5960 -0.7740
 7792TIP3    H144867   0.651   0.614  16.792 -0.2944  0.2376 -0.7994
 7792TIP3    H244868   0.547   0.613  16.681 -0.8355 -0.1336 -0.2933
 7793TIP3   OH244869   4.269   2.539   5.500 -0.2191  0.0497  0.2410
 7793TIP3    H144870   4.308   2.477   5.562  0.3137  1.5752  1.5315
 7793TIP3    H244871   4.302   2.512   5.414  0.9110 -0.7676  0.9000
 7794TIP3   OH244872   1.735   3.276  13.518 -0.2354 -0.7224 -0.5498
 7794TIP3    H144873   1.707   3.190  13.488 -1.9215 -0.2791 -0.3505
 7794TIP3    H244874   1.701   3.337  13.452  1.8686 -0.2542 -1.2805
 7795TIP3   OH244875   0.407   5.317  10.668 -0.2070  0.0165 -0.1667
 7795TIP3    H144876   0.463   5.279  10.735  1.6379  1.0216 -1.0596
 7795TIP3    H244877   0.328   5.345  10.715  0.5359 -0.3662  1.3546
 7796TIP3   OH244878   3.372   5.114  15.492 -0.5748  0.3348  0.8161
 7796TIP3    H144879   3.282   5.125  15.522 -0.2918  1.3464  1.3087
 7796TIP3    H244880   3.408   5.202  15.488  0.3365 -0.0374  0.4072
 7797TIP3   OH244881   6.531   6.607   6.560 -0.2125  0.6189 -0.2270
 7797TIP3    H144882   6.483   6.676   6.515 -0.4129  0.7541  0.1873
 7797TIP3    H244883   6.465   6.562   6.612  0.1191  0.9011  0.4627
 7798TIP3   OH244884   0.626   4.166  12.791  0.0488  0.6406  0.2547
 7798TIP3    H144885   0.682   4.232  12.751  0.4236  0.2302  0.0938
 7798TIP3    H244886   0.561   4.216  12.841  0.2348  1.1285  0.0096
 7799TIP3   OH244887   3.882   1.970  11.838 -0.6313 -0.5888  0.4196
 7799TIP3    H144888   3.956   2.031  11.841 -0.7523 -0.4900  1.8737
 7799TIP3    H244889   3.809   2.023  11.804 -0.0573 -0.7024 -1.0737
 7800TIP3   OH244890   3.111   2.610   6.327 -0.3758  0.4095 -0.4757
 7800TIP3    H144891   3.018   2.594   6.343 -0.9125  2.7619 -0.9655
 7800TIP3    H244892   3.130   2.693   6.370  1.5829 -0.1146 -0.1971
 7801TIP3   OH244893   3.665   1.531  13.231 -0.2122 -0.0953 -0.6864
 7801TIP3    H144894   3.574   1.514  13.257  0.5409 -1.6753  1.1420
 7801TIP3    H244895   3.697   1.592  13.299  0.4336 -0.5074 -0.6184
 7802TIP3   OH244896   3.123   4.030  16.629  0.3479  0.5228  0.5277
 7802TIP3    H144897   3.127   4.122  16.603  0.6610  0.6640  1.0683
 7802TIP3    H244898   3.065   3.990  16.565  0.6487  0.9852 -0.0496
 7803TIP3   OH244899   5.352   1.659  14.646  0.0721 -0.7888  0.2775
 7803TIP3    H144900   5.272   1.619  14.611 -0.1845 -0.6138  0.6585
 7803TIP3    H244901   5.408   1.671  14.569 -0.2032 -1.0583  0.0300
 7804TIP3   OH244902   3.161   3.751  12.074  0.0453 -0.2134 -0.3336
 7804TIP3    H144903   3.165   3.658  12.053 -0.6110  0.0401 -1.7055
 7804TIP3    H244904   3.232   3.765  12.137  0.8023 -1.4423 -0.8845
 7805TIP3   OH244905   0.971   4.462   5.477 -0.1038  0.2052 -0.1417
 7805TIP3    H144906   1.039   4.523   5.449  0.6621 -0.4838  0.1462
 7805TIP3    H244907   0.989   4.449   5.571 -0.3048 -0.3850 -0.1818
 7806TIP3   OH244908   0.835   0.722   0.996 -0.0915  0.7392  0.1471
 7806TIP3    H144909   0.844   0.707   1.090 -2.5643  1.2104  0.5229
 7806TIP3    H244910   0.864   0.640   0.956 -1.9508 -0.6877  1.5336
 7807TIP3   OH244911   4.688   1.874  13.343 -0.3018  0.4212  0.0612
 7807TIP3    H144912   4.630   1.801  13.362 -1.0387  1.1248  0.6170
 7807TIP3    H244913   4.671   1.894  13.251  0.2711 -0.4101 -0.2350
 7808TIP3   OH244914   5.457   6.482  14.136  0.2273 -0.0660 -0.4534
 7808TIP3    H144915   5.537   6.526  14.164 -0.6387  0.1712  1.8084
 7808TIP3    H244916   5.469   6.391  14.162 -0.5118  0.1134  0.5484
 7809TIP3   OH244917   2.645   4.077  15.082 -0.4031 -0.2244  0.3270
 7809TIP3    H144918   2.735   4.045  15.077 -0.3937 -0.0595 -0.8422
 7809TIP3    H244919   2.637   4.136  15.007 -1.6287 -0.6095  0.1405
 7810TIP3   OH244920   1.715   5.947   5.359  1.0282 -0.1024  0.0187
 7810TIP3    H144921   1.771   6.023   5.343 -0.1859  0.4857 -1.6683
 7810TIP3    H244922   1.702   5.908   5.273  1.4363 -2.1405  0.8150
 7811TIP3   OH244923   1.383   0.649   2.595  0.0711 -0.4372 -0.1563
 7811TIP3    H144924   1.440   0.721   2.564  0.9784  0.0234  2.3493
 7811TIP3    H244925   1.299   0.691   2.613 -0.3661 -0.6493 -1.5797
 7812TIP3   OH244926   5.410   4.598  11.564  0.2277 -0.7810 -0.4996
 7812TIP3    H144927   5.433   4.524  11.620 -0.2230 -1.4281 -1.1371
 7812TIP3    H244928   5.403   4.559  11.476 -1.5344 -0.2888 -0.6051
 7813TIP3   OH244929   0.532   5.897   2.575  0.0356  0.4455 -0.1859
 7813TIP3    H144930   0.484   5.969   2.615  0.4979  0.4813  0.3293
 7813TIP3    H244931   0.469   5.825   2.570 -0.2292  0.6676 -0.0476
 7814TIP3   OH244932   0.290   2.747   3.143 -0.3970  0.2860  0.0301
 7814TIP3    H144933   0.262   2.826   3.097  0.5713  0.0101 -1.0846
 7814TIP3    H244934   0.285   2.678   3.077  0.7811 -0.1677  0.3884
 7815TIP3   OH244935   3.542   5.067  16.587  0.0425  0.2895 -0.0303
 7815TIP3    H144936   3.462   5.119  16.586 -0.6232 -0.6845  0.6622
 7815TIP3    H244937   3.529   5.004  16.658  1.5049  0.2325  0.2214
 7816TIP3   OH244938   2.557   3.105  15.044 -0.2918  0.0919 -0.1513
 7816TIP3    H144939   2.588   3.183  15.090  0.1555  0.1941 -0.6175
 7816TIP3    H244940   2.579   3.033  15.103 -0.8167  0.3218  0.3348
 7817TIP3   OH244941   6.231   4.110  14.273 -0.2005 -0.2715 -0.1743
 7817TIP3    H144942   6.148   4.149  14.298 -0.1345  0.2725 -0.8118
 7817TIP3    H244943   6.216   4.015  14.279 -0.3653 -0.1762  1.3307
 7818TIP3   OH244944   4.938   3.721  15.854 -0.0707 -0.2030 -1.0292
 7818TIP3    H144945   4.921   3.640  15.903  0.6616 -0.3362 -0.9799
 7818TIP3    H244946   4.987   3.692  15.777 -0.3087  0.1307 -1.3086
 7819TIP3   OH244947   4.899   6.244  13.759 -0.5067  0.4564  0.5029
 7819TIP3    H144948   4.868   6.156  13.776 -2.7661  0.7717 -1.4276
 7819TIP3    H244949   4.888   6.256  13.664  2.2988  1.9172  0.2243
 7820TIP3   OH244950   2.148   0.719  16.409  0.2826 -0.4955 -0.4296
 7820TIP3    H144951   2.058   0.698  16.431  0.0183  1.5696  0.7430
 7820TIP3    H244952   2.188   0.744  16.493  1.4816  0.1658 -1.1655
 7821TIP3   OH244953   4.595   4.609   1.938  0.3320  0.1364  0.1976
 7821TIP3    H144954   4.594   4.705   1.933 -2.1575  0.1071 -1.0081
 7821TIP3    H244955   4.594   4.580   1.847 -0.6449 -1.0225  0.5581
 7822TIP3   OH244956   2.934   5.273  13.188  0.2311  0.2005  0.1022
 7822TIP3    H144957   2.922   5.195  13.133  0.4319 -0.0088  0.3545
 7822TIP3    H244958   2.951   5.238  13.275 -0.3065  0.5350  0.3483
 7823TIP3   OH244959   0.985   2.419   3.116 -0.1799  0.0769  0.0239
 7823TIP3    H144960   0.908   2.399   3.169 -0.4353  1.4185  0.2147
 7823TIP3    H244961   0.950   2.473   3.045  0.4654 -0.0141 -0.3639
 7824TIP3   OH244962   3.693   6.795   0.054 -0.0507  0.0330 -0.3199
 7824TIP3    H144963   3.731   6.768   0.137  2.2903  0.8935 -1.0312
 7824TIP3    H244964   3.636   6.869   0.076  1.3741  0.9510  0.4528
 7825TIP3   OH244965   1.542   4.149  13.447  0.0699  0.3807  0.4092
 7825TIP3    H144966   1.485   4.083  13.484  0.1402  1.1426  1.9427
 7825TIP3    H244967   1.630   4.111  13.455 -0.0445 -0.0623 -0.3473
 7826TIP3   OH244968   4.141   4.682   6.257  0.5368  0.4083  0.1843
 7826TIP3    H144969   4.099   4.740   6.321 -0.2667  0.3262 -0.2588
 7826TIP3    H244970   4.207   4.634   6.308  1.4940  1.9746  0.4906
 7827TIP3   OH244971   5.755   5.643   0.988 -0.2533 -0.5980 -0.0614
 7827TIP3    H144972   5.716   5.672   1.070  0.1975 -2.3767  0.8394
 7827TIP3    H244973   5.683   5.643   0.926 -0.8299 -0.1918  0.5924
 7828TIP3   OH244974   6.087   4.211  12.817 -0.2085 -0.2720 -0.3875
 7828TIP3    H144975   6.002   4.234  12.779  0.1006 -0.1737 -1.0237
 7828TIP3    H244976   6.095   4.267  12.894  0.2273  1.2927 -1.5252
 7829TIP3   OH244977   5.725   2.782   5.228  0.1008 -0.2677  0.2848
 7829TIP3    H144978   5.690   2.760   5.141 -0.2780  2.7219 -0.4332
 7829TIP3    H244979   5.808   2.736   5.233 -0.2754 -1.1935 -1.3052
 7830TIP3   OH244980   3.829   3.560   4.916 -0.5225  0.1120  0.5501
 7830TIP3    H144981   3.859   3.518   4.997  0.1371  0.9777  0.7785
 7830TIP3    H244982   3.897   3.541   4.852  2.2639  4.3671  1.7510
 7831TIP3   OH244983   4.603   2.932  15.695  0.0652 -0.2093 -0.5498
 7831TIP3    H144984   4.678   2.982  15.663  1.9365 -2.2661  0.4188
 7831TIP3    H244985   4.585   2.968  15.782 -0.9358  1.1093 -1.2630
 7832TIP3   OH244986   0.279   4.338  13.138  0.0580  0.0662 -0.0060
 7832TIP3    H144987   0.254   4.431  13.143 -2.6919 -0.5401 -0.9261
 7832TIP3    H244988   0.196   4.291  13.132  1.3659 -2.5328  0.8866
 7833TIP3   OH244989   4.285   2.166  13.885  0.0444  0.7169 -0.2337
 7833TIP3    H144990   4.298   2.180  13.792  0.3588  1.5254 -0.0738
 7833TIP3    H244991   4.287   2.070  13.896 -1.2441  0.5459 -1.2282
 7834TIP3   OH244992   3.961   6.018  15.300 -0.0183 -0.1172  0.1284
 7834TIP3    H144993   3.886   6.022  15.240 -0.5759  0.3994  0.8491
 7834TIP3    H244994   4.037   6.008  15.242 -0.7296 -2.0569 -0.5599
 7835TIP3   OH244995   1.332   6.281   5.971  0.4954 -0.0391  0.1173
 7835TIP3    H144996   1.264   6.338   6.009 -0.1072  0.0436 -1.0241
 7835TIP3    H244997   1.302   6.266   5.881  2.7493  1.2251 -0.9242
 7836TIP3   OH244998   4.888   2.837   2.916  0.7158 -0.0464 -0.1637
 7836TIP3    H144999   4.822   2.903   2.937 -0.5105 -0.6813 -1.7936
 7836TIP3    H245000   4.942   2.878   2.849 -0.2223 -0.7404 -1.3886
 7837TIP3   OH245001   5.567   2.501   2.938 -0.7988 -0.3047  0.4303
 7837TIP3    H145002   5.488   2.452   2.956 -1.4241  0.5002 -0.0307
 7837TIP3    H245003   5.638   2.449   2.976 -1.6424 -0.5611  1.6769
 7838TIP3   OH245004   4.964   3.388  14.719 -0.1422 -0.3616 -0.6120
 7838TIP3    H145005   5.040   3.368  14.664 -1.1967 -1.5094 -1.7315
 7838TIP3    H245006   4.888   3.371  14.662 -1.2580 -0.0715  0.7256
 7839TIP3   OH245007   6.586   4.712   4.199  0.1703 -0.0566 -0.3405
 7839TIP3    H145008   6.670   4.731   4.158 -0.2097 -0.6313 -1.4022
 7839TIP3    H245009   6.522   4.716   4.128 -0.8235  1.0524  0.5491
 7840TIP3   OH245010   1.072   1.760  17.189  0.2879  0.6804 -0.6906
 7840TIP3    H145011   1.124   1.727  17.263 -0.1225  3.2976  0.8766
 7840TIP3    H245012   1.120   1.837  17.158 -0.8757  1.1093 -1.4879
 7841TIP3   OH245013   2.878   2.533  16.478  0.0547 -0.3847 -0.0464
 7841TIP3    H145014   2.910   2.476  16.547  1.0311  0.8031  0.5064
 7841TIP3    H245015   2.783   2.522  16.480 -0.0630  0.5072  2.3140
 7842TIP3   OH245016   3.921   0.385  11.931  0.3220  0.0474  0.4259
 7842TIP3    H145017   3.876   0.342  11.858 -0.4791  0.7999  0.4474
 7842TIP3    H245018   3.974   0.453  11.889  0.8896 -0.3784  0.4523
 7843TIP3   OH245019   2.100   1.755  11.247  0.5063  0.4486  0.3649
 7843TIP3    H145020   2.032   1.816  11.219  1.1326  1.3752  0.7970
 7843TIP3    H245021   2.059   1.705  11.319  0.0281  0.4221  0.0819
 7844TIP3   OH245022   5.784   3.203  14.063  0.6676 -0.1333  0.2953
 7844TIP3    H145023   5.794   3.263  14.137 -0.6025  0.1223  0.2937
 7844TIP3    H245024   5.766   3.118  14.103  1.5432 -0.3255  0.2889
 7845TIP3   OH245025   0.377   6.538  12.125 -0.4505  0.1527 -0.7465
 7845TIP3    H145026   0.427   6.619  12.113  3.3673 -2.0817 -1.8801
 7845TIP3    H245027   0.358   6.508  12.036 -2.5503  0.1113 -0.3346
 7846TIP3   OH245028   3.863   1.802   1.556  0.2267  0.6073  0.3207
 7846TIP3    H145029   3.952   1.806   1.590  1.5231  1.2240 -2.7859
 7846TIP3    H245030   3.850   1.711   1.531  0.0342  0.5514  0.6172
 7847TIP3   OH245031   5.983   1.615  11.523 -0.0867 -1.0131 -0.6499
 7847TIP3    H145032   5.976   1.580  11.612 -2.1881 -2.7504 -1.4286
 7847TIP3    H245033   6.071   1.589  11.495 -0.6131 -3.4900 -0.2390
 7848TIP3   OH245034   5.103   5.221  15.733 -0.0652  0.1138 -0.5957
 7848TIP3    H145035   5.198   5.223  15.742 -0.0639  1.1421 -0.6737
 7848TIP3    H245036   5.072   5.174  15.810  0.4440  0.8385  0.0658
 7849TIP3   OH245037   6.686   0.732   0.704 -0.0663 -0.2821  0.1051
 7849TIP3    H145038   6.743   0.735   0.781 -0.9733  0.6566  0.7671
 7849TIP3    H245039   6.714   0.654   0.657 -0.0220 -1.3531  1.8190
 7850TIP3   OH245040   6.418   0.663   1.391 -0.1290  0.2484 -0.5404
 7850TIP3    H145041   6.510   0.671   1.415 -0.4719  1.1658  0.5091
 7850TIP3    H245042   6.393   0.577   1.425  0.2769  0.0671 -0.6790
 7851TIP3   OH245043   6.168   1.436  11.961  0.3240 -0.4092 -0.8696
 7851TIP3    H145044   6.134   1.473  12.043  3.2952  0.8763 -0.0961
 7851TIP3    H245045   6.106   1.466  11.895 -2.9196 -2.5733  0.9146
 7852TIP3   OH245046   0.329   4.267   2.477  0.1687  0.1521 -0.1391
 7852TIP3    H145047   0.409   4.267   2.530 -1.1551  1.2387  1.9847
 7852TIP3    H245048   0.350   4.324   2.403  1.5250 -0.0511  0.0542
 7853TIP3   OH245049   3.206   5.433   2.053  0.9551 -0.2826  0.7358
 7853TIP3    H145050   3.229   5.417   1.962  2.1185 -0.0971  0.9830
 7853TIP3    H245051   3.222   5.527   2.066 -1.7244  0.3175  0.4506
 7854TIP3   OH245052   6.313   0.201  13.318  0.1553  0.5401 -0.5428
 7854TIP3    H145053   6.257   0.255  13.375  1.7891  0.7123  0.9744
 7854TIP3    H245054   6.362   0.264  13.266  0.1386  0.4301 -0.6929
 7855TIP3   OH245055   1.348   4.319  16.963  0.3691  0.2563 -0.3171
 7855TIP3    H145056   1.373   4.230  16.939  0.3089  0.6258 -1.8948
 7855TIP3    H245057   1.253   4.315  16.972  0.3384  0.2030 -0.6349
 7856TIP3   OH245058   2.479   2.116  16.727 -0.5189  0.5373  0.3609
 7856TIP3    H145059   2.536   2.190  16.705 -2.5837  1.6498 -1.7442
 7856TIP3    H245060   2.435   2.143  16.807 -0.0007  0.7987  0.5659
 7857TIP3   OH245061   6.311   4.647  16.046 -0.1841  0.2544  0.1309
 7857TIP3    H145062   6.275   4.700  15.975 -0.5198 -0.6251 -0.3726
 7857TIP3    H245063   6.294   4.556  16.019 -0.2389 -0.0955  1.2943
 7858TIP3   OH245064   3.697   5.220   5.488 -0.4290 -0.0322 -0.0022
 7858TIP3    H145065   3.700   5.140   5.541  2.1602 -0.8401 -1.2096
 7858TIP3    H245066   3.782   5.262   5.504 -1.1912  1.7761 -0.4664
 7859TIP3   OH245067   0.342   2.773   4.729  0.0271  0.1220  0.0640
 7859TIP3    H145068   0.386   2.755   4.812  1.3238  1.0779 -0.3822
 7859TIP3    H245069   0.299   2.690   4.706 -0.4062 -0.1459  1.6900
 7860TIP3   OH245070   4.020   0.680   5.213  0.4374 -0.1486  0.6720
 7860TIP3    H145071   4.099   0.629   5.228  1.2594  0.9267  0.1482
 7860TIP3    H245072   4.051   0.762   5.175 -0.9915 -0.0471 -0.3814
 7861TIP3   OH245073   5.027   3.768   1.309 -0.5086  0.1971  0.4250
 7861TIP3    H145074   4.969   3.760   1.233 -0.3109 -0.0644  0.2969
 7861TIP3    H245075   5.109   3.726   1.280 -0.4577  0.0336  0.8106
 7862TIP3   OH245076   5.227   6.143  12.088  0.5521  0.4087 -0.2089
 7862TIP3    H145077   5.278   6.103  12.018 -0.5680  0.0841 -0.8673
 7862TIP3    H245078   5.174   6.071  12.122  1.4099  0.4457  1.3122
 7863TIP3   OH245079   1.130   3.642  17.242  0.2922  0.4634  0.4962
 7863TIP3    H145080   1.047   3.646  17.194 -0.1216 -1.4570  0.9952
 7863TIP3    H245081   1.105   3.644  17.334  0.8185  0.2062  0.6494
 7864TIP3   OH245082   5.813   5.806  11.695 -0.1665  0.5604  0.3106
 7864TIP3    H145083   5.835   5.873  11.761  0.2308 -0.0345  0.7922
 7864TIP3    H245084   5.874   5.735  11.713 -0.1065  0.3613 -0.6640
 7865TIP3   OH245085   6.625   5.084   2.450 -0.7981  0.0775  0.4923
 7865TIP3    H145086   6.626   5.162   2.506  0.5326  2.0635 -2.0556
 7865TIP3    H245087   6.631   5.010   2.510 -0.7086  1.9909  2.9760
 7866TIP3   OH245088   6.628   4.806   0.707 -0.4870 -0.1483  0.6892
 7866TIP3    H145089   6.722   4.824   0.711 -0.3275 -1.1743  2.5192
 7866TIP3    H245090   6.604   4.825   0.616  2.1069 -2.8597 -0.7231
 7867TIP3   OH245091   3.280   3.325   1.300  0.2693  0.0306  0.0817
 7867TIP3    H145092   3.350   3.322   1.365 -0.5048 -0.7316  0.9013
 7867TIP3    H245093   3.223   3.396   1.329  0.0812 -0.1134  0.0669
 7868TIP3   OH245094   2.746   5.220  13.936  0.1147  0.5854 -0.4081
 7868TIP3    H145095   2.777   5.155  13.873 -0.4560  1.4753 -1.6247
 7868TIP3    H245096   2.826   5.265  13.965  0.3650  0.2681 -0.5937
 7869TIP3   OH245097   0.433   6.638  11.631 -0.0333 -0.2987 -0.2999
 7869TIP3    H145098   0.521   6.661  11.604  0.9250 -1.4000  1.6632
 7869TIP3    H245099   0.395   6.720  11.664  0.6162 -0.0222 -0.2352
 7870TIP3   OH245100   0.238   4.122   6.212  0.0855 -0.6039 -0.1012
 7870TIP3    H145101   0.286   4.052   6.255 -0.2100 -0.8954 -0.2384
 7870TIP3    H245102   0.194   4.168   6.283 -1.9135 -2.2173 -0.1856
 7871TIP3   OH245103   4.989   3.038  14.288  0.6397 -0.0092 -0.0160
 7871TIP3    H145104   4.906   3.003  14.320  0.0436  0.3704 -1.0881
 7871TIP3    H245105   4.994   3.126  14.326 -0.0792  0.4508 -0.9386
 7872TIP3   OH245106   3.225   5.798  11.642 -0.2281  0.0402  0.0008
 7872TIP3    H145107   3.259   5.792  11.553  3.8744 -2.8773  1.4719
 7872TIP3    H245108   3.279   5.866  11.683 -2.3410  1.6373  0.2675
 7873TIP3   OH245109   4.822   3.833   3.178  0.1053 -0.2464 -0.3431
 7873TIP3    H145110   4.848   3.795   3.262 -2.0935  1.5723  1.2832
 7873TIP3    H245111   4.894   3.891   3.155 -0.0007  0.5706  1.2381
 7874TIP3   OH245112   4.657   5.654   6.026  0.0310 -0.1418 -0.1354
 7874TIP3    H145113   4.707   5.586   6.072  1.5141  0.0652 -1.3860
 7874TIP3    H245114   4.612   5.701   6.096  0.2933 -1.3614  0.8943
 7875TIP3   OH245115   3.851   3.583  11.752 -0.4317 -0.3866  0.1864
 7875TIP3    H145116   3.863   3.650  11.820 -0.6149 -0.9062  0.7486
 7875TIP3    H245117   3.817   3.630  11.677 -1.5024  0.0122  0.8930
 7876TIP3   OH245118   4.184   5.748  15.610 -0.0239 -0.5820 -0.1272
 7876TIP3    H145119   4.242   5.751  15.685  1.3328  1.3375 -1.1492
 7876TIP3    H245120   4.148   5.837  15.604 -2.7686 -1.5888  0.2041
 7877TIP3   OH245121   1.686   1.450  15.095 -0.1005  0.4588 -0.1758
 7877TIP3    H145122   1.620   1.498  15.046 -0.0526 -0.8860 -1.6396
 7877TIP3    H245123   1.677   1.359  15.065  0.6299 -0.2336  1.5775
 7878TIP3   OH245124   1.352   2.039   6.717 -0.7825 -0.1071  0.3382
 7878TIP3    H145125   1.317   1.998   6.638 -0.5456  0.0454  0.1560
 7878TIP3    H245126   1.435   1.995   6.733 -0.6439  0.1296  0.2812
 7879TIP3   OH245127   3.055   4.059   0.143 -0.3851  0.1875 -0.0887
 7879TIP3    H145128   2.984   3.996   0.136 -0.7504  0.5891 -0.0648
 7879TIP3    H245129   3.134   4.008   0.129 -0.5790 -0.5218  1.2779
 7880TIP3   OH245130   5.138   0.335  16.416 -0.5914  0.3170  0.4469
 7880TIP3    H145131   5.116   0.346  16.324  0.4525 -2.8633 -0.2756
 7880TIP3    H245132   5.055   0.310  16.458 -0.8404  0.6988  0.1918
 7881TIP3   OH245133   0.588   5.351   0.742  0.2647  0.6484  0.3521
 7881TIP3    H145134   0.618   5.391   0.824  2.2380 -0.3084  0.1639
 7881TIP3    H245135   0.597   5.420   0.677  2.0009  0.4664  0.3419
 7882TIP3   OH245136   3.355   2.574   2.650  0.3626  0.1027 -0.2539
 7882TIP3    H145137   3.287   2.597   2.713 -0.2112 -0.5265 -0.6245
 7882TIP3    H245138   3.390   2.491   2.683  0.0559 -0.2310 -0.7528
 7883TIP3   OH245139   1.201   1.085  12.960 -0.0350 -0.5324 -0.1859
 7883TIP3    H145140   1.115   1.081  12.919  0.1411  3.4880 -1.3806
 7883TIP3    H245141   1.261   1.049  12.894 -0.4611 -0.3285 -0.6883
 7884TIP3   OH245142   1.056   4.128  15.549  0.1008  0.2230  0.0919
 7884TIP3    H145143   0.995   4.197  15.525  0.6396  0.2846 -1.1757
 7884TIP3    H245144   1.069   4.139  15.643 -0.6344  1.1736  0.0950
 7885TIP3   OH245145   4.541   4.346   4.728 -0.5133 -1.0491  0.0774
 7885TIP3    H145146   4.576   4.262   4.698  0.9884 -0.6364  0.5639
 7885TIP3    H245147   4.614   4.408   4.718 -1.2873 -0.0045  0.6177
 7886TIP3   OH245148   5.666   0.514   2.452  0.2291  0.4859 -0.3006
 7886TIP3    H145149   5.719   0.592   2.470 -0.8278  1.4433 -1.1516
 7886TIP3    H245150   5.613   0.539   2.377 -1.7377 -0.2597  0.7699
 7887TIP3   OH245151   4.693   1.053   2.418  0.5222 -0.4644 -0.6042
 7887TIP3    H145152   4.783   1.043   2.450  0.8191 -1.3103 -1.6518
 7887TIP3    H245153   4.653   1.114   2.480  0.7613 -2.7461  2.0394
 7888TIP3   OH245154   1.884   0.092  15.702 -0.1891 -0.4901  0.3458
 7888TIP3    H145155   1.885   0.132  15.789 -2.4078 -0.4562  0.4305
 7888TIP3    H245156   1.971   0.109  15.666  0.1379  1.1963  1.8074
 7889TIP3   OH245157   2.932   6.636   0.480  0.1944  0.2768  0.5167
 7889TIP3    H145158   2.932   6.731   0.486  0.6905  0.4265 -1.3141
 7889TIP3    H245159   2.927   6.606   0.571 -0.6822  2.0316  1.0806
 7890TIP3   OH245160   2.699   6.179  13.434  0.2109  0.1011 -0.4524
 7890TIP3    H145161   2.720   6.110  13.371 -0.6474 -0.8935  0.3017
 7890TIP3    H245162   2.740   6.150  13.515 -3.3351 -1.6714  0.9551
 7891TIP3   OH245163   4.840   6.102  11.037 -0.5516 -0.0376  0.8057
 7891TIP3    H145164   4.890   6.163  10.984 -0.5334 -0.8628 -0.1613
 7891TIP3    H245165   4.835   6.142  11.123 -2.9552  2.7397 -0.4554
 7892TIP3   OH245166   6.691   2.973   1.772 -0.3299 -0.0580 -0.7554
 7892TIP3    H145167   6.746   2.972   1.850 -1.2347  0.5401 -0.0850
 7892TIP3    H245168   6.607   2.938   1.802 -1.3742  2.1282 -0.8810
 7893TIP3   OH245169   6.714   5.159  13.975  0.2382 -0.4589 -0.0774
 7893TIP3    H145170   6.697   5.250  14.000 -0.5349 -0.6819  0.2417
 7893TIP3    H245171   6.646   5.108  14.020  1.4089 -1.3442  0.7335
 7894TIP3   OH245172   1.217   0.135   5.747  0.5764  0.0905 -0.0002
 7894TIP3    H145173   1.186   0.156   5.658  1.0924  2.3356  0.2806
 7894TIP3    H245174   1.246   0.044   5.741  2.3150  0.6883 -2.6724
 7895TIP3   OH245175   1.169   5.290   5.778 -0.2201 -0.5059 -0.1110
 7895TIP3    H145176   1.096   5.314   5.834 -1.0659 -1.7471 -0.6408
 7895TIP3    H245177   1.153   5.337   5.696  0.1773  0.0771  0.1376
 7896TIP3   OH245178   2.331   6.685  13.246  0.2009  0.5980 -0.1964
 7896TIP3    H145179   2.389   6.668  13.321 -0.2041  0.5463  0.1063
 7896TIP3    H245180   2.326   6.601  13.201 -1.6215 -0.0936  1.1774
 7897TIP3   OH245181   2.326   3.975   4.941  0.5174 -0.3219 -0.1433
 7897TIP3    H145182   2.299   3.950   5.029 -0.6310 -0.3816 -0.4931
 7897TIP3    H245183   2.344   4.069   4.947 -3.6357  0.7246 -0.6706
 7898TIP3   OH245184   2.583   1.439  15.155  0.3642 -0.4698  0.3770
 7898TIP3    H145185   2.636   1.460  15.078 -0.0627 -1.0544 -0.0903
 7898TIP3    H245186   2.643   1.397  15.216  1.1589  1.7142  1.1912
 7899TIP3   OH245187   3.280   0.259   2.486  0.0447 -0.1354 -0.5864
 7899TIP3    H145188   3.192   0.270   2.448  0.8706 -1.5687 -3.1507
 7899TIP3    H245189   3.324   0.342   2.468 -1.2872  1.4766  2.6485
 7900TIP3   OH245190   4.700   5.069  16.700 -0.1080 -0.0093 -0.2146
 7900TIP3    H145191   4.696   5.157  16.661  0.1795  0.2845  0.4050
 7900TIP3    H245192   4.617   5.029  16.676 -0.5460  0.6923  0.0944
 7901TIP3   OH245193   4.395   2.312  16.024  0.6719  0.0367  0.7379
 7901TIP3    H145194   4.410   2.262  15.944 -0.9695  1.4309 -0.5060
 7901TIP3    H245195   4.390   2.246  16.093  0.1240 -1.3878 -0.6074
 7902TIP3   OH245196   2.914   3.286   3.469  0.0548 -0.1407 -0.1102
 7902TIP3    H145197   2.998   3.251   3.439  0.8810  1.7516 -0.1398
 7902TIP3    H245198   2.937   3.349   3.538 -1.5719 -1.9151  2.2368
 7903TIP3   OH245199   0.470   5.517   0.221 -0.1224 -0.4146  0.3365
 7903TIP3    H145200   0.397   5.465   0.189 -0.6050 -0.8498  2.0349
 7903TIP3    H245201   0.515   5.460   0.284 -0.8484  1.2246  2.4909
 7904TIP3   OH245202   2.462   1.585   4.285  0.0691  0.3905  0.1600
 7904TIP3    H145203   2.552   1.588   4.317  0.1083 -0.1113  0.0994
 7904TIP3    H245204   2.446   1.492   4.267  0.0218  0.6513 -1.2105
 7905TIP3   OH245205   1.698   1.930  12.915  0.3698 -0.1739  0.8579
 7905TIP3    H145206   1.789   1.935  12.945  0.4620  0.1788  0.5309
 7905TIP3    H245207   1.685   2.010  12.864  0.4065 -1.0417 -0.5814
 7906TIP3   OH245208   3.147   3.495  12.011  0.6286  0.0713  0.3494
 7906TIP3    H145209   3.082   3.450  11.956 -2.9111  3.4393  1.2659
 7906TIP3    H245210   3.221   3.510  11.952 -0.7100 -1.2468 -1.8349
 7907TIP3   OH245211   5.367   3.099   5.121 -0.0507 -0.6140  0.3778
 7907TIP3    H145212   5.329   3.142   5.044  1.2191 -2.5867 -1.4569
 7907TIP3    H245213   5.457   3.131   5.125  0.4505 -1.9010 -0.1136
 7908TIP3   OH245214   0.028   2.342   4.847 -0.0457 -0.2968 -0.9146
 7908TIP3    H145215   0.058   2.252   4.856 -0.7371 -0.5144 -0.6559
 7908TIP3    H245216  -0.066   2.337   4.867  0.6144  1.1801  4.0036
 7909TIP3   OH245217   3.402   3.433   0.855  0.0905 -0.3005 -0.4517
 7909TIP3    H145218   3.358   3.349   0.854 -0.4752 -0.0418  1.0140
 7909TIP3    H245219   3.341   3.492   0.898  2.1571 -0.1344  2.5550
 7910TIP3   OH245220   6.081   2.457  10.866  0.1519 -0.0751 -0.7404
 7910TIP3    H145221   6.052   2.548  10.864 -2.3056 -0.5995  2.5267
 7910TIP3    H245222   6.177   2.462  10.861  0.0864  2.6952 -0.4868
 7911TIP3   OH245223   1.739   1.761  13.382 -0.2464  0.1880  0.5247
 7911TIP3    H145224   1.652   1.729  13.358  0.0726 -0.2809 -0.0372
 7911TIP3    H245225   1.736   1.855  13.364 -0.4055  0.0525 -0.2126
 7912TIP3   OH245226   5.033   4.623   3.229  0.5892 -0.2996  0.1077
 7912TIP3    H145227   4.959   4.683   3.243  0.2165 -0.8066  0.3414
 7912TIP3    H245228   5.037   4.571   3.309  1.5814  0.1107  0.3450
 7913TIP3   OH245229   5.026   6.504   4.538 -0.1131  0.3288  0.4326
 7913TIP3    H145230   4.935   6.481   4.517  0.9635 -2.5465 -1.7624
 7913TIP3    H245231   5.039   6.591   4.500 -1.5580  0.1589 -0.5152
 7914TIP3   OH245232   0.297   0.849   0.241 -0.3302  0.3575  0.1736
 7914TIP3    H145233   0.347   0.855   0.159 -1.0955  2.1905 -0.2139
 7914TIP3    H245234   0.363   0.855   0.310  0.0427  5.4457 -0.2619
 7915TIP3   OH245235   1.390   0.369  12.061  0.1771 -0.4737  0.1105
 7915TIP3    H145236   1.377   0.305  12.131  2.4256  0.4104  1.4395
 7915TIP3    H245237   1.464   0.335  12.011 -0.0690 -0.0396 -0.5630
 7916TIP3   OH245238   0.900   2.007   2.402 -0.2027  0.7932  0.1965
 7916TIP3    H145239   0.930   2.023   2.312 -1.6888  1.2846 -0.2354
 7916TIP3    H245240   0.948   2.072   2.454 -0.0594  1.1635 -0.3839
 7917TIP3   OH245241   4.194   5.549  15.963 -0.5084  0.2274 -0.3025
 7917TIP3    H145242   4.100   5.567  15.970 -0.9273 -0.3441 -3.0042
 7917TIP3    H245243   4.223   5.535  16.053 -2.7859  1.4417  0.7066
 7918TIP3   OH245244   3.754   4.573  13.521 -0.7163  0.0710  0.0746
 7918TIP3    H145245   3.794   4.613  13.444 -0.7998 -0.4928 -0.2634
 7918TIP3    H245246   3.661   4.588  13.512 -0.7210  0.0564  0.0957
 7919TIP3   OH245247   5.918   0.878   5.003 -0.2610  0.1566  0.8394
 7919TIP3    H145248   5.891   0.920   5.085 -0.1719 -0.1657  1.0366
 7919TIP3    H245249   5.900   0.785   5.017 -2.1741  0.3177 -0.2736
 7920TIP3   OH245250   0.538   5.939   4.123  0.3881  0.6253 -0.1605
 7920TIP3    H145251   0.490   5.856   4.123  0.3555  0.5741 -2.8161
 7920TIP3    H245252   0.630   5.912   4.127  0.3650  0.4678 -0.6227
 7921TIP3   OH245253   0.433   2.524   2.319  0.0220 -0.6250  0.1534
 7921TIP3    H145254   0.449   2.557   2.231  0.4797 -0.6483  0.2255
 7921TIP3    H245255   0.361   2.463   2.309  0.0792 -0.6367 -0.2089
 7922TIP3   OH245256   6.616   5.658  13.027 -0.1922  0.2706  0.5098
 7922TIP3    H145257   6.701   5.700  13.013 -0.5488  0.5945 -0.8154
 7922TIP3    H245258   6.553   5.715  12.982 -0.7452 -1.4109 -0.9601
 7923TIP3   OH245259   6.758   5.616   5.761  0.4215  0.3145 -0.3808
 7923TIP3    H145260   6.715   5.537   5.728 -0.0556  1.1517 -1.8813
 7923TIP3    H245261   6.827   5.634   5.697  1.3854  0.3888  0.6615
 7924TIP3   OH245262   3.208   0.077  14.310 -0.4331  0.1206  0.3232
 7924TIP3    H145263   3.271   0.012  14.341  0.0575  0.7947  0.7821
 7924TIP3    H245264   3.197   0.136  14.385 -1.0371  0.4322 -0.0096
 7925TIP3   OH245265   1.386   6.034   2.785  0.2456 -0.4446  0.2419
 7925TIP3    H145266   1.316   6.072   2.838  0.5123  0.5801 -0.1172
 7925TIP3    H245267   1.416   5.958   2.836 -1.4734 -1.2406  0.1464
 7926TIP3   OH245268   3.577   2.410  16.711 -0.0276  0.6692 -0.5680
 7926TIP3    H145269   3.664   2.440  16.687  0.6054 -0.7519 -0.1431
 7926TIP3    H245270   3.561   2.335  16.654  0.2032 -0.7995  1.2133
 7927TIP3   OH245271   2.700   3.449   2.459 -0.1510  0.0521  0.1683
 7927TIP3    H145272   2.763   3.506   2.502  0.6339  0.7274 -1.7855
 7927TIP3    H245273   2.710   3.467   2.366 -1.1193 -2.0223 -0.4038
 7928TIP3   OH245274   4.002   3.263   0.693  0.1836 -0.3424 -0.6828
 7928TIP3    H145275   4.080   3.226   0.734  0.2905  0.7626  0.1351
 7928TIP3    H245276   4.017   3.251   0.599  1.5436  0.2256 -0.5622
 7929TIP3   OH245277   5.328   2.611  13.506 -0.6454 -0.0266 -0.5135
 7929TIP3    H145278   5.241   2.579  13.529 -0.8253  1.2322  0.7216
 7929TIP3    H245279   5.364   2.645  13.588  0.8480 -0.1358 -1.0910
 7930TIP3   OH245280   4.539   1.842   5.357  0.0065 -0.1074 -0.1904
 7930TIP3    H145281   4.544   1.763   5.411 -1.0556 -0.4516 -0.5736
 7930TIP3    H245282   4.578   1.910   5.412 -1.4131 -0.3543  1.2288
 7931TIP3   OH245283   6.091   3.418  14.832  0.0818 -0.0650 -0.0962
 7931TIP3    H145284   6.111   3.332  14.796 -0.5206 -0.1656 -0.2048
 7931TIP3    H245285   6.137   3.479  14.775  1.1596 -0.3397  0.4410
 7932TIP3   OH245286   2.063   4.450   0.272  0.2132 -0.0977 -0.2936
 7932TIP3    H145287   2.053   4.425   0.180  0.7420  3.5063 -1.5018
 7932TIP3    H245288   1.973   4.457   0.305  0.0307 -2.6844 -0.0170
 7933TIP3   OH245289   3.558   4.368   2.509 -0.2804 -0.9643  0.0692
 7933TIP3    H145290   3.539   4.325   2.426 -1.6269 -0.6554  0.2066
 7933TIP3    H245291   3.584   4.296   2.567  0.1174 -1.2455 -0.4445
 7934TIP3   OH245292   4.164   5.906  15.129 -0.7455  0.2609 -0.0760
 7934TIP3    H145293   4.213   5.916  15.047  0.3670 -0.2122  0.5038
 7934TIP3    H245294   4.090   5.850  15.106 -1.4020  1.5123 -1.1174
 7935TIP3   OH245295   3.460   4.999   5.458 -0.6250  0.5235  0.0570
 7935TIP3    H145296   3.424   4.977   5.544 -0.6518 -1.1454 -0.3386
 7935TIP3    H245297   3.549   4.964   5.461 -0.0568  1.9318 -0.0314
 7936TIP3   OH245298   0.331   4.321  15.379  0.2383 -0.0662  0.2895
 7936TIP3    H145299   0.258   4.382  15.366 -0.1439 -0.7709 -1.0458
 7936TIP3    H245300   0.292   4.249  15.430  0.9881  1.2960  2.9504
 7937TIP3   OH245301   6.003   5.068  16.234 -0.0133  0.1668  0.1393
 7937TIP3    H145302   5.979   5.146  16.283 -0.7911  0.5332 -0.7875
 7937TIP3    H245303   6.058   5.101  16.162  0.2099 -0.2188  0.1320
 7938TIP3   OH245304   1.026   5.291  15.698  0.2745  0.0508  0.2351
 7938TIP3    H145305   1.029   5.249  15.784 -1.2499  0.5224  0.5464
 7938TIP3    H245306   1.099   5.252  15.650  1.1690 -0.2224  1.7320
 7939TIP3   OH245307   2.066   5.951  17.284 -0.6979 -0.1061 -0.1072
 7939TIP3    H145308   1.991   5.950  17.224  0.2579 -0.8837 -1.3569
 7939TIP3    H245309   2.132   5.898  17.239  0.8502  1.1479  0.6188
 7940TIP3   OH245310   1.691   3.452   1.878 -0.0709 -0.2622  0.1625
 7940TIP3    H145311   1.599   3.447   1.852  0.5713 -1.8676 -2.2361
 7940TIP3    H245312   1.720   3.538   1.847 -1.1740  1.1846  2.8517
 7941TIP3   OH245313   1.135   2.737   4.805  0.0086  0.3399 -0.0820
 7941TIP3    H145314   1.216   2.772   4.843  0.7598  0.8706 -2.0617
 7941TIP3    H245315   1.157   2.647   4.782 -0.1665  0.2958 -0.0763
 7942TIP3   OH245316   4.028   6.805  14.228 -0.6490  0.1793 -0.1477
 7942TIP3    H145317   3.986   6.831  14.147 -0.2226  1.0073 -0.1155
 7942TIP3    H245318   4.111   6.764  14.201 -0.1588  1.1239 -0.1188
 7943TIP3   OH245319   2.312   6.039   2.060  0.0753  0.7910 -0.0565
 7943TIP3    H145320   2.317   6.124   2.104  0.9103  1.3351 -1.1307
 7943TIP3    H245321   2.307   6.061   1.967  2.2514 -0.3090 -0.5172
 7944TIP3   OH245322   6.127   2.379  16.693 -0.3615  0.0293  0.1108
 7944TIP3    H145323   6.216   2.366  16.659 -1.8179  0.3582 -4.4671
 7944TIP3    H245324   6.110   2.472  16.681 -1.4520 -0.0958  0.6159
 7945TIP3   OH245325   6.359   0.849  13.183  0.4603 -0.1311  0.4205
 7945TIP3    H145326   6.274   0.806  13.197  1.3833 -1.6352  1.6666
 7945TIP3    H245327   6.338   0.925  13.128 -1.3273 -1.9179 -1.5778
 7946TIP3   OH245328   3.819   6.789  11.794 -0.2178 -0.6151  0.3084
 7946TIP3    H145329   3.797   6.744  11.712  0.3413  1.0777 -0.8163
 7946TIP3    H245330   3.735   6.797  11.840 -0.6859 -0.8033 -0.4989
 7947TIP3   OH245331   2.306   5.670  12.067 -0.6391  0.0561  0.5218
 7947TIP3    H145332   2.320   5.576  12.064  0.0782  0.1586  0.5566
 7947TIP3    H245333   2.306   5.697  11.975  1.9898  0.4113  0.5583
 7948TIP3   OH245334   5.388   5.719   5.406 -0.6969 -0.2368  0.0073
 7948TIP3    H145335   5.427   5.739   5.321 -0.2133 -2.6521 -0.4092
 7948TIP3    H245336   5.295   5.706   5.387 -0.6708 -0.3052 -0.0745
 7949TIP3   OH245337   6.132   6.799  14.161  0.4386 -0.0478  0.1558
 7949TIP3    H145338   6.059   6.773  14.217  0.3923  1.6289  0.9380
 7949TIP3    H245339   6.097   6.797  14.072  0.2196 -1.7507  0.2460
 7950TIP3   OH245340   1.259   5.332   2.431  0.2679 -0.1623 -0.3725
 7950TIP3    H145341   1.176   5.312   2.389  0.2498 -0.8147 -0.0389
 7950TIP3    H245342   1.244   5.415   2.476  0.0712  0.1736 -1.0482
 7951TIP3   OH245343   0.608   0.859   0.534  0.5830 -0.2527 -0.0402
 7951TIP3    H145344   0.589   0.818   0.450 -0.6064 -0.2140  0.1851
 7951TIP3    H245345   0.537   0.922   0.546  0.8265 -0.1409  0.9135
 7952TIP3   OH245346   3.982   0.144   2.431 -0.5915 -0.1341 -0.2457
 7952TIP3    H145347   4.000   0.085   2.504 -0.6843  2.4426  2.0318
 7952TIP3    H245348   3.894   0.178   2.449 -0.7635  0.2876 -1.7764
 7953TIP3   OH245349   4.021   0.561  13.167 -0.4816  0.1856  0.1024
 7953TIP3    H145350   4.058   0.559  13.079 -0.4341  0.1464  0.1226
 7953TIP3    H245351   4.043   0.648  13.200  1.5200 -0.5829  0.9394
 7954TIP3   OH245352   4.878   0.782  16.155  0.2225  0.3883 -0.1756
 7954TIP3    H145353   4.931   0.718  16.107 -1.7388 -1.8474  0.4202
 7954TIP3    H245354   4.836   0.731  16.224 -3.9177  1.4944 -1.5548
 7955TIP3   OH245355   2.551   2.018   5.420 -0.8502 -0.1383 -0.1415
 7955TIP3    H145356   2.640   1.990   5.400 -0.7253 -0.1774  0.4380
 7955TIP3    H245357   2.501   1.936   5.423 -0.7858 -0.1716  0.0896
 7956TIP3   OH245358   0.841   2.986  12.117 -0.3614  0.1940 -0.1733
 7956TIP3    H145359   0.857   2.897  12.147  0.2169  0.2367 -0.3422
 7956TIP3    H245360   0.820   3.035  12.197  0.4916  0.1607  0.0731
 7957TIP3   OH245361   5.674   3.888  13.408 -0.4897 -0.3825 -0.0942
 7957TIP3    H145362   5.579   3.884  13.406 -0.4585 -1.1249 -0.7815
 7957TIP3    H245363   5.696   3.894  13.501 -1.2127  0.2392  0.0452
 7958TIP3   OH245364   3.171   6.518  14.504  0.0295  0.4259 -0.0010
 7958TIP3    H145365   3.252   6.470  14.487  0.3993  1.1422 -0.3506
 7958TIP3    H245366   3.101   6.456  14.484  0.4537 -0.8665  2.2188
 7959TIP3   OH245367   5.975   2.782  14.547  0.1505  0.1179 -0.1455
 7959TIP3    H145368   6.037   2.791  14.475 -0.9089  0.7100 -1.0023
 7959TIP3    H245369   5.973   2.869  14.587  1.0415 -0.3073  0.8935
 7960TIP3   OH245370   4.464   0.812   4.679 -0.2546 -0.2830 -0.5928
 7960TIP3    H145371   4.376   0.785   4.708  0.0236  1.1674  1.8737
 7960TIP3    H245372   4.447   0.870   4.604 -1.4560  0.2407  0.0449
 7961TIP3   OH245373   6.540   4.970  11.751  0.1956  0.2313 -0.4297
 7961TIP3    H145374   6.483   4.950  11.676  0.4800  1.4412 -0.9899
 7961TIP3    H245375   6.482   5.014  11.813  0.2819  0.5080 -0.5459
 7962TIP3   OH245376   3.165   1.721   1.972 -0.4241 -0.4747 -0.7253
 7962TIP3    H145377   3.127   1.757   1.892  1.7243  1.2779 -1.0475
 7962TIP3    H245378   3.252   1.691   1.947 -0.1937 -1.1011  0.6929
 7963TIP3   OH245379   1.362   4.818   3.575  0.3008 -0.4820  0.1702
 7963TIP3    H145380   1.334   4.816   3.667 -0.4528 -0.1716 -0.0446
 7963TIP3    H245381   1.457   4.812   3.579  0.2070 -3.1561  0.8913
 7964TIP3   OH245382   1.712   0.012   3.552 -0.2021  0.0265 -0.2820
 7964TIP3    H145383   1.620  -0.012   3.555 -0.5209  0.9594 -1.7422
 7964TIP3    H245384   1.755  -0.051   3.610 -1.4863 -1.6412 -1.0438
 7965TIP3   OH245385   1.320   3.327  15.825 -0.2006  0.2150  0.3586
 7965TIP3    H145386   1.302   3.406  15.876 -0.0074  1.9508 -2.0410
 7965TIP3    H245387   1.254   3.329  15.755  1.2817 -0.4144 -1.1249
 7966TIP3   OH245388   2.524   6.515   2.178 -0.0117  0.0942 -0.2605
 7966TIP3    H145389   2.617   6.539   2.177  0.2563 -0.4636  2.3545
 7966TIP3    H245390   2.480   6.588   2.133  1.6428  0.5601 -1.1996
 7967TIP3   OH245391   2.102   4.684   1.245 -0.2613  0.2819 -0.1023
 7967TIP3    H145392   2.102   4.628   1.323  1.8147  1.8337  1.1098
 7967TIP3    H245393   2.158   4.638   1.182 -1.5515 -0.7337 -0.5780
 7968TIP3   OH245394   3.030   0.539   5.721 -0.1490  0.3850 -0.2191
 7968TIP3    H145395   3.119   0.562   5.695  0.9031  0.0854  2.6776
 7968TIP3    H245396   3.035   0.446   5.745 -0.9584  0.5968  0.8636
 7969TIP3   OH245397   4.073   3.397  14.463 -0.9175 -0.7582 -0.2729
 7969TIP3    H145398   4.038   3.477  14.422  0.6755  0.2657  0.2776
 7969TIP3    H245399   4.152   3.377  14.414  1.1118  0.5615  2.1631
 7970TIP3   OH245400   4.942   5.060   6.370 -0.7550  0.6989 -0.0216
 7970TIP3    H145401   5.006   5.129   6.352  1.0611 -0.4847  1.4460
 7970TIP3    H245402   4.953   5.042   6.464 -0.5002 -2.1674 -0.5074
 7971TIP3   OH245403   2.976   3.654   2.384 -0.2785  0.2517 -0.1189
 7971TIP3    H145404   2.995   3.621   2.296  1.9051  1.9709 -0.3868
 7971TIP3    H245405   2.970   3.749   2.373  1.1604  0.6175  1.7056
 7972TIP3   OH245406   6.484   1.648  16.280  0.4216  0.3042 -0.7254
 7972TIP3    H145407   6.524   1.723  16.324 -0.4923  1.4250 -1.7027
 7972TIP3    H245408   6.548   1.622  16.214 -0.0208  1.4715 -1.6478
 7973TIP3   OH245409   1.051   1.047   5.971 -0.3908 -0.0912 -0.0785
 7973TIP3    H145410   1.044   1.127   6.023 -1.3062  0.4292 -0.9609
 7973TIP3    H245411   1.031   0.977   6.033  1.8373  0.1951  1.0627
 7974TIP3   OH245412   4.602   1.750   0.259  0.2539  0.6141 -0.1438
 7974TIP3    H145413   4.559   1.666   0.246  1.7945  0.0641 -2.4133
 7974TIP3    H245414   4.581   1.775   0.349  0.6033 -2.6850  0.9758
 7975TIP3   OH245415   1.530   6.553   2.054 -0.6818 -0.7342 -0.1992
 7975TIP3    H145416   1.589   6.498   2.003 -0.5609 -0.0407 -0.8233
 7975TIP3    H245417   1.575   6.638   2.060  0.0533 -1.2241  2.4264
 7976TIP3   OH245418   2.374   2.542   2.188  0.1088  0.3612  0.2613
 7976TIP3    H145419   2.344   2.478   2.254 -2.0311  1.1870  0.1584
 7976TIP3    H245420   2.458   2.572   2.222 -0.8928  0.7296  2.6592
 7977TIP3   OH245421   0.683   1.775   5.360  0.2584 -0.1534 -0.3498
 7977TIP3    H145422   0.727   1.785   5.276 -0.1827 -1.3203 -0.7442
 7977TIP3    H245423   0.710   1.851   5.411  0.7629  0.4217 -1.4438
 7978TIP3   OH245424   0.085   5.993  14.384  0.2482 -0.2192  0.4699
 7978TIP3    H145425   0.136   6.074  14.376  0.2886 -0.3594 -0.9935
 7978TIP3    H245426   0.149   5.926  14.405  0.4918 -0.1678 -0.0864
 7979TIP3   OH245427   0.681   0.236  16.698 -0.0626  0.1472  0.0572
 7979TIP3    H145428   0.597   0.262  16.736 -2.6657 -5.1070 -1.1373
 7979TIP3    H245429   0.684   0.280  16.613 -1.2052  1.0558  0.4552
 7980TIP3   OH245430   2.958   5.379   2.918 -0.0397  0.0076  0.0498
 7980TIP3    H145431   3.021   5.335   2.862 -0.0204  1.0820 -0.8190
 7980TIP3    H245432   2.878   5.383   2.866  0.1619  1.6053 -0.2159
 7981TIP3   OH245433   3.392   1.274   5.542  0.3865  0.7902  0.0675
 7981TIP3    H145434   3.485   1.253   5.531  0.3420  0.5689  0.0983
 7981TIP3    H245435   3.355   1.196   5.584 -0.2918 -0.1950 -2.1483
 7982TIP3   OH245436   0.088   2.748   4.954  0.2327  0.0086  0.1805
 7982TIP3    H145437   0.014   2.802   4.982  0.3054  0.3449 -0.2590
 7982TIP3    H245438   0.162   2.808   4.954  0.3363 -0.1141 -0.1995
 7983TIP3   OH245439   5.691   2.595   4.477 -0.1707 -0.2115 -0.4446
 7983TIP3    H145440   5.681   2.563   4.388 -2.1565  2.5935 -1.3798
 7983TIP3    H245441   5.640   2.534   4.531 -2.3834  0.2757 -1.8700
 7984TIP3   OH245442   0.451   1.219  12.865 -0.5973  0.0749 -0.7406
 7984TIP3    H145443   0.439   1.221  12.960 -0.1892 -0.4043 -0.6712
 7984TIP3    H245444   0.528   1.274  12.849  0.1382 -0.8869 -0.6426
 7985TIP3   OH245445   6.746   3.827   4.714  0.1075  0.4129  0.1966
 7985TIP3    H145446   6.674   3.766   4.734  0.3967  0.1947  0.5829
 7985TIP3    H245447   6.818   3.798   4.770  1.0589 -0.4164 -1.3621
 7986TIP3   OH245448   0.009   6.662  16.049 -0.0160  0.3047 -0.3236
 7986TIP3    H145449   0.075   6.685  15.983 -0.2166  1.4079 -0.1562
 7986TIP3    H245450  -0.065   6.719  16.030 -1.0172 -1.0319 -0.6096
 7987TIP3   OH245451   2.199   3.950  12.295 -0.3597  0.0645 -0.4681
 7987TIP3    H145452   2.207   4.045  12.307 -1.3750  0.2180 -0.8273
 7987TIP3    H245453   2.109   3.938  12.264 -0.4212 -1.0709  0.0937
 7988TIP3   OH245454   4.792   5.987   6.176  0.3157 -0.5805  0.1719
 7988TIP3    H145455   4.742   6.002   6.097 -0.7745  0.2732  0.9938
 7988TIP3    H245456   4.742   5.921   6.224 -0.1683  0.4291  1.0968
 7989TIP3   OH245457   2.132   1.252   2.837 -0.0568 -0.2547  0.3060
 7989TIP3    H145458   2.069   1.275   2.769  0.2944 -1.1354 -0.3478
 7989TIP3    H245459   2.149   1.333   2.884  2.7924  1.4667 -3.2040
 7990TIP3   OH245460   0.551   2.709   1.754 -0.0056 -0.0400 -0.2421
 7990TIP3    H145461   0.528   2.773   1.822 -0.3307 -1.7898  1.3855
 7990TIP3    H245462   0.605   2.645   1.800  0.5628 -0.7848 -1.8941
 7991TIP3   OH245463   1.399   0.423  16.135  0.6516 -0.7691  0.1482
 7991TIP3    H145464   1.428   0.485  16.068  0.4570  0.1656  0.8981
 7991TIP3    H245465   1.322   0.464  16.174  1.1256 -0.9722  1.3703
 7992TIP3   OH245466   1.887   4.564   3.341 -0.0130  0.2916  0.0489
 7992TIP3    H145467   1.884   4.525   3.253 -1.2174  0.3277  0.0517
 7992TIP3    H245468   1.943   4.505   3.391  1.2337  0.6231 -0.8928
 7993TIP3   OH245469   5.832   1.883  13.796 -0.0220 -0.6839  0.0682
 7993TIP3    H145470   5.780   1.948  13.844  0.6344  1.1654 -1.5809
 7993TIP3    H245471   5.904   1.861  13.855 -0.0128  0.4329  0.4864
 7994TIP3   OH245472   6.008   5.167   3.013  0.5805  0.3375 -0.2315
 7994TIP3    H145473   6.082   5.168   2.953  1.6164  2.1279  0.9803
 7994TIP3    H245474   5.939   5.215   2.966 -0.1353 -1.8695 -1.6180
 7995TIP3   OH245475   0.856   5.490  16.377  0.1591  0.3652  0.3618
 7995TIP3    H145476   0.774   5.515  16.419  0.4205  0.4200  0.8402
 7995TIP3    H245477   0.833   5.481  16.284 -0.3764  0.4248  0.4840
 7996TIP3   OH245478   1.963   3.387  16.747 -0.0425 -0.3172  0.3631
 7996TIP3    H145479   1.973   3.381  16.652 -2.9016 -2.6309  0.0280
 7996TIP3    H245480   2.039   3.341  16.782 -0.8766 -3.0918 -1.0904
 7997TIP3   OH245481   1.895   0.856   4.607  0.3171 -0.3959 -0.1264
 7997TIP3    H145482   1.974   0.834   4.658 -0.1814 -1.3897  0.2541
 7997TIP3    H245483   1.826   0.801   4.645 -0.9262  1.5320  0.5409
 7998TIP3   OH245484   2.751   4.373  12.454 -0.3025 -0.5524  0.2512
 7998TIP3    H145485   2.677   4.331  12.411 -0.4953  1.3184 -1.4515
 7998TIP3    H245486   2.828   4.326  12.421 -0.5945 -0.7413 -0.1714
 7999TIP3   OH245487   1.053   6.415  15.563  0.4340  0.1353  0.6098
 7999TIP3    H145488   1.034   6.321  15.568 -0.4766  0.3703  2.5436
 7999TIP3    H245489   0.998   6.454  15.632  0.6226  2.1187 -0.3067
 8000TIP3   OH245490   3.592   6.606  12.812 -0.5842  0.0035 -0.4147
 8000TIP3    H145491   3.604   6.700  12.802 -2.7381  0.4596  0.7608
 8000TIP3    H245492   3.498   6.592  12.801 -0.1810 -2.1831 -1.6595
 8001TIP3   OH245493   5.293   2.047   2.946  0.0410 -0.2707 -0.5231
 8001TIP3    H145494   5.199   2.038   2.963 -0.0320 -1.0582 -1.2478
 8001TIP3    H245495   5.327   2.095   3.022 -1.1867  1.4064 -0.9755
 8002TIP3   OH245496   2.590   2.600  16.051  0.2363 -0.6693 -0.0270
 8002TIP3    H145497   2.542   2.561  15.978  0.2761 -0.0308 -0.4020
 8002TIP3    H245498   2.663   2.647  16.010  0.9331 -1.2603  0.5080
 8003TIP3   OH245499   1.083   3.879   6.218 -0.2071  0.2915  0.1546
 8003TIP3    H145500   1.045   3.965   6.238  1.2214  0.9332  0.2259
 8003TIP3    H245501   1.051   3.859   6.130 -2.9842 -0.5354  1.2510
 8004TIP3   OH245502   3.149   5.526   1.389 -0.1460 -0.6814 -0.2187
 8004TIP3    H145503   3.227   5.563   1.347 -0.4138  0.1575 -0.0033
 8004TIP3    H245504   3.169   5.529   1.483 -0.1294 -1.1929 -0.2048
 8005TIP3   OH245505   3.584   3.616   4.483 -0.3329  0.0225  1.2855
 8005TIP3    H145506   3.526   3.691   4.500 -0.4806  0.1346  0.3229
 8005TIP3    H245507   3.584   3.568   4.565  0.2080  1.3638  2.1161
 8006TIP3   OH245508   0.533   5.079   6.519 -0.1324 -0.0586  0.5752
 8006TIP3    H145509   0.628   5.087   6.514 -0.1821  0.3641  0.2764
 8006TIP3    H245510   0.513   5.081   6.613  0.1152  0.2957  0.6201
 8007TIP3   OH245511   1.819   3.930   4.468  0.4309  0.3880 -0.0627
 8007TIP3    H145512   1.797   3.937   4.561 -2.8107  0.1794 -0.6826
 8007TIP3    H245513   1.770   4.001   4.426  1.0654 -0.0913 -1.7009
 8008TIP3   OH245514   5.930   2.098  17.247 -0.0802  0.1874 -0.0491
 8008TIP3    H145515   6.023   2.116  17.232 -0.5075  2.1124 -0.5693
 8008TIP3    H245516   5.930   2.036  17.320  1.6257 -0.3281 -0.4339
 8009TIP3   OH245517   6.019   1.950  14.557  0.3215  0.0936 -0.3710
 8009TIP3    H145518   5.988   2.037  14.583  1.3892  0.4696 -0.2914
 8009TIP3    H245519   6.088   1.968  14.494 -1.0567 -0.7692 -2.2161
 8010TIP3   OH245520   3.785   6.128  15.091  0.1701 -0.0318 -0.5374
 8010TIP3    H145521   3.817   6.177  15.015  0.1588  2.2106  0.8068
 8010TIP3    H245522   3.730   6.059  15.054  1.2915  0.1183 -2.6083
 8011TIP3   OH245523   5.653   6.638   4.698 -0.7015  0.4871  0.5058
 8011TIP3    H145524   5.642   6.619   4.792 -3.9614 -0.2534  0.0934
 8011TIP3    H245525   5.591   6.709   4.681 -1.4549 -0.5647 -1.3841
 8012TIP3   OH245526   3.537   1.961  13.606 -0.5274 -0.4212 -0.1617
 8012TIP3    H145527   3.597   2.027  13.642 -1.2778  0.8022 -1.1004
 8012TIP3    H245528   3.465   1.957  13.670  0.2453 -1.5030  0.6905
 8013TIP3   OH245529   6.121   3.518  13.873 -0.3265  0.1943 -0.3843
 8013TIP3    H145530   6.177   3.565  13.811  2.0364 -0.0831  1.3487
 8013TIP3    H245531   6.126   3.427  13.845 -2.8604  0.5324 -2.2607
 8014TIP3   OH245532   5.727   0.113  12.962  0.5760 -0.4834 -0.7028
 8014TIP3    H145533   5.723   0.208  12.974 -0.6191 -0.7416  1.2786
 8014TIP3    H245534   5.742   0.078  13.050  0.6210 -2.1504 -1.3434
 8015TIP3   OH245535   2.852   0.452   6.132 -0.1506  0.3148 -0.2598
 8015TIP3    H145536   2.826   0.391   6.201 -1.0830  0.4575 -0.4763
 8015TIP3    H245537   2.881   0.530   6.179 -0.2806  0.2156 -0.0137
 8016TIP3   OH245538   6.512   1.517  15.808 -0.4674  0.8036 -0.1734
 8016TIP3    H145539   6.556   1.571  15.742 -0.4510 -0.2164 -1.0287
 8016TIP3    H245540   6.574   1.446  15.826 -1.2075  0.0709 -0.4226
 8017TIP3   OH245541   4.007   1.327   6.578 -0.3747  0.1935  0.8092
 8017TIP3    H145542   3.973   1.248   6.620  0.3775 -0.4044  0.3088
 8017TIP3    H245543   3.929   1.371   6.543 -0.6451 -1.2390 -0.4656
 8018TIP3   OH245544   5.223   4.759   5.106 -0.1055 -0.0997  0.5089
 8018TIP3    H145545   5.294   4.773   5.168  0.6688  0.5553 -0.4958
 8018TIP3    H245546   5.244   4.675   5.064  0.5057  0.4470 -0.3153
 8019TIP3   OH245547   5.526   2.585   5.570  0.2733 -0.0605 -0.1705
 8019TIP3    H145548   5.493   2.655   5.514 -0.6716 -0.6999 -0.4428
 8019TIP3    H245549   5.562   2.520   5.510 -2.4498 -1.6396 -0.2769
 8020TIP3   OH245550   4.509   2.045  10.720 -0.0458 -0.6185 -0.0434
 8020TIP3    H145551   4.524   1.993  10.641  0.9048 -1.1032  0.4498
 8020TIP3    H245552   4.589   2.036  10.771  0.5254  2.0364 -0.3237
 8021TIP3   OH245553   5.552   5.751   5.664 -0.0419 -0.3306  0.0086
 8021TIP3    H145554   5.477   5.710   5.706  0.5713 -1.2716  0.2166
 8021TIP3    H245555   5.541   5.733   5.571 -0.7273  0.6409 -0.1132
 8022TIP3   OH245556   4.953   4.244  15.974  0.2861 -0.2101 -0.1389
 8022TIP3    H145557   4.917   4.294  15.901 -1.3538  1.4994  1.6903
 8022TIP3    H245558   5.038   4.285  15.992  0.1033  0.2317 -0.2816
 8023TIP3   OH245559   5.593   3.431   5.523 -0.0842  0.2541  0.1797
 8023TIP3    H145560   5.645   3.381   5.460  0.1240  1.3816 -0.5817
 8023TIP3    H245561   5.545   3.365   5.573  0.8581 -0.7281 -0.1820
 8024TIP3   OH245562   4.361   3.806   1.729  0.0995  0.3210 -0.0762
 8024TIP3    H145563   4.456   3.804   1.740  0.1504 -0.9182 -0.6410
 8024TIP3    H245564   4.345   3.759   1.647 -1.1293 -0.9756  0.8766
 8025TIP3   OH245565   6.743   3.198  11.909 -0.1740  0.4590  0.4419
 8025TIP3    H145566   6.778   3.261  11.972 -0.5909  2.0129 -0.8022
 8025TIP3    H245567   6.814   3.184  11.848 -0.6391  1.1393 -0.2827
 8026TIP3   OH245568   1.147   6.775   1.650 -0.2439 -0.6768  0.7115
 8026TIP3    H145569   1.168   6.745   1.738  1.6336  1.9959  1.2833
 8026TIP3    H245570   1.219   6.833   1.626 -1.3522 -0.2919 -2.0750
 8027TIP3   OH245571   2.261   1.336  15.340 -0.0843  0.0655  0.3488
 8027TIP3    H145572   2.336   1.279  15.355  0.5343  1.0217  0.9528
 8027TIP3    H245573   2.218   1.298  15.263  0.7462 -0.7634  0.2725
 8028TIP3   OH245574   5.990   5.837  12.203 -0.3100  0.0475 -0.6098
 8028TIP3    H145575   6.051   5.819  12.131  0.9663  4.0660 -0.7788
 8028TIP3    H245576   6.047   5.845  12.280 -1.2645 -0.7375  0.1998
 8029TIP3   OH245577   0.976   3.216  12.355 -0.3496  0.2086  0.5885
 8029TIP3    H145578   0.888   3.178  12.345 -0.6334  0.5274  1.7469
 8029TIP3    H245579   1.022   3.154  12.412  0.0991  0.1809  0.2033
 8030TIP3   OH245580   2.867   2.795  12.042 -0.3519  0.0835  0.2822
 8030TIP3    H145581   2.800   2.779  11.977  0.2270 -0.3644 -0.2140
 8030TIP3    H245582   2.828   2.860  12.101 -2.4843 -2.4125  1.8769
 8031TIP3   OH245583   3.888   4.298   5.426 -0.1376 -0.1898  0.0164
 8031TIP3    H145584   3.884   4.204   5.407 -0.1030 -0.3877  0.9507
 8031TIP3    H245585   3.959   4.330   5.370  0.6319 -0.9471  0.5160
 8032TIP3   OH245586   3.709   6.377   1.209 -0.4568 -0.5403  0.4103
 8032TIP3    H145587   3.711   6.339   1.297 -2.2772  0.9815  1.2067
 8032TIP3    H245588   3.718   6.471   1.224 -0.5143 -0.2842 -1.0561
 8033TIP3   OH245589   3.559   1.843  11.969 -0.4930  0.0937  0.3079
 8033TIP3    H145590   3.469   1.874  11.958 -0.1957  1.5506  1.6447
 8033TIP3    H245591   3.582   1.868  12.059  2.3164  2.7791 -0.9741
 8034TIP3   OH245592   1.186   2.053  12.228  0.2179  0.0019  0.2769
 8034TIP3    H145593   1.095   2.041  12.253  0.8740 -0.7960  2.5095
 8034TIP3    H245594   1.233   1.981  12.271  1.8594  0.1413 -1.1516
 8035TIP3   OH245595   5.486   4.391   2.324  0.3168 -0.6534 -0.2259
 8035TIP3    H145596   5.427   4.324   2.292 -1.1695  1.3150 -1.8189
 8035TIP3    H245597   5.477   4.388   2.420  0.1369 -2.5082 -0.2734
 8036TIP3   OH245598   2.223   5.525  16.823  0.8950 -0.7990 -0.0423
 8036TIP3    H145599   2.222   5.439  16.781 -0.2100 -0.5654 -0.5203
 8036TIP3    H245600   2.194   5.586  16.755  2.5779  0.1142  0.0064
 8037TIP3   OH245601   5.218   2.245   1.616 -0.1562  0.0689 -0.7245
 8037TIP3    H145602   5.127   2.265   1.594  0.1593  0.4590 -1.7382
 8037TIP3    H245603   5.263   2.243   1.531  0.3180 -2.5209 -0.4982
 8038TIP3   OH245604   4.726   2.160  11.861  1.1166 -0.0851 -0.1692
 8038TIP3    H145605   4.776   2.239  11.883 -0.4482  1.1098 -0.6989
 8038TIP3    H245606   4.673   2.142  11.939 -0.4087  0.9325 -0.9327
 8039TIP3   OH245607   4.443   0.692  13.983 -0.1862  0.1161  0.2429
 8039TIP3    H145608   4.484   0.768  14.025  0.5276  0.1269 -0.4510
 8039TIP3    H245609   4.497   0.675  13.906 -1.1081 -0.2844 -0.3372
 8040TIP3   OH245610   1.400   3.054  10.829  0.1610 -0.7651  0.2028
 8040TIP3    H145611   1.397   3.086  10.920  0.4390 -0.2690  0.0429
 8040TIP3    H245612   1.436   3.128  10.779 -1.5902 -0.4240 -0.5976
 8041TIP3   OH245613   2.480   5.385   4.740  0.7740 -0.9360  0.5204
 8041TIP3    H145614   2.389   5.388   4.768  0.4718  0.0124 -0.4660
 8041TIP3    H245615   2.482   5.319   4.670  1.0559 -1.6483  1.1842
 8042TIP3   OH245616   2.028   4.602  14.566 -0.2003  0.7011 -0.0756
 8042TIP3    H145617   2.120   4.587  14.589 -0.4839  1.8137  2.0714
 8042TIP3    H245618   2.010   4.541  14.495  1.6545 -0.9705  0.8048
 8043TIP3   OH245619   4.476   0.499  15.302  0.9440 -0.2318 -0.3875
 8043TIP3    H145620   4.452   0.552  15.226  1.4140 -0.7596 -0.9084
 8043TIP3    H245621   4.560   0.461  15.279  0.9804 -0.5838  0.3073
 8044TIP3   OH245622   5.802   3.696   5.182  0.7618  0.2344  0.1689
 8044TIP3    H145623   5.840   3.741   5.257 -0.4067  0.4151  0.6747
 8044TIP3    H245624   5.871   3.637   5.152  1.5505  0.7895  0.8396
 8045TIP3   OH245625   6.277   1.206   3.132 -0.0363  0.2767 -0.4576
 8045TIP3    H145626   6.235   1.157   3.203 -1.5218  0.6187 -1.0767
 8045TIP3    H245627   6.208   1.261   3.096  1.3403  2.1000 -0.4637
 8046TIP3   OH245628   1.443   0.790   3.610 -0.0137 -0.1855  0.2201
 8046TIP3    H145629   1.439   0.841   3.529 -1.1011 -1.9127 -0.8604
 8046TIP3    H245630   1.536   0.769   3.621  0.2355  0.6884 -0.1464
 8047TIP3   OH245631   6.465   3.998   0.513 -0.1760  0.1419 -0.5176
 8047TIP3    H145632   6.521   4.053   0.458 -0.0359 -0.5730 -1.1056
 8047TIP3    H245633   6.488   3.908   0.488  0.5432 -0.2307  1.3715
 8048TIP3   OH245634   3.603   1.848  11.705 -0.0957  0.2199  0.1057
 8048TIP3    H145635   3.574   1.759  11.686 -0.7331  0.4766 -0.1651
 8048TIP3    H245636   3.617   1.849  11.800 -2.5022  0.4912  0.5195
 8049TIP3   OH245637   1.502   0.366  16.983  0.6875  0.3895  0.2528
 8049TIP3    H145638   1.408   0.347  16.979  0.9275 -0.6295 -1.7934
 8049TIP3    H245639   1.537   0.301  17.043  0.0537  1.0164  1.3322
 8050TIP3   OH245640   2.460   4.240   4.985 -0.3744  0.6092  0.0251
 8050TIP3    H145641   2.507   4.321   5.004  1.5906 -0.8723  1.9936
 8050TIP3    H245642   2.488   4.215   4.897 -0.4598  1.6577 -0.3145
 8051TIP3   OH245643   3.071   4.742  15.838  0.0675  0.3039  0.0482
 8051TIP3    H145644   2.992   4.789  15.812 -0.4150 -0.0021  0.9276
 8051TIP3    H245645   3.085   4.679  15.768 -1.1815 -0.4687  0.4632
 8052TIP3   OH245646   1.848   4.725  13.826  0.4605 -0.1711 -0.3359
 8052TIP3    H145647   1.892   4.643  13.849  0.6689  0.1771  0.5434
 8052TIP3    H245648   1.875   4.743  13.736  2.8484  0.5002  0.4668
 8053TIP3   OH245649   0.899   4.913   6.397  0.1037  0.3078  0.4294
 8053TIP3    H145650   0.973   4.889   6.453  3.1918  2.3209 -2.4183
 8053TIP3    H245651   0.885   5.006   6.414 -1.4983  0.0825  0.5202
 8054TIP3   OH245652   6.021   3.426  17.195  0.4367 -0.5649  0.4588
 8054TIP3    H145653   6.097   3.420  17.253 -1.1735 -2.6283  2.5272
 8054TIP3    H245654   5.980   3.340  17.198 -1.8667  0.3670 -0.7619
 8055TIP3   OH245655   3.307   3.810   5.828  0.0282 -0.5238  0.2407
 8055TIP3    H145656   3.220   3.842   5.852  0.0260 -0.1285 -0.2839
 8055TIP3    H245657   3.361   3.888   5.824 -0.0796 -0.4856 -1.4916
 8056TIP3   OH245658   4.425   2.854  16.905  1.0050  0.0967  0.7489
 8056TIP3    H145659   4.510   2.877  16.942  1.2303  0.7036 -0.1067
 8056TIP3    H245660   4.362   2.907  16.954  1.3169  1.0270  0.1597
 8057TIP3   OH245661   4.810   6.317   5.461  0.0123  0.3776 -0.4924
 8057TIP3    H145662   4.898   6.311   5.424  0.0944  1.1746 -0.4473
 8057TIP3    H245663   4.803   6.242   5.520  0.5883  0.2018 -0.6470
 8058TIP3   OH245664   6.757   1.801  11.813 -0.5296 -0.5155 -1.0442
 8058TIP3    H145665   6.838   1.787  11.862 -1.3526  1.4927  1.0489
 8058TIP3    H245666   6.709   1.718  11.823  0.0198 -0.7120  0.2228
 8059TIP3   OH245667   2.037   0.964  13.159  0.4905  0.0620  0.0493
 8059TIP3    H145668   1.958   0.913  13.179  0.1153  0.5054 -0.2676
 8059TIP3    H245669   2.046   0.956  13.064 -0.4388  1.7911 -0.2291
 8060TIP3   OH245670   6.774   0.660   5.092  0.2804  0.0164  0.0907
 8060TIP3    H145671   6.867   0.639   5.105 -0.3025 -2.4270  0.7583
 8060TIP3    H245672   6.728   0.602   5.152 -1.7241  1.1098 -0.3053
 8061TIP3   OH245673   1.619   2.410  15.015  0.1268  0.3010  0.2077
 8061TIP3    H145674   1.601   2.485  14.958  1.1326 -0.1644 -0.7473
 8061TIP3    H245675   1.703   2.377  14.985  2.3865  1.9358  3.9622
 8062TIP3   OH245676   4.233   5.538   5.106  0.0888  0.2342 -0.2375
 8062TIP3    H145677   4.262   5.447   5.113 -0.8482 -0.0360  0.1895
 8062TIP3    H245678   4.148   5.540   5.148  0.1875  1.3621 -0.0603
 8063TIP3   OH245679   0.025   2.292  15.053  0.4215  0.4477 -0.6266
 8063TIP3    H145680  -0.026   2.361  15.011 -1.3480 -1.2312 -1.3810
 8063TIP3    H245681   0.050   2.235  14.981  0.4105 -0.5939  0.1796
 8064TIP3   OH245682   6.558   0.953   6.081 -0.2565  0.6590 -0.3408
 8064TIP3    H145683   6.558   0.905   5.998  0.3067  1.2260 -0.6783
 8064TIP3    H245684   6.482   1.011   6.074 -1.1717 -0.4254  0.2302
 8065TIP3   OH245685   2.406   5.286   0.683 -0.0170  0.7343 -0.3636
 8065TIP3    H145686   2.465   5.233   0.735  0.6797 -1.5593 -3.2122
 8065TIP3    H245687   2.320   5.248   0.697 -0.3758  2.0265  1.2822
 8066TIP3   OH245688   2.076   4.238  16.658  0.6764  0.8912 -0.4741
 8066TIP3    H145689   1.996   4.218  16.708  1.8902 -0.6937  0.9616
 8066TIP3    H245690   2.054   4.214  16.568 -1.0091  2.1657 -0.4521
 8067TIP3   OH245691   6.507   6.105   0.310 -0.3189 -0.0194 -0.1091
 8067TIP3    H145692   6.535   6.015   0.328  0.8233  0.4831  0.7597
 8067TIP3    H245693   6.519   6.151   0.393  0.4341  1.2456 -0.8844
 8068TIP3   OH245694   4.816   2.333  12.069 -0.3796 -0.2472 -0.1617
 8068TIP3    H145695   4.875   2.399  12.034 -2.0809  1.2707 -0.3158
 8068TIP3    H245696   4.855   2.306  12.152 -0.6586  2.5414  0.9733
 8069TIP3   OH245697   1.255   5.893   5.755 -0.0964  0.7060  0.0041
 8069TIP3    H145698   1.346   5.920   5.768  0.6818 -1.5191 -0.3369
 8069TIP3    H245699   1.233   5.844   5.835 -1.6851  2.7416  0.9172
 8070TIP3   OH245700   3.548   5.401   5.764 -0.2360 -0.4922  0.0689
 8070TIP3    H145701   3.616   5.450   5.718 -0.0489 -1.5773 -0.8752
 8070TIP3    H245702   3.470   5.412   5.709  0.1360 -2.2873 -0.9070
 8071TIP3   OH245703   5.724   0.270  15.479  0.2673 -0.2142  0.7652
 8071TIP3    H145704   5.704   0.362  15.496  0.2518  0.1410 -0.9499
 8071TIP3    H245705   5.639   0.226  15.482  0.0379  0.1440 -0.0436
 8072TIP3   OH245706   4.060   4.629   6.649  0.1485 -0.3934  0.1794
 8072TIP3    H145707   4.038   4.673   6.567  0.8161  2.4607  1.4330
 8072TIP3    H245708   4.006   4.672   6.715 -0.4568 -2.6980  1.2975
 8073TIP3   OH245709   6.241   6.119  15.887 -0.1950  0.5087 -0.5589
 8073TIP3    H145710   6.246   6.117  15.791 -0.6062  1.3098 -0.6009
 8073TIP3    H245711   6.155   6.156  15.906 -0.5208 -0.5547  0.1323
 8074TIP3   OH245712   1.542   4.918  15.420 -0.4378  0.4273  0.3937
 8074TIP3    H145713   1.471   4.891  15.361 -0.2966 -0.5221  0.6358
 8074TIP3    H245714   1.527   4.868  15.500  0.1950  0.6287  0.6465
 8075TIP3   OH245715   3.427   3.652   6.083 -0.4843  0.3847 -0.2285
 8075TIP3    H145716   3.515   3.676   6.115 -1.3360  1.7828  1.2597
 8075TIP3    H245717   3.424   3.557   6.090  1.3928  0.1668 -1.6813
 8076TIP3   OH245718   1.149   4.940  15.743  0.5166 -0.1245  0.2627
 8076TIP3    H145719   1.113   4.979  15.823 -0.9589  0.5228 -0.6700
 8076TIP3    H245720   1.079   4.884  15.710  0.5487  0.6856 -1.2842
 8077TIP3   OH245721   5.459   3.955   2.758  0.2347  0.2620 -0.4265
 8077TIP3    H145722   5.393   3.994   2.701  0.6593  1.1478 -0.3301
 8077TIP3    H245723   5.438   3.988   2.845  0.0426 -0.4813 -0.1866
 8078TIP3   OH245724   2.754   3.700  10.429  0.1521  0.2741 -0.0034
 8078TIP3    H145725   2.793   3.639  10.491  0.6998  0.6521  0.0297
 8078TIP3    H245726   2.791   3.674  10.344 -1.6070 -1.0956 -0.4041
 8079TIP3   OH245727   1.156   2.813  13.259 -0.0330  0.6129  0.1842
 8079TIP3    H145728   1.242   2.827  13.299  0.4759 -1.2906 -0.1786
 8079TIP3    H245729   1.132   2.724  13.283 -1.2569  0.6167 -0.9375
 8080TIP3   OH245730   2.772   2.112  11.514  0.1914 -0.6981 -0.4375
 8080TIP3    H145731   2.756   2.122  11.420  2.1633  1.0239 -0.6594
 8080TIP3    H245732   2.780   2.201  11.547  1.3953 -1.3073  1.0259
 8081TIP3   OH245733   4.763   5.378  11.416  0.2487 -0.1950  0.3539
 8081TIP3    H145734   4.722   5.360  11.500  0.6310  0.5111  0.7044
 8081TIP3    H245735   4.708   5.446  11.376  0.1009 -0.4851  0.0591
 8082TIP3   OH245736   2.520   6.226  16.606 -0.2117  0.2702 -0.7491
 8082TIP3    H145737   2.537   6.134  16.627  0.4411  0.5893  0.1968
 8082TIP3    H245738   2.477   6.261  16.684 -2.0113  0.3848 -1.7252
 8083TIP3   OH245739   0.150   5.206   5.760 -0.2563 -0.2091  0.0317
 8083TIP3    H145740   0.082   5.143   5.785  0.3608 -1.6905 -1.8265
 8083TIP3    H245741   0.215   5.200   5.830 -2.2945  1.8658  2.3145
 8084TIP3   OH245742   5.421   5.524  12.070 -0.4118  0.1061  0.3022
 8084TIP3    H145743   5.396   5.614  12.092 -0.2121 -0.0398  1.1506
 8084TIP3    H245744   5.423   5.478  12.154  0.8183 -0.3600  0.0351
 8085TIP3   OH245745   0.372   3.349   5.057  0.1930 -0.3467 -0.6973
 8085TIP3    H145746   0.313   3.419   5.027 -0.6173 -1.1375 -0.9814
 8085TIP3    H245747   0.455   3.394   5.074 -0.2214  0.6358 -1.1747
 8086TIP3   OH245748   5.115   1.806  16.373 -0.4020  0.0589 -0.0764
 8086TIP3    H145749   5.174   1.731  16.361 -0.6306  0.0062 -0.9954
 8086TIP3    H245750   5.069   1.787  16.454  0.5380 -0.1080  0.4345
 8087TIP3   OH245751   4.873   4.865   4.439  0.0013  0.2271 -0.3538
 8087TIP3    H145752   4.875   4.776   4.406  1.3003  0.3485 -0.6633
 8087TIP3    H245753   4.918   4.917   4.373  0.2476  0.9244  0.3344
 8088TIP3   OH245754   0.870   3.898   4.352 -0.5783 -0.0362  0.1274
 8088TIP3    H145755   0.836   3.951   4.280 -0.8858 -1.3418 -0.7151
 8088TIP3    H245756   0.920   3.960   4.405  0.8128  0.7323 -1.9475
 8089TIP3   OH245757   3.036   3.749  17.170 -0.4967 -0.3405 -0.2784
 8089TIP3    H145758   3.034   3.691  17.246 -1.9389  0.9456  0.7044
 8089TIP3    H245759   2.945   3.761  17.145 -0.1452  0.4682 -1.2783
 8090TIP3   OH245760   2.973   0.924  14.944 -0.1433 -0.4438  0.4191
 8090TIP3    H145761   2.995   0.868  14.869 -0.1148 -1.8767  1.4501
 8090TIP3    H245762   2.883   0.950  14.930  1.0137  2.7881 -2.1994
 8091TIP3   OH245763   1.350   2.317   4.271  0.2264  0.3060 -0.9611
 8091TIP3    H145764   1.409   2.341   4.342 -2.7771  0.8677  1.5846
 8091TIP3    H245765   1.379   2.230   4.244  0.2447 -0.9637  2.5947
 8092TIP3   OH245766   1.412   1.305  14.342  0.2987  0.6136  0.1123
 8092TIP3    H145767   1.430   1.223  14.296  0.2315  0.0155  1.1202
 8092TIP3    H245768   1.336   1.286  14.397  0.2174  1.3777  0.2772
 8093TIP3   OH245769   2.492   3.978   3.487  0.3140  0.0990 -0.2147
 8093TIP3    H145770   2.516   4.013   3.573 -1.0685  0.3053  0.1285
 8093TIP3    H245771   2.528   3.889   3.486  0.6837  0.2345  0.4202
 8094TIP3   OH245772   4.715   2.676  15.737  0.6845  0.4025 -0.0944
 8094TIP3    H145773   4.674   2.763  15.740  0.7711  0.4128  1.2835
 8094TIP3    H245774   4.694   2.637  15.821  2.4874 -0.0761  0.1667
 8095TIP3   OH245775   2.478   0.959   2.123 -0.0628 -0.5748 -0.0713
 8095TIP3    H145776   2.569   0.931   2.108  1.0206  1.3921  2.1880
 8095TIP3    H245777   2.453   0.914   2.204  0.1144  1.3137  1.0944
 8096TIP3   OH245778   4.000   3.320   2.607 -0.2579  0.0780 -0.2504
 8096TIP3    H145779   3.934   3.252   2.619 -0.7684  0.2743 -1.7101
 8096TIP3    H245780   4.057   3.313   2.683 -1.0656 -1.1195  0.2599
 8097TIP3   OH245781   6.053   4.406  10.898 -0.0545  0.0096 -0.3023
 8097TIP3    H145782   6.069   4.458  10.977  2.4197  0.3702 -0.9474
 8097TIP3    H245783   6.041   4.317  10.929  0.7848  0.1675  0.4977
 8098TIP3   OH245784   6.086   2.205  14.976 -0.1899 -0.6658 -0.4903
 8098TIP3    H145785   6.043   2.128  15.012 -0.3987 -0.1282  0.4553
 8098TIP3    H245786   6.016   2.268  14.963  0.3159  0.5527  1.9262
 8099TIP3   OH245787   6.438   1.645  13.721  0.2044 -0.1097 -0.6923
 8099TIP3    H145788   6.447   1.644  13.816  1.3981 -0.7324 -0.7957
 8099TIP3    H245789   6.431   1.553  13.696  0.2170  0.0312 -1.2363
 8100TIP3   OH245790   5.180   2.227   1.293  0.1676 -0.4740 -0.3970
 8100TIP3    H145791   5.270   2.259   1.291  0.4687 -1.2640  0.1883
 8100TIP3    H245792   5.126   2.304   1.272  0.8985  0.2789  0.4563
 8101TIP3   OH245793   5.886   5.935   2.583  0.0605 -0.3444  0.1745
 8101TIP3    H145794   5.945   5.932   2.658 -0.4727  0.2157  0.6281
 8101TIP3    H245795   5.932   5.886   2.514  1.0771  0.1161  0.4986
 8102TIP3   OH245796   5.736   0.033  13.224 -0.1105 -0.0373 -0.5273
 8102TIP3    H145797   5.708   0.095  13.292  0.1279  0.8918 -1.2634
 8102TIP3    H245798   5.774  -0.040  13.273 -0.3527  0.4111  0.3564
 8103TIP3   OH245799   5.703   3.586  13.395  0.1107 -0.2172 -0.4976
 8103TIP3    H145800   5.761   3.546  13.329 -0.8338  0.2057 -1.6255
 8103TIP3    H245801   5.712   3.530  13.472  3.2468  0.7337 -0.0260
 8104TIP3   OH245802   1.315   1.387   5.373  0.1861 -0.1445 -0.5821
 8104TIP3    H145803   1.303   1.402   5.279  0.9218 -0.5873 -0.7525
 8104TIP3    H245804   1.242   1.433   5.414 -0.2444 -0.1014 -1.3834
 8105TIP3   OH245805   5.003   1.082  14.640  0.1128  0.3744  0.8041
 8105TIP3    H145806   4.987   1.021  14.712 -3.2191 -0.1453 -0.2251
 8105TIP3    H245807   5.072   1.041  14.588 -0.1624 -1.1897  1.6251
 8106TIP3   OH245808   6.806   5.235   2.184  0.0499 -0.2830  0.3766
 8106TIP3    H145809   6.885   5.284   2.159 -0.6897  0.8061  0.1007
 8106TIP3    H245810   6.767   5.286   2.254  0.4680 -1.7226  1.7141
 8107TIP3   OH245811   1.883   6.552   1.758 -0.4799 -0.3479  0.4611
 8107TIP3    H145812   1.957   6.606   1.731 -0.1719 -0.3317  1.3319
 8107TIP3    H245813   1.824   6.612   1.803 -0.7955 -0.4582  0.1962
 8108TIP3   OH245814   4.579   4.919  10.605 -0.0569  0.2941 -0.1315
 8108TIP3    H145815   4.631   4.907  10.526 -0.3028  0.3128 -0.2980
 8108TIP3    H245816   4.641   4.949  10.671 -0.2301  2.6614 -0.9454
 8109TIP3   OH245817   6.443   3.084  12.357  0.2833 -0.3544 -0.0218
 8109TIP3    H145818   6.383   3.120  12.421  0.9646  0.0459  0.4033
 8109TIP3    H245819   6.526   3.129  12.373 -0.1245  1.6903 -2.8505
 8110TIP3   OH245820   6.711   6.601  12.421  0.0593  0.1200 -0.0217
 8110TIP3    H145821   6.763   6.681  12.424 -0.0955  0.2850 -1.1564
 8110TIP3    H245822   6.775   6.530  12.428  0.0526  0.2986  2.8785
 8111TIP3   OH245823   2.535   6.357   3.912  0.2491  0.1161  0.1733
 8111TIP3    H145824   2.547   6.438   3.963  1.5697  1.1196 -1.5822
 8111TIP3    H245825   2.504   6.387   3.827  2.4295 -0.9808 -1.1189
 8112TIP3   OH245826   5.353   3.117   4.668 -0.3496 -0.1710  0.3106
 8112TIP3    H145827   5.404   3.191   4.635  0.0388  0.2241  1.7218
 8112TIP3    H245828   5.306   3.153   4.744 -1.2908 -1.0092  0.1448
 8113TIP3   OH245829   0.451   0.096  13.397  0.2947 -0.1343  0.3902
 8113TIP3    H145830   0.448   0.088  13.302  1.0235 -1.1689  0.4332
 8113TIP3    H245831   0.370   0.142  13.420 -0.5806 -1.1056 -0.6127
 8114TIP3   OH245832   2.799   6.174  13.125  0.4172  0.4163  0.1034
 8114TIP3    H145833   2.777   6.089  13.161 -0.5132 -0.7673 -2.9279
 8114TIP3    H245834   2.724   6.230  13.148 -1.2557 -0.9180 -1.7622
 8115TIP3   OH245835   3.654   6.025  12.007 -0.6475  0.1888 -0.2477
 8115TIP3    H145836   3.712   5.962  11.965  0.2145  0.4660  0.4718
 8115TIP3    H245837   3.705   6.057  12.082 -2.6502 -1.4069  1.9478
 8116TIP3   OH245838   4.901   1.337   3.799 -0.0965 -0.2065  0.5016
 8116TIP3    H145839   4.912   1.286   3.719 -1.3454 -0.6069  0.5625
 8116TIP3    H245840   4.932   1.425   3.777  1.9282 -0.9294  0.3532
 8117TIP3   OH245841   0.299   0.250   1.681 -0.0821 -0.2449 -0.1703
 8117TIP3    H145842   0.263   0.312   1.745 -0.1131 -0.0157 -0.4070
 8117TIP3    H245843   0.315   0.170   1.731 -2.7816 -1.0630 -0.4501
 8118TIP3   OH245844   0.099   3.032  13.852  0.2184  0.4927 -0.5596
 8118TIP3    H145845   0.111   3.117  13.810  1.2923  1.4534  1.5778
 8118TIP3    H245846   0.165   2.976  13.811 -0.5481  0.6248 -2.0399
 8119TIP3   OH245847   5.546   1.914  14.018 -0.5657  0.4959 -0.3825
 8119TIP3    H145848   5.545   2.006  13.991  1.2853  0.7235  0.1875
 8119TIP3    H245849   5.586   1.915  14.105  1.8607 -1.0545 -1.3770
 8120TIP3   OH245850   4.278   4.748   2.107  0.1335  0.0104 -0.1061
 8120TIP3    H145851   4.247   4.822   2.159  1.1392  0.9781 -0.8265
 8120TIP3    H245852   4.367   4.733   2.140  0.1191 -0.5447 -0.3192
 8121TIP3   OH245853   2.753   3.492   2.191  0.2455  0.0784  0.1944
 8121TIP3    H145854   2.789   3.460   2.109  0.0341  0.8679 -0.2078
 8121TIP3    H245855   2.711   3.575   2.169 -1.0733 -0.3888  0.8081
 8122TIP3   OH245856   5.828   6.206  14.428  0.0682 -0.2282  0.2473
 8122TIP3    H145857   5.891   6.275  14.449 -1.7851  1.6061  0.0544
 8122TIP3    H245858   5.768   6.204  14.502 -0.1656 -1.3652  0.0467
 8123TIP3   OH245859   4.336   1.729  13.376 -0.0322  0.6239 -1.4259
 8123TIP3    H145860   4.242   1.746  13.384 -0.6020 -2.8428  1.9825
 8123TIP3    H245861   4.378   1.807  13.413 -1.5690  1.6851 -1.8157
 8124TIP3   OH245862   2.130   3.614   1.991 -0.1592 -0.0146  0.3922
 8124TIP3    H145863   2.138   3.707   2.012  1.3008 -0.2457  1.0356
 8124TIP3    H245864   2.073   3.611   1.914 -1.8256  1.2305  1.5156
 8125TIP3   OH245865   2.596   2.466   5.528  0.2505  0.1141  0.0649
 8125TIP3    H145866   2.551   2.463   5.443 -1.7788 -0.0353  1.0987
 8125TIP3    H245867   2.604   2.559   5.547 -1.3658  0.1471  0.7217
 8126TIP3   OH245868   1.673   1.973   2.440 -0.1696  0.1823  0.2994
 8126TIP3    H145869   1.592   1.988   2.390 -0.4519 -1.3967  0.2254
 8126TIP3    H245870   1.655   2.009   2.527 -0.4064  1.1395 -0.1294
 8127TIP3   OH245871   1.437   2.326  13.535 -0.2508 -0.1513  0.4903
 8127TIP3    H145872   1.452   2.289  13.448 -1.1112 -0.6225  0.5239
 8127TIP3    H245873   1.507   2.389  13.547  0.0597 -0.3068 -0.4202
 8128TIP3   OH245874   6.401   0.495  15.239  0.2420 -1.0146  0.1380
 8128TIP3    H145875   6.344   0.497  15.316  0.5353  1.5405  0.3739
 8128TIP3    H245876   6.488   0.477  15.274  0.4480  0.5699  0.5069
 8129TIP3   OH245877   1.817   2.572  13.082 -0.2182  0.1523 -0.2105
 8129TIP3    H145878   1.870   2.644  13.115  0.0114  0.1680 -0.6100
 8129TIP3    H245879   1.726   2.603  13.089 -0.5646 -1.1333  3.7877
 8130TIP3   OH245880   2.209   3.224  15.798 -0.3342  0.0304  0.0388
 8130TIP3    H145881   2.174   3.311  15.812  0.6289  0.4817 -0.2715
 8130TIP3    H245882   2.234   3.223  15.705  0.1465 -0.3965  0.1689
 8131TIP3   OH245883   6.484   6.582   5.928 -0.7151  0.0697 -0.1264
 8131TIP3    H145884   6.538   6.508   5.958 -1.3891 -0.5079 -0.3166
 8131TIP3    H245885   6.465   6.562   5.836 -0.7405  0.5797 -0.2341
 8132TIP3   OH245886   2.332   5.763   1.975 -0.1762  0.0671 -0.0995
 8132TIP3    H145887   2.321   5.705   2.051 -1.2299 -0.5730 -0.7229
 8132TIP3    H245888   2.329   5.851   2.012  0.2424 -0.2474  0.7159
 8133TIP3   OH245889   3.791   3.373  14.249 -0.2031 -0.7106 -0.3061
 8133TIP3    H145890   3.824   3.454  14.286 -0.3446 -1.1113  0.7278
 8133TIP3    H245891   3.737   3.335  14.318  0.6504 -2.1686 -0.3887
 8134TIP3   OH245892   4.639   4.511   5.407 -0.0837  0.1898 -0.2343
 8134TIP3    H145893   4.684   4.563   5.474  1.4716 -1.5442  0.1341
 8134TIP3    H245894   4.573   4.462   5.455 -1.0312  1.1949 -0.4694
 8135TIP3   OH245895   4.232   4.248   6.070  0.0180  0.3231 -0.2462
 8135TIP3    H145896   4.304   4.298   6.031  1.8391 -1.3702  0.7196
 8135TIP3    H245897   4.275   4.171   6.108 -2.2025 -0.2651  1.2739
 8136TIP3   OH245898   4.109   5.902   4.712 -0.6074  0.0042  0.0148
 8136TIP3    H145899   4.162   5.923   4.635 -0.4551  3.3359  0.8913
 8136TIP3    H245900   4.023   5.942   4.694 -0.0802  2.3139  2.1385
 8137TIP3   OH245901   6.259   3.840   5.398  0.2784  0.1367  0.1353
 8137TIP3    H145902   6.345   3.824   5.436  1.1338 -1.3580 -2.2326
 8137TIP3    H245903   6.198   3.818   5.469  1.8040 -1.4839  1.0270
 8138TIP3   OH245904   4.610   1.003   6.339  0.0762 -0.2235  0.3794
 8138TIP3    H145905   4.612   1.099   6.345 -0.6508 -0.0170 -1.7529
 8138TIP3    H245906   4.699   0.979   6.314 -0.1027  0.0598 -0.5733
 8139TIP3   OH245907   3.477   5.582   3.045  0.4970  0.4056 -0.0348
 8139TIP3    H145908   3.436   5.559   3.129  0.9542 -2.7171 -0.5606
 8139TIP3    H245909   3.571   5.580   3.063  0.5842  0.1228 -0.5088
 8140TIP3   OH245910   0.007   6.762   0.968 -0.0525 -0.7876  0.3084
 8140TIP3    H145911   0.048   6.677   0.984  0.4537 -0.2729  1.9599
 8140TIP3    H245912  -0.069   6.764   1.027 -0.7051 -0.5118 -0.5102
 8141TIP3   OH245913   1.656   0.119  12.390 -0.0256 -0.7403 -0.3047
 8141TIP3    H145914   1.653   0.024  12.385 -0.2663 -0.6635 -2.9791
 8141TIP3    H245915   1.571   0.148  12.357  0.6361  0.4002 -1.0725
 8142TIP3   OH245916   2.305   0.186   0.831  0.4085 -0.2224  0.1069
 8142TIP3    H145917   2.303   0.114   0.893 -1.3845 -0.4355 -0.1458
 8142TIP3    H245918   2.215   0.218   0.827  0.7472  0.6829 -1.3427
 8143TIP3   OH245919   3.977   4.399  15.188  0.5527  0.0527  0.7036
 8143TIP3    H145920   4.072   4.396  15.175  0.8163 -0.2540  2.4563
 8143TIP3    H245921   3.948   4.310  15.171  0.4426  0.3242 -0.6165
 8144TIP3   OH245922   2.046   3.617  15.471  0.0112 -0.4402 -0.0441
 8144TIP3    H145923   2.129   3.588  15.434  0.7702  2.0447 -0.4063
 8144TIP3    H245924   1.980   3.574  15.416  1.0948  0.5237 -2.2321
 8145TIP3   OH245925   1.926   3.072   5.960  0.3043  0.0657  0.4081
 8145TIP3    H145926   1.872   3.030   5.893  1.1552  1.2622 -1.0878
 8145TIP3    H245927   1.982   3.002   5.994 -0.9330 -0.7946  0.7094
 8146TIP3   OH245928   4.361   5.274   4.210 -0.1172 -0.0179 -0.4612
 8146TIP3    H145929   4.388   5.238   4.294 -0.4410 -0.7036 -0.6486
 8146TIP3    H245930   4.331   5.199   4.160  0.7390  0.2797 -1.4519
 8147TIP3   OH245931   3.612   2.511   3.257 -0.6971  0.1602  0.5065
 8147TIP3    H145932   3.691   2.544   3.216 -0.4229 -0.6022  0.4014
 8147TIP3    H245933   3.545   2.517   3.188 -0.6476  0.4603  0.4816
 8148TIP3   OH245934   3.906   3.187  11.053 -0.3093 -0.3745  0.2891
 8148TIP3    H145935   3.970   3.189  11.124  0.6180 -1.6483 -0.4835
 8148TIP3    H245936   3.883   3.094  11.043  0.4426 -0.3865 -1.8185
 8149TIP3   OH245937   0.810   0.737   3.808  0.4261 -0.1708 -0.7933
 8149TIP3    H145938   0.810   0.644   3.787 -1.1285 -0.2869 -0.4433
 8149TIP3    H245939   0.740   0.774   3.754 -1.9558 -0.0395  2.0822
 8150TIP3   OH245940   2.089   2.671  10.807  0.0491 -0.3202  0.6421
 8150TIP3    H145941   2.125   2.757  10.832 -3.8567  1.6115  0.4195
 8150TIP3    H245942   2.104   2.616  10.884  0.2036  1.4216  1.9233
 8151TIP3   OH245943   3.899   4.912   3.271 -0.7260 -0.8320 -0.2281
 8151TIP3    H145944   3.832   4.902   3.338  1.1635 -1.5362  1.6538
 8151TIP3    H245945   3.980   4.883   3.313  0.7959  0.0390 -2.3788
 8152TIP3   OH245946   3.943   4.716   5.133 -0.0368 -0.4265 -0.0925
 8152TIP3    H145947   3.903   4.764   5.060 -1.1744  0.4542  1.0827
 8152TIP3    H245948   4.008   4.776   5.169 -0.0041 -0.5728  0.0976
 8153TIP3   OH245949   5.892   5.052  15.400 -0.7594  0.1644  0.5972
 8153TIP3    H145950   5.879   5.135  15.447 -0.5930  0.4695  0.1153
 8153TIP3    H245951   5.839   4.989  15.448 -1.3872  0.6850  0.6092
 8154TIP3   OH245952   3.642   4.297   4.114 -0.6864 -0.1390  0.4998
 8154TIP3    H145953   3.574   4.363   4.128 -0.4526  0.6878 -1.8341
 8154TIP3    H245954   3.691   4.329   4.038  1.5254 -1.3587  1.3270
 8155TIP3   OH245955   4.722   5.824   5.687  0.5560  0.0778  0.4963
 8155TIP3    H145956   4.710   5.901   5.631  1.2123 -0.6258 -0.6565
 8155TIP3    H245957   4.647   5.825   5.747  0.6846  1.7327  0.6591
 8156TIP3   OH245958   2.882   4.242   6.632 -1.0333 -0.2859 -0.4361
 8156TIP3    H145959   2.794   4.216   6.605 -0.8143 -0.5357 -0.9194
 8156TIP3    H245960   2.940   4.187   6.580 -0.5826 -1.8942  1.6344
 8157TIP3   OH245961   3.914   1.873   0.890 -0.7900  0.1308  0.4254
 8157TIP3    H145962   3.828   1.830   0.893 -2.0748  2.4450 -0.5827
 8157TIP3    H245963   3.902   1.954   0.939 -0.3597  2.2431 -2.6385
 8158TIP3   OH245964   4.850   3.312  16.346  0.0200 -0.4186  0.1159
 8158TIP3    H145965   4.854   3.317  16.251  0.5101 -0.5479  0.1277
 8158TIP3    H245966   4.845   3.403  16.375  0.6171 -0.3397 -0.0066
 8159TIP3   OH245967   5.173   0.955   3.765 -0.1040  0.0168  0.0427
 8159TIP3    H145968   5.231   0.945   3.690  0.6340  0.2995  0.5649
 8159TIP3    H245969   5.088   0.925   3.733  0.3025 -0.3288 -0.7580
 8160TIP3   OH245970   0.379   6.075   3.458  0.2631 -0.2539 -0.5565
 8160TIP3    H145971   0.334   6.062   3.542 -2.1642 -0.3778 -1.7679
 8160TIP3    H245972   0.379   6.170   3.445  1.1833 -0.1923 -0.1671
 8161TIP3   OH245973   2.786   0.171   4.559  0.0844  0.6314 -0.6376
 8161TIP3    H145974   2.755   0.212   4.639 -1.7727  0.0276 -0.9969
 8161TIP3    H245975   2.774   0.077   4.574  2.1269  0.3117 -0.6872
 8162TIP3   OH245976   1.014   5.332   4.986 -0.0702 -0.4369  0.1180
 8162TIP3    H145977   0.947   5.400   4.993  3.1044  2.8273  1.8798
 8162TIP3    H245978   0.991   5.269   5.054 -0.6185  1.3494  1.6701
 8163TIP3   OH245979   6.469   3.267   2.467 -0.2798 -0.0249 -0.1858
 8163TIP3    H145980   6.438   3.314   2.544 -3.6556 -0.4273 -1.1342
 8163TIP3    H245981   6.495   3.335   2.405  2.4828  0.2986  1.1868
 8164TIP3   OH245982   1.540   3.174  15.227  0.0717  0.3179 -0.4822
 8164TIP3    H145983   1.461   3.203  15.182 -0.2685  0.0798 -0.0502
 8164TIP3    H245984   1.612   3.218  15.182 -0.3440  0.8888 -0.5923
 8165TIP3   OH245985   0.044   6.555   1.822 -0.6084 -0.1648 -0.0690
 8165TIP3    H145986   0.098   6.526   1.748 -0.0752  0.2557  0.1456
 8165TIP3    H245987  -0.046   6.540   1.794 -0.4082 -0.0255 -0.7962
 8166TIP3   OH245988   2.174   1.500  14.117 -0.1632 -0.4323  0.7852
 8166TIP3    H145989   2.221   1.424  14.083  0.2133 -0.4328  1.2881
 8166TIP3    H245990   2.229   1.532  14.189 -0.1530  0.5096  0.3728
 8167TIP3   OH245991   4.279   1.864   4.990 -0.4509  0.2895  0.0640
 8167TIP3    H145992   4.203   1.815   5.022 -0.1272 -0.0821  0.2737
 8167TIP3    H245993   4.243   1.923   4.924 -0.8375 -0.3281 -0.2908
 8168TIP3   OH245994   6.066   5.084  15.867  0.3214  0.3556 -0.5042
 8168TIP3    H145995   6.153   5.089  15.828 -0.8903  0.4158 -3.4721
 8168TIP3    H245996   6.008   5.126  15.803 -1.6621  2.3353  2.3223
 8169TIP3   OH245997   5.314   6.311   5.085  0.6207  0.1797  0.1970
 8169TIP3    H145998   5.253   6.330   5.155  0.0737  3.1416 -0.9549
 8169TIP3    H245999   5.396   6.351   5.114  0.6803  0.4797 -0.3855
 8170TIP3   OH246000   6.355   2.125   0.108 -0.0582 -0.1163 -0.3896
 8170TIP3    H146001   6.405   2.063   0.054  0.9112 -0.3064  0.7026
 8170TIP3    H246002   6.399   2.209   0.095 -0.8601  0.1994 -1.1999
 8171TIP3   OH246003   1.665   4.946   2.118  0.5506  0.3396 -0.0664
 8171TIP3    H146004   1.665   5.027   2.067  1.8113  0.2836 -0.1827
 8171TIP3    H246005   1.733   4.892   2.078 -2.0204 -1.9335 -1.7447
 8172TIP3   OH246006   3.549   4.093   5.588 -0.2806 -0.1045 -0.2062
 8172TIP3    H146007   3.617   4.126   5.647 -1.1983  0.2342  0.7016
 8172TIP3    H246008   3.581   4.114   5.500  1.0591 -0.4922  0.1612
 8173TIP3   OH246009   0.890   3.653  16.477 -0.0214 -0.5085  0.1930
 8173TIP3    H146010   0.865   3.735  16.435 -0.6601 -0.9456 -0.2960
 8173TIP3    H246011   0.984   3.645  16.460  0.1468  0.3475  0.6578
 8174TIP3   OH246012   2.304   4.380   4.006  0.2700  0.3290 -0.6208
 8174TIP3    H146013   2.227   4.323   4.009 -0.5467  1.3108 -1.6230
 8174TIP3    H246014   2.277   4.457   4.057  1.1092  0.1065  0.1693
 8175TIP3   OH246015   5.311   3.577  12.459  0.3374 -0.7180 -0.3519
 8175TIP3    H146016   5.274   3.517  12.523 -1.5447 -1.1250 -1.7404
 8175TIP3    H246017   5.398   3.598  12.493  0.0812 -2.2796  1.4085
 8176TIP3   OH246018   1.238   1.985   4.445  0.1039 -0.1176  0.3473
 8176TIP3    H146019   1.168   1.926   4.420  0.0303  0.3509 -0.5926
 8176TIP3    H246020   1.249   1.970   4.539 -1.8096  0.3961  0.6962
 8177TIP3   OH246021   3.024   1.851   1.727  0.4710  0.0478  0.0094
 8177TIP3    H146022   2.989   1.879   1.642 -1.3546 -0.3608  0.5813
 8177TIP3    H246023   3.006   1.757   1.731 -0.0448  0.1771  1.0963
 8178TIP3   OH246024   4.565   5.361  16.432  0.1267  0.6274 -0.0579
 8178TIP3    H146025   4.530   5.331  16.516  0.8445 -0.8724 -0.2708
 8178TIP3    H246026   4.659   5.346  16.438  0.1087 -0.2039 -1.3956
 8179TIP3   OH246027   6.112   4.997  14.545  0.6222 -0.5360  0.1324
 8179TIP3    H146028   6.124   5.060  14.617  1.6080 -1.0115  0.3929
 8179TIP3    H246029   6.017   4.996  14.531  0.1643 -1.7068  2.6274
 8180TIP3   OH246030   1.336   2.325   5.917  0.2281 -0.4644  0.4072
 8180TIP3    H146031   1.376   2.373   5.845 -0.5186 -0.1070  0.2327
 8180TIP3    H246032   1.337   2.386   5.991  2.0140 -1.1884  1.0567
 8181TIP3   OH246033   3.797   0.044   0.314 -0.0025 -0.3073 -0.5555
 8181TIP3    H146034   3.882   0.027   0.355  0.0527  2.3126  0.6375
 8181TIP3    H246035   3.733   0.002   0.373  0.3371 -0.2318 -0.1287
 8182TIP3   OH246036   5.842   4.619  13.142  0.5764  0.2733 -0.2646
 8182TIP3    H146037   5.842   4.703  13.187 -0.9363  0.1487 -0.0120
 8182TIP3    H246038   5.750   4.597  13.129  0.9373 -0.4228 -2.0696
 8183TIP3   OH246039   5.559   1.131  12.307 -0.5529  0.1907 -0.3335
 8183TIP3    H146040   5.579   1.224  12.311  0.3329 -0.0379  0.7451
 8183TIP3    H246041   5.463   1.127  12.308 -0.6247  1.1022 -1.2427
 8184TIP3   OH246042   0.461   4.479   4.153 -0.2481 -0.0157  0.4578
 8184TIP3    H146043   0.366   4.482   4.146 -0.3285  0.6077  1.5263
 8184TIP3    H246044   0.490   4.435   4.074 -1.4431 -0.4251  0.2308
 8185TIP3   OH246045   0.763   2.890   2.774  0.1407  0.1807  0.1047
 8185TIP3    H146046   0.724   2.870   2.859 -0.8437 -2.4856 -0.8724
 8185TIP3    H246047   0.800   2.977   2.784 -1.5565  0.6996  2.7019
 8186TIP3   OH246048   3.431   4.559  12.494 -0.0719 -0.3316 -0.3301
 8186TIP3    H146049   3.496   4.614  12.538 -1.3983  1.6037 -0.6569
 8186TIP3    H246050   3.423   4.482  12.549  0.6070  0.5821  1.1076
 8187TIP3   OH246051   0.490   5.230   4.479 -0.1353  0.8115 -0.7048
 8187TIP3    H146052   0.461   5.173   4.550  1.7843 -0.9005 -1.1862
 8187TIP3    H246053   0.430   5.211   4.406  0.6152 -0.8387 -0.9318
 8188TIP3   OH246054   1.043   4.382   5.715 -0.4720  0.0889  0.6876
 8188TIP3    H146055   1.020   4.325   5.789 -0.3322  0.5140  1.0643
 8188TIP3    H246056   1.116   4.434   5.747 -0.0890 -0.0667  0.0723
 8189TIP3   OH246057   6.183   5.683  13.017 -0.1283  1.1454  0.3518
 8189TIP3    H146058   6.262   5.650  13.058 -0.4490  1.0729  0.9250
 8189TIP3    H246059   6.164   5.621  12.947  1.1981  2.0206 -0.8510
 8190TIP3   OH246060   6.726   5.911  13.099  0.2767  0.2239 -0.3555
 8190TIP3    H146061   6.744   5.888  13.191  0.4421  1.0159 -0.1802
 8190TIP3    H246062   6.702   6.004  13.102  0.1150  0.2132 -1.0993
 8191TIP3   OH246063   3.562   4.019  15.763  0.1338  0.4699  0.3389
 8191TIP3    H146064   3.564   3.927  15.736 -2.5039 -0.5134  2.9754
 8191TIP3    H246065   3.539   4.067  15.684  0.3876 -1.2421 -0.8361
 8192TIP3   OH246066   4.726   2.971  12.277  0.2807  0.5147  0.1536
 8192TIP3    H146067   4.652   2.999  12.223  0.7948  0.1865 -0.7392
 8192TIP3    H246068   4.688   2.908  12.339  0.0835 -0.9619 -1.3985
 8193TIP3   OH246069   0.800   2.156   2.900  0.3923 -0.2073  0.2721
 8193TIP3    H146070   0.757   2.071   2.892  0.9112 -0.4358 -0.2097
 8193TIP3    H246071   0.758   2.210   2.832  2.5810 -1.1961 -2.0424
 8194TIP3   OH246072   5.628   3.991  16.640 -0.3615  0.6545 -0.1264
 8194TIP3    H146073   5.679   3.918  16.676 -1.2779 -0.1966 -0.4889
 8194TIP3    H246074   5.589   4.033  16.716 -0.5207  0.2274  0.0334
 8195TIP3   OH246075   1.643   1.973  15.879 -0.3294  0.2875  0.3428
 8195TIP3    H146076   1.607   1.932  15.800 -1.1008  1.1518  0.2373
 8195TIP3    H246077   1.630   1.907  15.948  0.5351 -0.5560 -0.2684
 8196TIP3   OH246078   0.029   0.891  13.165  0.1999 -0.1054  0.0681
 8196TIP3    H146079   0.020   0.893  13.260  0.9558 -0.1550  0.1447
 8196TIP3    H246080   0.050   0.800  13.144 -1.6027 -0.4761 -0.3168
 8197TIP3   OH246081   2.551   1.132  15.105 -0.4178 -0.4989 -0.1946
 8197TIP3    H146082   2.586   1.157  15.190  0.1760 -1.9205  0.0061
 8197TIP3    H246083   2.516   1.213  15.069 -0.0571  0.2651  1.1001
 8198TIP3   OH246084   2.078   0.324  14.209 -0.4814 -0.2103  0.5409
 8198TIP3    H146085   2.171   0.347  14.216 -0.8676  1.4354  0.5886
 8198TIP3    H246086   2.076   0.255  14.142  0.4871  1.7112 -1.6014
 8199TIP3   OH246087   3.103   3.512   1.368 -0.4637 -0.3316 -0.1926
 8199TIP3    H146088   3.156   3.589   1.391 -0.4873  0.1814 -1.7515
 8199TIP3    H246089   3.018   3.548   1.342 -0.8850 -0.9928  0.2500
 8200TIP3   OH246090   5.935   5.521   1.295  0.5087  0.0442  0.1159
 8200TIP3    H146091   5.990   5.596   1.271 -0.7965  0.5756 -1.4441
 8200TIP3    H246092   5.991   5.445   1.282  0.7939  0.5367 -1.8572
 8201TIP3   OH246093   5.055   5.214  10.972  0.4094  0.0225 -0.6257
 8201TIP3    H146094   5.002   5.200  11.050 -0.2609 -1.4318 -1.3266
 8201TIP3    H246095   5.089   5.304  10.982  1.8570 -0.7334  2.2369
 8202TIP3   OH246096   2.391   3.240  11.287 -0.5164  0.3030  0.0311
 8202TIP3    H146097   2.316   3.225  11.229  0.8721  1.0652 -2.0548
 8202TIP3    H246098   2.372   3.323  11.331 -1.2063  0.1364  0.0546
 8203TIP3   OH246099   3.892   0.158  15.132 -0.4357  0.0639 -0.3085
 8203TIP3    H146100   3.893   0.158  15.227 -3.3672  2.0989 -0.1528
 8203TIP3    H246101   3.933   0.241  15.107 -0.7787  0.1071 -0.7545
 8204TIP3   OH246102   1.522   5.094   3.173  0.2398 -0.1509  0.3547
 8204TIP3    H146103   1.570   5.108   3.255 -1.8863  0.3745  1.5916
 8204TIP3    H246104   1.443   5.147   3.182 -1.3860 -2.1900 -0.8551
 8205TIP3   OH246105   2.616   5.130   4.959  0.2720  0.1787 -0.3110
 8205TIP3    H146106   2.579   5.043   4.972 -1.3455  1.1580  2.3650
 8205TIP3    H246107   2.689   5.135   5.021  0.9790  0.4271 -1.1378
 8206TIP3   OH246108   6.311   0.116  13.823  0.5506  0.6724  0.4325
 8206TIP3    H146109   6.299   0.210  13.812  0.0564  0.7259  1.3253
 8206TIP3    H246110   6.238   0.089  13.880  1.3979 -0.0263  1.2218
 8207TIP3   OH246111   2.551   1.545   0.144 -0.2120 -0.2927 -0.5976
 8207TIP3    H146112   2.577   1.471   0.198  0.6072  0.4039  0.0019
 8207TIP3    H246113   2.503   1.603   0.204  0.0918  0.1556 -0.7807
 8208TIP3   OH246114   2.674   0.066  15.223  0.1930  0.4034 -0.0270
 8208TIP3    H146115   2.700   0.082  15.314  0.6878  0.7587 -0.2274
 8208TIP3    H246116   2.579   0.077  15.223  0.1184 -0.1696  0.5648
 8209TIP3   OH246117   3.108   3.670  14.900 -0.3294  0.1242 -0.1880
 8209TIP3    H146118   3.162   3.696  14.974  1.3685 -0.5482 -1.1247
 8209TIP3    H246119   3.142   3.721  14.826  0.0228 -1.3543 -1.1006
 8210TIP3   OH246120   4.265   3.998   5.055  0.3564 -0.4225 -0.0487
 8210TIP3    H146121   4.356   3.970   5.057  0.2385 -1.0079 -1.5728
 8210TIP3    H246122   4.265   4.076   5.000  0.1963  0.7355  1.5327
 8211TIP3   OH246123   5.345   0.641  16.373  0.5207  0.0960 -0.0668
 8211TIP3    H146124   5.422   0.686  16.338  0.9051 -1.1601 -0.9175
 8211TIP3    H246125   5.380   0.562  16.414 -0.3130 -0.6921 -0.8142
 8212TIP3   OH246126   6.236   1.512  15.131  0.1264 -0.3338 -0.0974
 8212TIP3    H146127   6.275   1.486  15.047 -1.2439  2.2243 -1.6535
 8212TIP3    H246128   6.144   1.530  15.110  0.0431  1.6917  1.6388
 8213TIP3   OH246129   5.362   5.673   5.088 -0.3316  0.3224  0.1622
 8213TIP3    H146130   5.310   5.744   5.049 -0.5131  0.5284  0.7786
 8213TIP3    H246131   5.345   5.598   5.031 -1.3432  0.3753  0.3830
 8214TIP3   OH246132   1.058   3.616   3.893 -0.2384  0.0186  0.2602
 8214TIP3    H146133   1.084   3.540   3.840 -0.2709 -0.3658  0.7833
 8214TIP3    H246134   1.027   3.578   3.975  0.7054  0.6535  0.9326
 8215TIP3   OH246135   2.174   0.425   1.102  0.0456 -0.0776 -0.0627
 8215TIP3    H146136   2.190   0.341   1.145 -2.5458 -0.3421  0.5615
 8215TIP3    H246137   2.079   0.432   1.097  0.1497  2.8487 -0.0375
 8216TIP3   OH246138   0.628   1.511   5.872 -0.7011  0.4136 -0.0218
 8216TIP3    H146139   0.584   1.521   5.957 -2.2264  0.7958 -0.8082
 8216TIP3    H246140   0.690   1.584   5.869 -0.2227  0.0706  0.9789
 8217TIP3   OH246141   5.715   2.359  12.538 -0.0479 -0.6935 -0.3213
 8217TIP3    H146142   5.620   2.351  12.537 -0.0285 -0.9919 -0.0929
 8217TIP3    H246143   5.734   2.415  12.614  0.0156 -1.5455  0.3031
 8218TIP3   OH246144   3.350   1.325   0.180 -0.4440 -0.5544 -0.5782
 8218TIP3    H146145   3.279   1.346   0.119 -0.1374 -0.6816 -0.9802
 8218TIP3    H246146   3.323   1.241   0.218 -1.3377  0.2104  0.5336
 8219TIP3   OH246147   4.153   1.871  15.507 -0.3556 -0.3782 -0.3153
 8219TIP3    H146148   4.221   1.805  15.524  2.7477  2.5370 -0.2568
 8219TIP3    H246149   4.120   1.850  15.420  1.8935 -0.9937 -1.0948
 8220TIP3   OH246150   6.522   1.276   3.406  0.5924 -0.0959  0.1056
 8220TIP3    H146151   6.507   1.301   3.315 -1.3126  2.0155  0.9133
 8220TIP3    H246152   6.435   1.276   3.446  1.5362  0.7670  2.3198
 8221TIP3   OH246153   3.348   6.545   3.895 -0.3042  0.1996  0.2100
 8221TIP3    H146154   3.426   6.514   3.940  0.0024  1.4073  0.5389
 8221TIP3    H246155   3.366   6.637   3.876 -1.7309  0.5478  0.4721
 8222TIP3   OH246156   2.971   0.788   3.832 -0.4875  0.3340  0.1243
 8222TIP3    H146157   2.887   0.743   3.839  0.0156 -0.4196  1.8765
 8222TIP3    H246158   3.006   0.759   3.748 -1.3357 -0.4941  0.0339
 8223TIP3   OH246159   5.929   1.295  13.557 -0.4112  0.6006 -0.1989
 8223TIP3    H146160   5.846   1.264  13.593 -1.2756  1.0752 -1.7081
 8223TIP3    H246161   5.931   1.388  13.577 -0.6965  0.7806 -0.9782
 8224TIP3   OH246162   1.037   0.583   1.625  0.5868 -0.4105  0.0201
 8224TIP3    H146163   1.090   0.511   1.658  0.8241 -0.5867 -0.7282
 8224TIP3    H246164   0.955   0.578   1.675  2.3934  1.9164  3.6995
 8225TIP3   OH246165   4.623   4.392   3.659 -0.4855  0.1818 -0.5713
 8225TIP3    H146166   4.605   4.314   3.606 -0.0339 -0.3587  0.0468
 8225TIP3    H246167   4.575   4.376   3.741  1.4342 -0.5465  0.4751
 8226TIP3   OH246168   3.474   0.370  12.774 -0.1635  0.4259 -0.4707
 8226TIP3    H146169   3.439   0.438  12.831  0.4531 -0.2768  0.7876
 8226TIP3    H246170   3.432   0.386  12.689 -0.1462  2.2588 -0.1724
 8227TIP3   OH246171   6.577   3.620  11.933 -0.2504 -0.2758  0.4394
 8227TIP3    H146172   6.534   3.656  12.011 -0.0890 -1.6733  1.1955
 8227TIP3    H246173   6.506   3.581  11.882 -0.0821 -1.3943  1.0319
 8228TIP3   OH246174   0.153   0.354  11.389 -0.2795 -0.1832  0.6289
 8228TIP3    H146175   0.123   0.263  11.379  1.2133 -0.4461 -2.8306
 8228TIP3    H246176   0.084   0.406  11.347 -0.5731  0.2251  1.5846
 8229TIP3   OH246177   4.404   2.540  14.249  0.0412 -0.1525  0.0018
 8229TIP3    H146178   4.351   2.509  14.175 -0.5738  0.3692  0.2136
 8229TIP3    H246179   4.341   2.580  14.309  0.8221  1.8525 -0.4362
 8230TIP3   OH246180   3.082   4.424  14.839 -0.1668 -0.1279 -0.2569
 8230TIP3    H146181   3.039   4.508  14.854 -0.7050 -0.2915 -0.8656
 8230TIP3    H246182   3.159   4.426  14.897 -0.7977  0.3092  0.5875
 8231TIP3   OH246183   2.298   3.141  15.557 -0.3120 -0.0913  0.1465
 8231TIP3    H146184   2.379   3.187  15.581 -0.1159  1.0785 -2.3306
 8231TIP3    H246185   2.305   3.130  15.462 -1.6747 -2.8295  0.2671
 8232TIP3   OH246186   3.462   2.655  13.799  0.3298  0.2350 -0.0185
 8232TIP3    H146187   3.537   2.601  13.774  1.0702 -0.0426  2.5057
 8232TIP3    H246188   3.499   2.722  13.857 -1.2541  0.5604  0.6742
 8233TIP3   OH246189   4.416   2.886   0.589 -0.3975 -0.0932 -0.1361
 8233TIP3    H146190   4.452   2.864   0.675 -0.6770  0.0053  0.0065
 8233TIP3    H246191   4.373   2.806   0.559 -0.9224  0.0837  0.1333
 8234TIP3   OH246192   4.060   2.167   0.088  0.0833 -0.4937 -0.0292
 8234TIP3    H146193   4.132   2.181   0.026 -1.6177  1.6218 -1.6777
 8234TIP3    H246194   4.086   2.216   0.165  0.7149 -0.3023 -0.3521
 8235TIP3   OH246195   4.384   2.081  16.199  0.1047 -0.1719  0.4095
 8235TIP3    H146196   4.425   2.096  16.284 -0.8025 -3.2188  1.4889
 8235TIP3    H246197   4.333   2.001  16.210 -0.6034 -0.3075 -2.8383
 8236TIP3   OH246198   1.322   5.543   2.722  0.0428 -0.1514 -0.6079
 8236TIP3    H146199   1.230   5.535   2.697  0.0659  0.9556 -1.1106
 8236TIP3    H246200   1.350   5.627   2.686  1.1732 -0.3256 -0.1991
 8237TIP3   OH246201   3.181   2.337   4.148 -0.1340 -0.2595 -0.2292
 8237TIP3    H146202   3.241   2.399   4.107 -0.3180  0.3508  0.3969
 8237TIP3    H246203   3.198   2.254   4.104  1.5577 -0.2304  0.2695
 8238TIP3   OH246204   3.481   0.341  16.863 -0.0828  0.2684  0.0196
 8238TIP3    H146205   3.551   0.295  16.911 -0.3509  0.7390  0.8899
 8238TIP3    H246206   3.427   0.380  16.932 -1.4530 -0.4309 -0.6195
 8239TIP3   OH246207   2.773   4.733   4.347  0.2254  0.0630 -0.2399
 8239TIP3    H146208   2.752   4.827   4.348  0.6811  0.1683  0.0119
 8239TIP3    H246209   2.731   4.698   4.425 -0.5967 -0.0988 -0.7400
 8240TIP3   OH246210   4.074   1.476  13.356 -0.0669 -0.3130 -0.3209
 8240TIP3    H146211   4.108   1.420  13.425 -0.8332  0.2388  0.5260
 8240TIP3    H246212   4.069   1.563  13.397  1.1363  0.4125 -1.6033
 8241TIP3   OH246213   2.635   6.348  13.237 -0.1163 -0.7139  0.6426
 8241TIP3    H146214   2.554   6.394  13.215  1.0656  0.6857 -1.2113
 8241TIP3    H246215   2.616   6.302  13.318 -2.5800 -0.0057  0.5554
 8242TIP3   OH246216   2.040   5.221  15.190  0.2009 -0.3459 -0.2543
 8242TIP3    H146217   2.135   5.214  15.188  0.2413 -0.5241  1.2120
 8242TIP3    H246218   2.010   5.130  15.192  0.0296 -0.2829  0.0577
 8243TIP3   OH246219   1.818   0.989   6.244 -0.0992  0.0130  0.8165
 8243TIP3    H146220   1.748   1.052   6.228 -0.3851 -0.2949  0.8275
 8243TIP3    H246221   1.790   0.943   6.324 -1.4164 -2.1677 -0.7686
 8244TIP3   OH246222   6.228   1.852  14.919  0.5499  0.6424 -0.1155
 8244TIP3    H146223   6.162   1.908  14.960  0.9130  1.5321 -0.7346
 8244TIP3    H246224   6.263   1.904  14.847  0.7203 -0.4810 -0.8581
 8245TIP3   OH246225   5.650   3.144   5.140 -0.3497  0.4727 -0.9685
 8245TIP3    H146226   5.687   3.079   5.081 -2.4609 -1.4628 -0.3020
 8245TIP3    H246227   5.667   3.109   5.228 -1.2475  0.9433 -0.5870
 8246TIP3   OH246228   1.084   0.249   3.617 -0.0586  0.3429  0.4213
 8246TIP3    H146229   1.160   0.257   3.674 -0.4921  0.2872  1.0195
 8246TIP3    H246230   1.017   0.305   3.658 -0.3436  0.3772 -0.0829
 8247TIP3   OH246231   4.345   6.498  12.106  0.1023 -0.4698  0.4305
 8247TIP3    H146232   4.340   6.586  12.068  0.8770 -1.3423 -1.9060
 8247TIP3    H246233   4.355   6.512  12.200 -0.6533  1.9059  0.2150
 8248TIP3   OH246234   4.712   0.483  12.179 -0.0905 -0.2589 -0.6075
 8248TIP3    H146235   4.751   0.420  12.240  0.6420  0.5349 -0.2411
 8248TIP3    H246236   4.746   0.456  12.093 -0.1204 -0.6169 -0.5112
 8249TIP3   OH246237   5.420   3.106  13.649  0.1286 -0.7931  0.0566
 8249TIP3    H146238   5.370   3.079  13.572 -0.3459  1.8187 -0.6679
 8249TIP3    H246239   5.353   3.132  13.713  0.4542  1.2682 -0.3542
 8250TIP3   OH246240   2.856   5.779  13.048  0.0673  0.0581  0.7819
 8250TIP3    H146241   2.768   5.792  13.013  0.3671  0.9333  0.3031
 8250TIP3    H246242   2.897   5.716  12.988  0.9107  2.2920 -1.1661
 8251TIP3   OH246243   0.498   1.584  12.681 -0.1725  0.1211  0.1224
 8251TIP3    H146244   0.578   1.547  12.643  0.5558 -1.1804  2.6759
 8251TIP3    H246245   0.530   1.639  12.753 -1.5457 -0.0415  0.8840
 8252TIP3   OH246246   1.641   4.646   3.887 -0.4233 -0.2970  0.2202
 8252TIP3    H146247   1.650   4.741   3.881 -0.3354 -0.1670  1.7808
 8252TIP3    H246248   1.718   4.611   3.843  1.4563  0.4876  2.6385
 8253TIP3   OH246249   2.974   3.295  17.129  0.0192  0.5720 -0.1988
 8253TIP3    H146250   2.881   3.282  17.147 -0.0056 -0.7064 -1.1448
 8253TIP3    H246251   2.981   3.385  17.098 -0.9339  0.6010 -0.3400
 8254TIP3   OH246252   3.847   0.231   5.877  0.0822  0.0907  0.0997
 8254TIP3    H146253   3.830   0.323   5.859 -0.0164 -0.4904 -3.6144
 8254TIP3    H246254   3.784   0.208   5.945 -1.6177  2.2000 -0.6303
 8255TIP3   OH246255   1.663   5.602  14.737  0.1896  0.5910 -0.4144
 8255TIP3    H146256   1.582   5.610  14.686  0.5068 -1.2442 -1.3015
 8255TIP3    H246257   1.710   5.530  14.696  1.1349 -0.0264  1.5984
 8256TIP3   OH246258   2.724   3.894  11.433 -0.1655 -0.4996 -0.5230
 8256TIP3    H146259   2.668   3.971  11.423 -0.3265 -0.8123 -2.4023
 8256TIP3    H246260   2.807   3.918  11.391  0.9807 -0.2442  1.7266
 8257TIP3   OH246261   3.407   3.863   0.132  0.2845  0.2069 -0.7256
 8257TIP3    H146262   3.334   3.889   0.075 -1.5334 -2.5360  0.1126
 8257TIP3    H246263   3.375   3.785   0.177  3.2714 -0.2892  0.7938
 8258TIP3   OH246264   5.315   5.721  13.582 -0.2446  0.3215 -0.0572
 8258TIP3    H146265   5.251   5.654  13.559  0.1570 -0.1447  0.1563
 8258TIP3    H246266   5.274   5.803  13.556 -0.3100 -0.0792 -1.3198
 8259TIP3   OH246267   6.087   3.732  15.037  0.4831  0.0716  1.1563
 8259TIP3    H146268   6.140   3.653  15.048  0.6485  0.2424  1.6167
 8259TIP3    H246269   6.152   3.802  15.022  0.3034 -0.0649 -0.5337
 8260TIP3   OH246270   2.765   2.622  12.619 -0.4813 -0.0105 -0.2783
 8260TIP3    H146271   2.747   2.671  12.699 -0.4480 -0.2196 -0.1441
 8260TIP3    H246272   2.696   2.555  12.616  1.0266 -1.6956  0.9345
 8261TIP3   OH246273   1.905   1.865   0.178  0.2286 -0.1397 -0.2305
 8261TIP3    H146274   1.984   1.916   0.192  0.3472 -0.3167 -0.2531
 8261TIP3    H246275   1.936   1.781   0.144 -0.0897  0.5643 -2.4167
 8262TIP3   OH246276   1.524   6.597  17.040  0.3333 -0.2589 -0.4983
 8262TIP3    H146277   1.483   6.610  17.125 -0.9183 -0.2939 -1.0838
 8262TIP3    H246278   1.563   6.682  17.020 -1.3386  0.4446 -0.9065
 8263TIP3   OH246279   3.467   1.628  13.671 -0.0209 -0.3067 -0.5534
 8263TIP3    H146280   3.516   1.547  13.658  0.1329 -0.4938  0.9836
 8263TIP3    H246281   3.452   1.631  13.766  0.2538  1.6256 -0.5507
 8264TIP3   OH246282   3.325   6.400   0.621  0.1454  0.4159  0.5573
 8264TIP3    H146283   3.248   6.376   0.569 -0.8398  3.3851  0.4420
 8264TIP3    H246284   3.359   6.317   0.654 -2.0412 -1.1466 -0.8611
 8265TIP3   OH246285   0.362   4.357  13.765 -0.1806 -0.3449  0.7114
 8265TIP3    H146286   0.412   4.397  13.694  0.1156 -0.7317  0.7063
 8265TIP3    H246287   0.347   4.429  13.827  0.0608 -0.1460  0.5380
 8266TIP3   OH246288   5.271   3.902   4.591 -0.4131 -0.0077  0.1161
 8266TIP3    H146289   5.329   3.953   4.534  0.2720 -0.4025  0.4445
 8266TIP3    H246290   5.218   3.850   4.530 -0.1541  0.0764 -0.1879
 8267TIP3   OH246291   1.449   3.911  14.104  0.6307  0.2837 -0.5504
 8267TIP3    H146292   1.447   4.006  14.091  1.3526  0.8165  2.4580
 8267TIP3    H246293   1.510   3.880  14.037  1.6255  2.1878 -0.6218
 8268TIP3   OH246294   0.878   2.682  13.429  0.0431 -0.2488 -0.4378
 8268TIP3    H146295   0.952   2.651  13.481  0.0656 -0.1737 -0.4237
 8268TIP3    H246296   0.843   2.756  13.479  0.7219  0.5119 -1.0401
 8269TIP3   OH246297   2.894   6.293   3.194 -1.2648  0.1681 -0.2542
 8269TIP3    H146298   2.923   6.369   3.245  0.9889 -1.1705  0.6026
 8269TIP3    H246299   2.974   6.259   3.154 -2.5884 -0.3599 -2.6569
 8270TIP3   OH246300   5.571   3.147   1.721  0.2265  0.0993 -0.1198
 8270TIP3    H146301   5.648   3.203   1.722 -0.4416  1.0356  0.6669
 8270TIP3    H246302   5.498   3.205   1.744 -0.5615 -0.9848  0.2299
 8271TIP3   OH246303   3.541   4.625  15.537  0.0469 -0.1315  0.2072
 8271TIP3    H146304   3.623   4.575  15.543 -0.1846 -0.4662  0.6711
 8271TIP3    H246305   3.476   4.569  15.581 -0.6463 -0.3341 -1.0185
 8272TIP3   OH246306   5.483   4.378  14.581  0.1233  0.4763 -0.4070
 8272TIP3    H146307   5.569   4.360  14.545  0.5874  0.7302  0.5329
 8272TIP3    H246308   5.487   4.469  14.611 -0.4932  0.5181 -0.4266
 8273TIP3   OH246309   2.144   2.459  10.980  0.0872  0.1285 -0.0295
 8273TIP3    H146310   2.128   2.393  11.048 -0.2379 -0.1835 -0.4081
 8273TIP3    H246311   2.178   2.410  10.906  1.7914  0.6343  0.3648
 8274TIP3   OH246312   3.452   6.085  14.443  0.1939 -0.0672 -0.0208
 8274TIP3    H146313   3.470   6.179  14.446 -0.4340  0.1712 -2.1251
 8274TIP3    H246314   3.356   6.079  14.444  0.1991 -0.8667  2.6235
 8275TIP3   OH246315   0.148   4.541  15.806 -0.1132  0.3318  0.4516
 8275TIP3    H146316   0.143   4.636  15.794  0.0989  0.3788  0.7596
 8275TIP3    H246317   0.082   4.522  15.872 -0.2695  0.2426  0.2725
 8276TIP3   OH246318   1.304   0.695   6.632  0.6842 -0.0045 -0.6192
 8276TIP3    H146319   1.216   0.714   6.666 -0.4312 -0.1069 -3.2168
 8276TIP3    H246320   1.323   0.766   6.572  2.8927  0.5590  0.6281
 8277TIP3   OH246321   1.726   1.305   1.244  0.1366 -0.3448  0.0588
 8277TIP3    H146322   1.707   1.349   1.161 -0.4318 -0.4782  0.1114
 8277TIP3    H246323   1.817   1.326   1.262 -0.7452  3.0446  1.4012
 8278TIP3   OH246324   5.268   2.705  14.504 -0.4667  0.4185  0.0040
 8278TIP3    H146325   5.298   2.794  14.522  1.6938 -0.1923 -0.2426
 8278TIP3    H246326   5.237   2.707  14.413 -1.8908  1.2291  0.4811
 8279TIP3   OH246327   2.570   6.164   5.607  0.7416  0.2010  0.2102
 8279TIP3    H146328   2.576   6.069   5.598 -0.7583  0.2242 -1.7938
 8279TIP3    H246329   2.520   6.178   5.687 -0.4668 -0.7903 -0.3381
 8280TIP3   OH246330   0.285   3.883  12.469 -0.3316 -0.6116 -0.0186
 8280TIP3    H146331   0.233   3.817  12.516 -1.8541 -1.8110 -3.1523
 8280TIP3    H246332   0.356   3.832  12.429  0.3424  0.2072  0.1212
 8281TIP3   OH246333   6.823   2.199   0.675 -0.0981  0.0334 -0.5358
 8281TIP3    H146334   6.861   2.198   0.763  0.3530 -0.0284 -0.7282
 8281TIP3    H246335   6.801   2.107   0.658 -4.5868  0.5103  1.3630
 8282TIP3   OH246336   5.676   0.896   3.719  0.1300  0.3397 -0.2322
 8282TIP3    H146337   5.648   0.960   3.784  1.1561  0.3231  0.2323
 8282TIP3    H246338   5.627   0.920   3.640 -0.0382  1.2495  0.1332
 8283TIP3   OH246339   3.630   5.442  10.818  0.3884 -0.5318  0.1284
 8283TIP3    H146340   3.693   5.372  10.801  0.9907  0.0064  0.0930
 8283TIP3    H246341   3.680   5.523  10.805  0.0914 -0.0850  1.5597
 8284TIP3   OH246342   5.486   2.057  12.006  0.0453  0.4838 -0.2153
 8284TIP3    H146343   5.504   2.110  11.928  0.5781 -1.0630 -1.1788
 8284TIP3    H246344   5.506   1.968  11.980 -3.4090 -0.6488  0.4738
 8285TIP3   OH246345   4.627   3.699   1.608  0.1384 -0.2175  0.2888
 8285TIP3    H146346   4.682   3.646   1.550 -3.0345 -0.2235 -3.0723
 8285TIP3    H246347   4.643   3.789   1.581  1.3545  0.1692  2.1127
 8286TIP3   OH246348   0.742   5.086  13.340 -0.0593 -0.3290 -0.1001
 8286TIP3    H146349   0.669   5.140  13.311  0.9838  0.1785 -1.9111
 8286TIP3    H246350   0.766   5.034  13.263  2.3048  0.4677  0.0257
 8287TIP3   OH246351   0.989   3.000   2.115  0.2312 -0.2207  0.2816
 8287TIP3    H146352   0.935   2.955   2.050 -1.9304  0.8163  1.2605
 8287TIP3    H246353   1.003   3.087   2.079  3.3355 -1.1223 -1.0249
 8288TIP3   OH246354   3.095   2.803  11.277 -0.2455  0.2881  0.3043
 8288TIP3    H146355   3.172   2.859  11.278 -0.2294  0.3156 -1.0838
 8288TIP3    H246356   3.127   2.717  11.249 -0.5899  0.0822  0.5262
 8289TIP3   OH246357   0.641   0.957  11.046  0.3970 -0.1610  0.0110
 8289TIP3    H146358   0.595   0.933  10.965  0.4721  0.4746 -0.2237
 8289TIP3    H246359   0.730   0.979  11.018 -0.1161  2.0736 -0.0466
 8290TIP3   OH246360   5.599   5.245   2.480  0.1997  0.0708  1.0994
 8290TIP3    H146361   5.541   5.319   2.499 -0.1643  0.4970 -1.3211
 8290TIP3    H246362   5.555   5.169   2.518 -0.9596  0.6772  1.0149
 8291TIP3   OH246363   2.525   2.295  12.405  0.4432  0.2729 -0.1339
 8291TIP3    H146364   2.558   2.351  12.334  1.5580  0.6619  0.6723
 8291TIP3    H246365   2.556   2.337  12.485 -0.4812 -0.3765  0.5807
 8292TIP3   OH246366   0.004   3.836   5.146  0.0320  0.4884  0.1383
 8292TIP3    H146367  -0.025   3.889   5.220 -1.4885  0.2207 -0.2416
 8292TIP3    H246368  -0.054   3.760   5.146  1.3400 -0.5539 -0.1126
 8293TIP3   OH246369   0.876   0.085  12.846  0.8625 -0.4424  0.3103
 8293TIP3    H146370   0.933   0.107  12.772 -2.4020  0.0133 -2.3007
 8293TIP3    H246371   0.889  -0.009  12.859  1.5130 -0.5410 -0.8787
 8294TIP3   OH246372   1.710   1.575   2.582  0.0739 -0.1006  0.0840
 8294TIP3    H146373   1.804   1.594   2.573 -0.0917 -0.0366 -1.7818
 8294TIP3    H246374   1.685   1.619   2.664  1.6366 -0.0534  0.5812
 8295TIP3   OH246375   1.253   5.315  14.510 -0.2277 -0.8765  0.8613
 8295TIP3    H146376   1.270   5.327  14.603  0.4332  1.6927  0.4642
 8295TIP3    H246377   1.227   5.223  14.503  0.7581 -1.4391  3.3963
 8296TIP3   OH246378   2.121   6.054   6.664  0.0272 -0.5814 -0.2366
 8296TIP3    H146379   2.090   6.109   6.737 -3.3548 -1.5992 -0.7117
 8296TIP3    H246380   2.099   5.964   6.691  0.3699 -1.1524 -1.7532
 8297TIP3   OH246381   2.507   2.169  12.744  0.2294  0.2081  0.6545
 8297TIP3    H146382   2.543   2.110  12.810  1.1697  0.4773  0.3892
 8297TIP3    H246383   2.428   2.204  12.784 -1.4371 -2.6173  0.1569
 8298TIP3   OH246384   1.336   5.205  15.617 -0.4154 -0.0247 -0.0254
 8298TIP3    H146385   1.354   5.174  15.705 -0.2633 -0.8120 -0.3284
 8298TIP3    H246386   1.287   5.134  15.575 -1.3899  0.7572 -0.2552
 8299TIP3   OH246387   4.369   5.225   0.426  0.4072  0.2482  0.0813
 8299TIP3    H146388   4.285   5.221   0.379  0.2582  2.2772  0.1013
 8299TIP3    H246389   4.357   5.166   0.500 -0.5485 -0.4542 -0.5998
 8300TIP3   OH246390   6.348   1.452  16.487 -0.3809  0.3660 -0.7835
 8300TIP3    H146391   6.284   1.387  16.515 -0.4511  0.6670 -0.2411
 8300TIP3    H246392   6.433   1.409  16.498 -0.4323  0.3316 -0.5128
 8301TIP3   OH246393   4.398   4.773   1.038  0.1720  0.0800 -0.2094
 8301TIP3    H146394   4.471   4.727   1.081 -1.0550 -0.5835  1.2400
 8301TIP3    H246395   4.333   4.705   1.022 -2.1966  1.3661  3.0407
 8302TIP3   OH246396   2.427   6.102   3.950 -0.6218  0.1813 -0.2303
 8302TIP3    H146397   2.422   6.075   4.041  0.2290 -0.8816 -0.4816
 8302TIP3    H246398   2.476   6.184   3.951 -0.2233 -0.0631  0.2248
 8303TIP3   OH246399   5.062   2.540  13.533  0.1839  0.0491  0.3897
 8303TIP3    H146400   5.003   2.600  13.487  0.3093  0.5615  0.8750
 8303TIP3    H246401   5.013   2.458  13.539  1.3255 -1.0580 -3.3155
 8304TIP3   OH246402   3.652   2.500  12.566 -0.0697 -0.4806  0.2613
 8304TIP3    H146403   3.563   2.522  12.594 -0.2698 -1.3204  0.2958
 8304TIP3    H246404   3.699   2.483  12.647  0.1012 -0.1411  0.2355
 8305TIP3   OH246405   1.805   4.759   1.394  0.0630 -0.2343 -0.0174
 8305TIP3    H146406   1.865   4.792   1.328  0.6381  0.3356  0.7615
 8305TIP3    H246407   1.792   4.667   1.371  1.2917 -0.3889 -0.1772
 8306TIP3   OH246408   5.207   0.866   0.406 -0.1970  0.1531 -0.2482
 8306TIP3    H146409   5.248   0.866   0.319 -0.0101 -1.5723 -0.1888
 8306TIP3    H246410   5.241   0.787   0.448  0.2179  1.2867  1.6544
 8307TIP3   OH246411   0.039   4.772   4.820  0.0571 -0.4083 -0.5345
 8307TIP3    H146412   0.110   4.750   4.881  0.3814  0.2696 -0.6604
 8307TIP3    H246413  -0.041   4.748   4.867  0.3240 -0.2587  0.0049
 8308TIP3   OH246414   6.211   3.679  11.156  0.3127 -0.2715 -0.0384
 8308TIP3    H146415   6.234   3.729  11.078  0.4211 -1.3069 -0.6896
 8308TIP3    H246416   6.129   3.717  11.186  2.0971  2.6289  1.5579
 8309TIP3   OH246417   4.008   5.407   2.791 -0.1861 -0.0549  0.5499
 8309TIP3    H146418   4.008   5.438   2.701  3.2370  0.4716  0.6006
 8309TIP3    H246419   4.038   5.316   2.786 -1.2047 -0.4427  1.1029
 8310TIP3   OH246420   3.446   1.382   4.391 -0.4080 -0.0373 -0.4930
 8310TIP3    H146421   3.370   1.406   4.338 -0.1970  0.5605 -0.5271
 8310TIP3    H246422   3.466   1.460   4.442 -1.6964 -1.1458  1.8326
 8311TIP3   OH246423   3.871   2.318   3.122  0.2423 -0.7134 -0.0296
 8311TIP3    H146424   3.918   2.354   3.197  0.8055 -0.9713 -0.2478
 8311TIP3    H246425   3.913   2.359   3.046  0.1307 -0.9705 -0.2303
 8312TIP3   OH246426   4.757   5.086  13.965 -0.0028  0.0081 -0.0206
 8312TIP3    H146427   4.702   5.079  13.888 -0.4272 -0.9153  0.3586
 8312TIP3    H246428   4.797   5.173  13.958 -0.3450  0.0870 -1.0616
 8313TIP3   OH246429   2.348   0.865   4.211  0.2103  0.1516  0.0234
 8313TIP3    H146430   2.305   0.846   4.295  2.9765  1.6862  1.9124
 8313TIP3    H246431   2.435   0.827   4.219 -0.3669 -2.4545 -3.5059
 8314TIP3   OH246432   1.741   1.782  11.661  0.4532 -0.2544  0.7434
 8314TIP3    H146433   1.666   1.726  11.646  0.3226 -0.2603  1.3918
 8314TIP3    H246434   1.796   1.734  11.722 -0.3742  0.9188  2.4991
 8315TIP3   OH246435   5.500   0.083   0.573 -0.1576 -0.5853  0.1352
 8315TIP3    H146436   5.535   0.117   0.655 -2.0255  0.1488  0.6610
 8315TIP3    H246437   5.538  -0.005   0.566  1.1823 -0.1135  1.0135
 8316TIP3   OH246438   4.562   2.669   1.627 -0.1874  0.1443 -0.4513
 8316TIP3    H146439   4.551   2.762   1.607  2.1230  0.5476 -0.0804
 8316TIP3    H246440   4.479   2.644   1.669 -0.1836  2.5221  1.1901
 8317TIP3   OH246441   1.363   3.496   1.538  0.1678 -0.1021  0.3333
 8317TIP3    H146442   1.269   3.502   1.520 -0.3309 -1.2341  2.2320
 8317TIP3    H246443   1.395   3.431   1.475 -0.3131  0.2701 -0.3119
 8318TIP3   OH246444   2.490   4.634  11.927 -0.7221 -0.7853 -0.3827
 8318TIP3    H146445   2.427   4.702  11.908 -1.0542 -1.4576 -1.7998
 8318TIP3    H246446   2.517   4.651  12.018  0.2157  2.0120 -1.0856
 8319TIP3   OH246447   6.767   2.436   1.428  0.3909 -0.3082 -0.2033
 8319TIP3    H146448   6.765   2.497   1.502 -0.4339  0.7509 -1.0655
 8319TIP3    H246449   6.680   2.396   1.428 -0.0977  0.6854 -1.3670
 8320TIP3   OH246450   2.647   0.740   4.093  0.1000  0.5591 -0.7469
 8320TIP3    H146451   2.726   0.790   4.114  1.8889 -2.2048 -0.3508
 8320TIP3    H246452   2.594   0.746   4.172  1.0452  0.4803 -0.0857
 8321TIP3   OH246453   3.304   4.883   3.677  0.4101  0.3740 -0.6885
 8321TIP3    H146454   3.254   4.853   3.753  2.2304 -0.2077  0.3553
 8321TIP3    H246455   3.289   4.977   3.674  1.2326  0.6194  1.1849
 8322TIP3   OH246456   3.611   6.711   3.752 -0.6070  0.5950 -0.0737
 8322TIP3    H146457   3.614   6.776   3.681  1.0635 -0.0753 -0.6655
 8322TIP3    H246458   3.634   6.628   3.710 -1.0514 -0.0950  0.9894
 8323TIP3   OH246459   5.823   2.260   2.520 -0.7764  0.0559  0.2647
 8323TIP3    H146460   5.858   2.255   2.431 -1.8987 -0.3696 -0.1718
 8323TIP3    H246461   5.900   2.251   2.576  0.1563  1.9675 -0.6365
 8324TIP3   OH246462   0.337   4.234   4.448  0.1929 -0.0209 -0.2421
 8324TIP3    H146463   0.370   4.217   4.360  0.4925  1.5624 -0.4650
 8324TIP3    H246464   0.331   4.329   4.454 -2.5592 -0.1340  0.4360
 8325TIP3   OH246465   5.944   4.024  14.190  0.0142 -0.4049 -0.2388
 8325TIP3    H146466   5.983   3.941  14.166  0.2292 -0.8821  1.5961
 8325TIP3    H246467   5.882   4.002  14.260 -0.2436  0.9162 -0.0247
 8326TIP3   OH246468   5.821   1.958   5.731 -0.5721  0.8409  0.4267
 8326TIP3    H146469   5.916   1.967   5.725 -0.5706  0.5250 -0.1394
 8326TIP3    H246470   5.790   1.972   5.641 -1.0552  0.8819  0.5958
 8327TIP3   OH246471   1.795   4.541  12.317 -0.0163  0.1027 -0.7660
 8327TIP3    H146472   1.759   4.465  12.270  0.7908  0.3200 -1.7653
 8327TIP3    H246473   1.827   4.504  12.400 -2.6934 -0.0555  0.2778
 8328TIP3   OH246474   1.079   5.210  13.809  0.3269 -0.2077 -0.1718
 8328TIP3    H146475   1.042   5.293  13.839  0.9816 -0.2525  0.7929
 8328TIP3    H246476   1.173   5.227  13.802  0.3321 -0.5464 -1.0677
 8329TIP3   OH246477   1.306   5.403   6.758 -0.2820 -0.1586 -0.1074
 8329TIP3    H146478   1.353   5.378   6.838 -2.8993 -2.6452  0.8415
 8329TIP3    H246479   1.269   5.489   6.778 -0.3612 -0.4555  1.1458
 8330TIP3   OH246480   3.654   1.958   3.481  0.3263 -0.1823  0.3510
 8330TIP3    H146481   3.695   1.892   3.425 -1.6801 -0.2097 -1.2113
 8330TIP3    H246482   3.727   2.005   3.521  1.8306 -1.0568 -1.2384
 8331TIP3   OH246483   1.847   1.567  17.205 -0.6472  0.3069  0.3081
 8331TIP3    H146484   1.759   1.574  17.168 -0.2932 -1.6144 -1.0261
 8331TIP3    H246485   1.900   1.629  17.155 -0.5954 -0.8635 -1.1560
 8332TIP3   OH246486   2.190   0.081  11.798  0.2626  0.0022  0.0365
 8332TIP3    H146487   2.119   0.085  11.862 -0.3502  1.0013 -0.6609
 8332TIP3    H246488   2.252   0.018  11.834 -0.5927 -0.2859  1.0611
 8333TIP3   OH246489   1.341   1.534  16.926 -0.1230  0.4397  0.6083
 8333TIP3    H146490   1.286   1.473  16.976  0.3043  0.2055  0.7949
 8333TIP3    H246491   1.429   1.523  16.962 -0.0579  1.2610  0.7323
 8334TIP3   OH246492   3.039   0.686  11.901  0.3888 -0.1411 -0.5269
 8334TIP3    H146493   3.048   0.647  11.987  0.7357 -1.1181 -0.9927
 8334TIP3    H246494   3.097   0.763  11.903  0.5281 -0.2620  0.0449
 8335TIP3   OH246495   4.202   2.114  16.688 -0.9674  0.7249  0.7569
 8335TIP3    H146496   4.138   2.068  16.634  0.5535 -0.6932  0.0714
 8335TIP3    H246497   4.176   2.094  16.778 -0.8282 -0.8610  0.4803
 8336TIP3   OH246498   5.010   4.010   5.753  0.1352  0.4164  0.7359
 8336TIP3    H146499   4.944   3.969   5.808  2.3074  0.0203  3.2609
 8336TIP3    H246500   5.005   4.103   5.775 -0.3384  0.5695  0.0242
 8337TIP3   OH246501   2.186   5.004   5.203  0.7674 -0.6274  0.1836
 8337TIP3    H146502   2.156   5.011   5.294 -1.1179  0.2011 -0.4319
 8337TIP3    H246503   2.215   4.914   5.193  0.8631 -0.7584  1.5648
 8338TIP3   OH246504   0.306   4.049  16.788 -0.4157 -0.0646  0.0728
 8338TIP3    H146505   0.377   4.111  16.772 -0.3573  0.0590  0.7912
 8338TIP3    H246506   0.339   3.965  16.755 -0.4030  0.2284 -0.6844
 8339TIP3   OH246507   2.930   2.768   1.482  0.1548  0.4624 -0.1893
 8339TIP3    H146508   3.023   2.744   1.483 -0.0778 -0.4622  1.1159
 8339TIP3    H246509   2.907   2.769   1.390  1.0051 -1.1601 -0.4583
 8340TIP3   OH246510   5.402   4.081   1.903  0.0597 -0.2560  0.1478
 8340TIP3    H146511   5.424   4.174   1.906  1.4083 -0.5144 -0.5210
 8340TIP3    H246512   5.312   4.078   1.871 -0.8756  0.8812  2.4619
 8341TIP3   OH246513   4.900   1.330  11.287 -0.2245  0.1000  0.4382
 8341TIP3    H146514   4.995   1.331  11.293 -0.0473 -0.7912 -1.5399
 8341TIP3    H246515   4.872   1.404  11.342  1.6826  1.3157 -0.1171
 8342TIP3   OH246516   6.712   2.266   2.423 -0.2831 -0.1495  0.5653
 8342TIP3    H146517   6.658   2.325   2.370  2.4450  2.0869  0.0119
 8342TIP3    H246518   6.673   2.270   2.510 -0.1445  2.7881  0.6049
 8343TIP3   OH246519   2.227   1.009   2.608 -0.4724 -0.6108 -0.1027
 8343TIP3    H146520   2.152   0.950   2.611 -2.3226  1.5964 -0.0494
 8343TIP3    H246521   2.191   1.095   2.631  1.8361  0.7904 -1.3537
 8344TIP3   OH246522   0.178   3.503   0.164  0.1698 -0.0512  0.4760
 8344TIP3    H146523   0.252   3.563   0.157  0.0487 -0.1024 -2.2080
 8344TIP3    H246524   0.103   3.553   0.132 -0.4843 -0.7632  0.8594
 8345TIP3   OH246525   6.330   3.304   0.489  0.4896  0.0013  0.7866
 8345TIP3    H146526   6.305   3.258   0.408 -1.9812 -0.8418  1.9200
 8345TIP3    H246527   6.362   3.234   0.546  0.0826  0.2219  1.2910
 8346TIP3   OH246528   4.266   1.259   4.559  0.5920  0.0702 -0.0871
 8346TIP3    H146529   4.214   1.272   4.638  1.0603 -0.3443  0.2954
 8346TIP3    H246530   4.211   1.205   4.502 -0.6588  2.1782 -0.9728
 8347TIP3   OH246531   1.216   5.070  14.828  0.1526  0.1186 -0.2681
 8347TIP3    H146532   1.130   5.064  14.786  0.4053  1.5254 -1.0650
 8347TIP3    H246533   1.250   4.981  14.827 -0.3120 -0.0764 -2.0819
 8348TIP3   OH246534   1.401   5.362  16.435  0.1718 -0.3624 -0.1475
 8348TIP3    H146535   1.440   5.277  16.415  0.6809 -0.3093  0.5728
 8348TIP3    H246536   1.307   5.349  16.421  0.4790 -0.2816 -2.6380
 8349TIP3   OH246537   5.339   2.300  15.387 -0.0092  0.0202  0.2040
 8349TIP3    H146538   5.300   2.373  15.434 -1.8337 -0.9771  0.3359
 8349TIP3    H246539   5.375   2.244  15.456 -0.3379 -0.1428  0.2470
 8350TIP3   OH246540   1.228   6.628  12.807  0.3851 -0.2697  0.2636
 8350TIP3    H146541   1.200   6.567  12.738 -3.5816  1.3818  0.1565
 8350TIP3    H246542   1.238   6.572  12.884  1.6896 -1.6672 -0.8319
 8351TIP3   OH246543   0.281   0.470   2.279  0.7918 -0.2279 -0.1861
 8351TIP3    H146544   0.227   0.532   2.228 -0.3425  0.4884  1.7827
 8351TIP3    H246545   0.369   0.505   2.273  0.5983  0.1341 -1.2017
 8352TIP3   OH246546   3.920   1.268  12.252 -0.2580 -0.0626  0.0936
 8352TIP3    H146547   3.844   1.221  12.217  0.4813 -1.5717  0.4483
 8352TIP3    H246548   3.985   1.263  12.182 -0.8213  2.2845 -0.7105
 8353TIP3   OH246549   4.196   0.941  15.870  0.0229  1.1144 -0.2396
 8353TIP3    H146550   4.202   0.860  15.821  3.7844  0.6820  0.6644
 8353TIP3    H246551   4.185   1.009  15.803  0.4092  0.1578 -1.3025
 8354TIP3   OH246552   3.324   0.402   4.479  0.1956  0.2286  0.4847
 8354TIP3    H146553   3.318   0.321   4.529  2.6133  1.2526  2.6132
 8354TIP3    H246554   3.415   0.406   4.450  0.7534  3.1012  2.2261
 8355TIP3   OH246555   3.761   4.444  12.599 -0.2252  0.4490 -0.1350
 8355TIP3    H146556   3.714   4.427  12.680 -1.6197 -0.3519 -1.0789
 8355TIP3    H246557   3.706   4.506  12.552 -0.0723 -0.0622 -1.0122
 8356TIP3   OH246558   4.959   1.389   4.473  0.0089 -0.6928  0.1144
 8356TIP3    H146559   4.884   1.329   4.475  0.2191 -1.1480 -2.5677
 8356TIP3    H246560   5.035   1.332   4.488  0.0502 -0.7461 -0.2993
 8357TIP3   OH246561   4.779   3.129  17.147 -0.2394  0.0583  0.5412
 8357TIP3    H146562   4.694   3.113  17.106  0.2524  0.5760 -0.7447
 8357TIP3    H246563   4.827   3.047  17.135 -0.1562  0.1522  0.2272
 8358TIP3   OH246564   1.160   3.978  16.544 -0.4166  0.2804 -0.2253
 8358TIP3    H146565   1.140   3.928  16.465 -0.0598  0.6347 -0.5421
 8358TIP3    H246566   1.085   3.963  16.601 -0.3740 -0.5117 -0.3687
 8359TIP3   OH246567   1.042   2.678  16.937  0.0463  0.5191  0.0294
 8359TIP3    H146568   1.084   2.662  16.852 -1.0510  1.5112 -0.7351
 8359TIP3    H246569   1.114   2.691  16.998  0.8589  1.9668 -1.1962
 8360TIP3   OH246570   0.496   2.055   3.704  0.3249 -0.0495 -0.2590
 8360TIP3    H146571   0.475   1.964   3.721  1.0552  0.0429  1.2359
 8360TIP3    H246572   0.580   2.069   3.746 -0.6467  1.7987  1.2150
 8361TIP3   OH246573   6.805   2.243  16.685  0.4968 -0.3412 -0.2995
 8361TIP3    H146574   6.863   2.194  16.744 -0.4740  0.1376  1.0979
 8361TIP3    H246575   6.839   2.333  16.688 -2.0408  0.6930  3.0377
 8362TIP3   OH246576   6.138   0.603   3.783 -0.1061 -0.7881 -0.4631
 8362TIP3    H146577   6.149   0.660   3.859 -1.2278 -1.6581  0.3992
 8362TIP3    H246578   6.223   0.562   3.771 -0.0713 -1.1304  0.7599
 8363TIP3   OH246579   2.929   5.734   5.321  0.0053  0.5508  0.3054
 8363TIP3    H146580   2.902   5.824   5.341 -0.2099  0.6345 -0.3398
 8363TIP3    H246581   3.020   5.729   5.347  0.0238  0.9684  0.3187
 8364TIP3   OH246582   5.877   4.725   4.707 -0.1781 -0.2856 -0.1497
 8364TIP3    H146583   5.912   4.798   4.656  0.7963 -0.5425  0.1337
 8364TIP3    H246584   5.783   4.730   4.693  0.0071  0.0186 -1.4808
 8365TIP3   OH246585   3.401   3.045  14.078 -0.2996  0.0511  0.0858
 8365TIP3    H146586   3.394   3.139  14.060  0.8113  0.1265  0.0128
 8365TIP3    H246587   3.451   3.040  14.159  1.4760 -0.5297 -1.0085
 8366TIP3   OH246588   1.568   1.230  15.764 -0.3459 -0.3038 -0.6588
 8366TIP3    H146589   1.575   1.318  15.800 -2.4014 -0.8380  1.3214
 8366TIP3    H246590   1.533   1.243  15.676  2.5859  0.9307 -1.7620
 8367TIP3   OH246591   3.278   5.897  14.687  0.2311  0.1858  0.2693
 8367TIP3    H146592   3.296   5.819  14.634 -1.3125 -1.6899  2.3423
 8367TIP3    H246593   3.205   5.939  14.642  0.0983 -0.3909 -0.0746
 8368TIP3   OH246594   0.605   1.313   3.691  0.0969  1.0257 -0.2979
 8368TIP3    H146595   0.590   1.392   3.640 -2.3853  0.2578 -0.9293
 8368TIP3    H246596   0.604   1.242   3.627  0.7759  0.3526  0.4115
 8369TIP3   OH246597   1.756   1.064  14.065 -0.4846 -0.3192  0.0902
 8369TIP3    H146598   1.791   1.050  14.153  0.4658  2.0451  0.1821
 8369TIP3    H246599   1.834   1.068  14.009 -0.9849 -0.4572 -0.6320
 8370TIP3   OH246600   0.967   3.032  15.457  0.1273 -0.5256  0.4677
 8370TIP3    H146601   0.969   3.057  15.549  0.4873  1.3515 -0.0144
 8370TIP3    H246602   0.890   3.076  15.421  1.0404  0.3343 -0.5128
 8371TIP3   OH246603   2.198   1.776  16.081 -0.1022  0.7670  0.3180
 8371TIP3    H146604   2.246   1.832  16.141  2.0456  0.7875 -1.2989
 8371TIP3    H246605   2.265   1.733  16.028 -1.8053 -0.7200 -0.7853
 8372TIP3   OH246606   2.865   5.208  14.246 -0.2484 -0.1941  0.1569
 8372TIP3    H146607   2.808   5.166  14.311 -0.3243 -0.4784 -0.0913
 8372TIP3    H246608   2.942   5.152  14.241  1.1323  1.3766  2.1675
 8373TIP3   OH246609   3.331   0.134   3.742  0.1987  0.0901 -0.5003
 8373TIP3    H146610   3.290   0.065   3.689 -1.2436  0.0460  0.6289
 8373TIP3    H246611   3.395   0.087   3.796 -0.1901 -0.2549 -0.3333
 8374TIP3   OH246612   5.807   3.850   3.047 -0.2837 -0.3948  0.3736
 8374TIP3    H146613   5.877   3.826   3.108  1.5150 -0.1414 -1.4674
 8374TIP3    H246614   5.789   3.769   2.999  1.6768  0.3600 -1.8660
 8375TIP3   OH246615   1.952   0.790   4.096  0.4547  0.1597  0.4457
 8375TIP3    H146616   1.923   0.841   4.172 -0.3106 -0.0525  0.3089
 8375TIP3    H246617   1.976   0.856   4.031 -1.3027  0.3894 -0.0207
 8376TIP3   OH246618   0.795   2.832  15.640 -0.7561  0.8031 -0.7968
 8376TIP3    H146619   0.856   2.823  15.566 -0.6305  0.7432 -0.6883
 8376TIP3    H246620   0.758   2.744  15.650 -2.0964  1.2136 -1.9051
 8377TIP3   OH246621   5.005   3.575   2.637 -0.4549 -0.2245  0.0633
 8377TIP3    H146622   5.012   3.541   2.726  1.2061  0.0817  0.0787
 8377TIP3    H246623   5.060   3.516   2.585  0.6441  1.0780 -0.3001
 8378TIP3   OH246624   1.568   6.665  12.891  0.3100  0.4888  0.2573
 8378TIP3    H146625   1.506   6.655  12.963 -0.2511 -0.4961 -0.3422
 8378TIP3    H246626   1.567   6.758  12.870 -0.2418  0.6262  0.8893
 8379TIP3   OH246627   3.793   1.738  14.941 -0.9530  0.1113 -0.2103
 8379TIP3    H146628   3.813   1.694  14.858  0.4235 -0.2443  0.2784
 8379TIP3    H246629   3.768   1.827  14.916 -2.0526 -0.4165 -1.0938
 8380TIP3   OH246630   4.263   2.944  12.988 -0.0341 -0.3597  0.4777
 8380TIP3    H146631   4.329   3.008  12.963 -0.5170  1.8936  4.2524
 8380TIP3    H246632   4.311   2.875  13.033  0.1939 -1.4732 -1.3606
 8381TIP3   OH246633   0.283   5.113  15.888  0.3691 -0.0415  0.2159
 8381TIP3    H146634   0.217   5.174  15.921  0.4934  0.3391 -0.2253
 8381TIP3    H246635   0.262   5.102  15.795  1.3425  0.6367 -0.0993
 8382TIP3   OH246636   3.170   1.658   5.506 -0.0872  0.2406 -0.4300
 8382TIP3    H146637   3.234   1.606   5.552  0.1380  1.3780  0.5831
 8382TIP3    H246638   3.092   1.657   5.562  0.2244  1.7170  0.0847
 8383TIP3   OH246639   3.038   1.198   5.600  0.1985  0.1198 -0.4305
 8383TIP3    H146640   3.104   1.134   5.626 -1.4482 -1.3021  0.4715
 8383TIP3    H246641   2.964   1.181   5.657 -0.6696  2.2349 -0.8230
 8384TIP3   OH246642   2.851   5.202   1.556 -0.6301 -0.2495  0.3606
 8384TIP3    H146643   2.808   5.219   1.640 -2.9153  0.9680 -0.9533
 8384TIP3    H246644   2.873   5.109   1.559  1.5745  0.1864  3.1842
 8385TIP3   OH246645   3.272   4.293   0.154 -0.3120  0.5079 -0.0037
 8385TIP3    H146646   3.346   4.288   0.094  0.3817  2.9906  0.5461
 8385TIP3    H246647   3.206   4.235   0.115  0.4735  1.2326 -2.6356
 8386TIP3   OH246648   3.544   4.058  11.052  0.1807 -0.3956  0.2442
 8386TIP3    H146649   3.541   4.122  10.981 -0.0453  0.9381  1.4170
 8386TIP3    H246650   3.523   3.974  11.009  0.5045  0.2894 -1.3242
 8387TIP3   OH246651   3.426   3.680  15.931  0.5573 -0.0376  0.5539
 8387TIP3    H146652   3.436   3.586  15.913  0.4156 -0.0294  0.4322
 8387TIP3    H246653   3.490   3.723  15.874  1.0617 -0.0989  1.0625
 8388TIP3   OH246654   4.243   2.727  16.723  0.2426  0.0729 -0.5643
 8388TIP3    H146655   4.174   2.682  16.675  1.0954  0.9625 -2.7929
 8388TIP3    H246656   4.233   2.698  16.813 -2.4568 -0.5069 -0.9638
 8389TIP3   OH246657   0.216   0.194   3.118 -0.5734  0.4265  0.9621
 8389TIP3    H146658   0.145   0.196   3.182  0.1827 -1.2972  1.9192
 8389TIP3    H246659   0.278   0.131   3.153  0.5296  0.4652 -0.8106
 8390TIP3   OH246660   3.303   1.225  16.857 -0.0165  0.0970  0.2304
 8390TIP3    H146661   3.257   1.197  16.936  0.2297  0.6246  0.5713
 8390TIP3    H246662   3.344   1.146  16.823  1.3713  0.1580  1.6341
 8391TIP3   OH246663   4.818   5.578  14.764  0.0301  0.4732  1.0878
 8391TIP3    H146664   4.825   5.657  14.711  0.9147  0.5097  1.2441
 8391TIP3    H246665   4.849   5.508  14.707 -1.5289  0.0794  0.6591
 8392TIP3   OH246666   0.806   2.576  16.882 -0.0555 -0.1317 -0.1550
 8392TIP3    H146667   0.888   2.621  16.900 -1.2433  2.3453 -0.4895
 8392TIP3    H246668   0.757   2.637  16.826 -2.2155 -1.4137  0.2281
 8393TIP3   OH246669   4.117   4.008  11.953  0.9749  0.2614  0.1521
 8393TIP3    H146670   4.059   4.076  11.920  0.2553 -0.6670 -0.5678
 8393TIP3    H246671   4.204   4.046  11.950  0.4325  1.6486  1.1436
 8394TIP3   OH246672   1.566   1.682   0.238 -0.1907  0.1457  0.1929
 8394TIP3    H146673   1.597   1.765   0.274  0.1587 -0.1261  0.5320
 8394TIP3    H246674   1.567   1.695   0.143 -3.2442  1.6352  0.2579
 8395TIP3   OH246675   6.273   1.052  17.057 -0.2132  0.3587 -0.2900
 8395TIP3    H146676   6.318   1.047  17.141  0.7893 -1.6444 -0.8746
 8395TIP3    H246677   6.185   1.018  17.074  0.1478 -0.5243 -0.1093
 8396TIP3   OH246678   6.219   6.070   4.065  0.1759 -0.3197 -0.6169
 8396TIP3    H146679   6.197   6.153   4.023  1.7982  0.4711  0.0220
 8396TIP3    H246680   6.304   6.047   4.029 -0.1721 -1.6358 -0.6456
 8397TIP3   OH246681   0.270   4.327   3.677  0.6045 -0.1322 -0.2784
 8397TIP3    H146682   0.185   4.369   3.686  1.1531  0.7934  0.8967
 8397TIP3    H246683   0.266   4.252   3.737  0.0744 -1.0513 -1.4265
 8398TIP3   OH246684   6.615   6.283   0.128 -0.1518 -0.5426 -0.3073
 8398TIP3    H146685   6.572   6.223   0.188 -1.2515 -0.2450 -0.7814
 8398TIP3    H246686   6.704   6.291   0.162 -1.3636  1.6174  2.8794
 8399TIP3   OH246687   1.546   5.639   3.169 -0.0371  0.0218 -0.0574
 8399TIP3    H146688   1.560   5.660   3.261  0.1239 -1.4755  0.2850
 8399TIP3    H246689   1.630   5.607   3.139 -0.0946  0.4872 -0.7347
 8400TIP3   OH246690   6.523   3.341  14.349  0.2225  0.4636  0.4375
 8400TIP3    H146691   6.596   3.281  14.364  0.2805  0.3352 -0.3375
 8400TIP3    H246692   6.449   3.283  14.328  0.7451  0.6773 -2.3683
 8401TIP3   OH246693   1.248   0.396  15.237 -0.3641  0.1778  0.0205
 8401TIP3    H146694   1.224   0.482  15.271 -0.7731  0.0511  0.0562
 8401TIP3    H246695   1.326   0.412  15.185 -0.8510  0.6965 -0.5638
 8402TIP3   OH246696   0.285   4.924   5.490 -0.0727  0.6123  0.1958
 8402TIP3    H146697   0.308   4.990   5.424  0.6436 -2.2441 -2.6746
 8402TIP3    H246698   0.368   4.879   5.508 -0.8621 -0.7404  0.5600
 8403TIP3   OH246699   3.745   1.617  12.029  0.4851 -0.3814 -0.0476
 8403TIP3    H146700   3.669   1.648  11.980  0.4173 -0.6982 -0.1489
 8403TIP3    H246701   3.715   1.613  12.120  0.1197 -1.2696 -0.1918
 8404TIP3   OH246702   3.681   4.700  10.927  0.0705  0.2129  0.5402
 8404TIP3    H146703   3.672   4.787  10.887 -0.1562 -0.5638 -1.2255
 8404TIP3    H246704   3.595   4.682  10.965 -1.2445 -0.7574 -2.5243
 8405TIP3   OH246705   2.123   2.002   1.042  0.1553  0.7070 -0.5670
 8405TIP3    H146706   2.149   1.968   0.956 -2.4080 -2.2207 -0.3839
 8405TIP3    H246707   2.174   1.951   1.105  0.2101  1.0619 -0.3188
 8406TIP3   OH246708   2.813   2.415  11.859  0.6601  0.0944  0.8548
 8406TIP3    H146709   2.835   2.387  11.771 -0.6240  0.7469  0.3043
 8406TIP3    H246710   2.742   2.479  11.848  0.3916  0.1097  2.3584
 8407TIP3   OH246711   1.349   3.118   3.967  0.2125 -0.1401 -0.2732
 8407TIP3    H146712   1.329   3.112   4.060  0.3405  0.7364 -0.1829
 8407TIP3    H246713   1.339   3.028   3.935 -1.0433 -0.2445  0.3333
 8408TIP3   OH246714   0.147   1.759   3.220  0.1031  1.0696 -0.1167
 8408TIP3    H146715   0.180   1.703   3.149  1.1311  2.7885 -1.0598
 8408TIP3    H246716   0.102   1.831   3.176 -1.9453  0.6169  1.0922
 8409TIP3   OH246717   5.971   6.517   0.862  0.0075  0.0653  0.1227
 8409TIP3    H146718   5.957   6.476   0.777  0.0171  1.1081 -0.4066
 8409TIP3    H246719   6.036   6.585   0.845  0.8930 -0.4851  1.2156
 8410TIP3   OH246720   3.462   3.218  11.556 -0.0459 -0.0481 -0.1560
 8410TIP3    H146721   3.445   3.297  11.607 -0.4900 -0.7484  0.8211
 8410TIP3    H246722   3.546   3.186  11.590  0.8544  0.7462 -1.5406
 8411TIP3   OH246723   4.316   6.251   1.699  0.3044  0.3557  0.5513
 8411TIP3    H146724   4.393   6.225   1.749  0.3218 -0.8093 -0.0368
 8411TIP3    H246725   4.342   6.240   1.608 -0.9290 -1.3495  0.3469
 8412TIP3   OH246726   5.605   2.864   1.398 -0.2010  0.2175  0.2726
 8412TIP3    H146727   5.658   2.921   1.454  3.8594 -1.5919 -1.3084
 8412TIP3    H246728   5.647   2.869   1.312 -2.1766 -2.0265 -0.9398
 8413TIP3   OH246729   6.362   0.575   2.712 -0.3694 -0.1670 -0.4584
 8413TIP3    H146730   6.399   0.495   2.674  0.1951 -0.5165  0.7854
 8413TIP3    H246731   6.427   0.642   2.691  0.9741 -0.7430  1.5542
 8414TIP3   OH246732   3.277   2.895   4.541  0.1266  0.1939  0.0629
 8414TIP3    H146733   3.361   2.853   4.524  0.3567  0.9675 -0.7669
 8414TIP3    H246734   3.298   2.967   4.600 -0.3812 -1.2668  2.1526
 8415TIP3   OH246735   1.249   5.519   5.017  0.2170 -0.0471  0.7914
 8415TIP3    H146736   1.301   5.448   5.054  0.5061 -0.4358 -0.3031
 8415TIP3    H246737   1.166   5.478   4.993  1.1093 -0.5955 -1.7651
 8416TIP3   OH246738   1.967   1.547  10.325  0.1092 -0.1372  0.2168
 8416TIP3    H146739   2.018   1.480  10.278 -0.6950 -0.3645 -0.3548
 8416TIP3    H246740   1.924   1.597  10.256  0.9294  1.1883  0.6272
 8417TIP3   OH246741   5.146   3.324  17.103  0.3454 -0.2269 -0.0735
 8417TIP3    H146742   5.077   3.361  17.159  0.1364  1.6048 -1.4355
 8417TIP3    H246743   5.100   3.263  17.045 -0.1405  0.8384 -0.8442
 8418TIP3   OH246744   6.318   5.426  10.809 -0.2458  0.4097 -0.4795
 8418TIP3    H146745   6.343   5.388  10.724  0.0662  0.7034 -0.5249
 8418TIP3    H246746   6.306   5.519  10.790  2.1773  0.9589  0.2360
 8419TIP3   OH246747   4.699   5.932  14.271  0.1342 -0.2619  0.2144
 8419TIP3    H146748   4.723   5.848  14.309 -0.4049 -2.1932 -3.3249
 8419TIP3    H246749   4.756   5.941  14.195 -1.6601  1.2606 -1.0271
 8420TIP3   OH246750   0.710   2.912   0.914  0.4525  0.0539  0.1832
 8420TIP3    H146751   0.799   2.881   0.899  1.0393  0.6016  2.1652
 8420TIP3    H246752   0.717   2.970   0.990 -1.8283 -1.2199  1.5045
 8421TIP3   OH246753   5.626   2.299  13.249  0.0679  0.2217 -0.0568
 8421TIP3    H146754   5.646   2.215  13.291  0.0778  0.7611  1.0567
 8421TIP3    H246755   5.625   2.279  13.155  0.8370 -0.8634  0.1423
 8422TIP3   OH246756   0.625   5.905   1.811 -0.3476  0.1126  0.2042
 8422TIP3    H146757   0.561   5.976   1.806  1.2744  1.7697  1.6415
 8422TIP3    H246758   0.586   5.834   1.760 -2.2299  1.8740 -0.9626
 8423TIP3   OH246759   5.289   1.749   5.102 -0.4834 -0.7528 -0.2848
 8423TIP3    H146760   5.303   1.709   5.188  0.8777 -1.8309 -0.9679
 8423TIP3    H246761   5.367   1.804   5.088  0.1373 -1.9085 -1.5229
 8424TIP3   OH246762   1.884   3.118   5.485 -0.1116 -0.8114  0.5911
 8424TIP3    H146763   1.928   3.202   5.492 -0.3486 -0.5221 -1.0869
 8424TIP3    H246764   1.811   3.124   5.546 -1.7514  1.2826 -1.4092
 8425TIP3   OH246765   0.009   3.547   2.085  0.3396 -0.3993 -0.1587
 8425TIP3    H146766   0.090   3.513   2.048  0.3602  0.3596 -0.8170
 8425TIP3    H246767  -0.020   3.478   2.146  0.8227 -1.2114 -0.8312
 8426TIP3   OH246768   0.004   5.532  17.219 -0.0645  0.3484 -0.5654
 8426TIP3    H146769  -0.046   5.532  17.137 -2.1263  0.9511  0.6113
 8426TIP3    H246770  -0.025   5.453  17.264 -0.1399  0.8435  0.2625
 8427TIP3   OH246771   6.087   2.751   3.605 -0.5868 -0.4855 -0.5224
 8427TIP3    H146772   6.034   2.713   3.535  0.0203 -1.4762 -0.4550
 8427TIP3    H246773   6.130   2.677   3.646  1.7808  0.3673 -1.3088
 8428TIP3   OH246774   6.273   6.410   4.351 -0.0290  0.1920  0.1806
 8428TIP3    H146775   6.210   6.377   4.416 -0.5080 -0.0087 -0.3807
 8428TIP3    H246776   6.220   6.467   4.294  0.2975 -0.0001 -0.3144
 8429TIP3   OH246777   4.471   5.673   1.380 -0.1502 -0.3640  0.1675
 8429TIP3    H146778   4.541   5.609   1.370 -2.0145 -2.4544 -0.2032
 8429TIP3    H246779   4.446   5.668   1.472  0.0099  0.2103  0.2483
 8430TIP3   OH246780   1.306   0.150  10.947 -0.1747  0.3620 -0.1795
 8430TIP3    H146781   1.367   0.195  10.888 -0.1228  0.6559  0.0945
 8430TIP3    H246782   1.299   0.062  10.911  2.5943 -0.5982  1.3530
 8431TIP3   OH246783   3.310   5.911   5.455  0.2797  0.0876 -0.0643
 8431TIP3    H146784   3.264   5.837   5.417 -0.6117  0.7076 -0.2316
 8431TIP3    H246785   3.244   5.980   5.461  0.9786  0.7348  0.4826
 8432TIP3   OH246786   5.604   2.217   1.693  0.2090  0.3944  0.3683
 8432TIP3    H146787   5.664   2.144   1.708  0.1635  0.2263 -0.2324
 8432TIP3    H246788   5.517   2.179   1.709  0.3223  1.2095  3.5326
 8433TIP3   OH246789   4.791   1.399   4.849 -0.1855  0.2843 -0.7034
 8433TIP3    H146790   4.775   1.344   4.773 -0.8965 -0.0113 -0.3519
 8433TIP3    H246791   4.757   1.348   4.923 -1.5524  1.4942 -0.4564
 8434TIP3   OH246792   3.840   4.206   5.707  0.1119  0.2528  0.4313
 8434TIP3    H146793   3.797   4.126   5.737 -1.7204  1.1294  0.2506
 8434TIP3    H246794   3.856   4.191   5.613  0.4930 -0.1833  0.5602
 8435TIP3   OH246795   4.816   0.251   6.433 -0.1617  0.1816 -0.4507
 8435TIP3    H146796   4.785   0.178   6.485 -1.2536 -0.3766 -1.8169
 8435TIP3    H246797   4.912   0.244   6.436 -0.2386 -1.6439 -0.9952
 8436TIP3   OH246798   0.259   5.269  13.976  0.1267 -0.0215  0.4035
 8436TIP3    H146799   0.219   5.304  13.897  1.0769  1.2469  0.4520
 8436TIP3    H246800   0.199   5.294  14.046  0.4452  0.9297  0.3500
 8437TIP3   OH246801   6.763   5.497  13.836  0.0805 -0.0546  0.1215
 8437TIP3    H146802   6.703   5.453  13.896  0.0388 -0.3035 -0.0998
 8437TIP3    H246803   6.824   5.544  13.893  0.7745 -1.2482  0.4050
 8438TIP3   OH246804   2.693   3.852   3.878  0.0171 -0.0420 -0.1156
 8438TIP3    H146805   2.694   3.761   3.848  1.8100  0.3641 -1.5355
 8438TIP3    H246806   2.762   3.894   3.826  0.2857  1.7773  1.5973
 8439TIP3   OH246807   4.198   5.164  12.352  0.5762  0.4185  0.1141
 8439TIP3    H146808   4.106   5.188  12.342  1.0412  1.6061 -1.8141
 8439TIP3    H246809   4.215   5.103  12.281  1.6751  1.5285 -0.6100
 8440TIP3   OH246810   3.983   1.781   5.268 -0.1271  0.4449 -0.0752
 8440TIP3    H146811   3.914   1.742   5.322  1.3159  0.9819  2.3148
 8440TIP3    H246812   3.945   1.862   5.235 -1.6192 -0.7143 -1.3440
 8441TIP3   OH246813   1.289   6.385  15.723 -0.7109  0.1058  0.0047
 8441TIP3    H146814   1.344   6.331  15.665  0.3761  0.9679  0.2092
 8441TIP3    H246815   1.216   6.412  15.667  0.4881  1.2031 -1.1080
 8442TIP3   OH246816   0.305   4.574   3.489 -0.3211  0.4064  0.3770
 8442TIP3    H146817   0.214   4.557   3.464 -0.1504  0.3335 -0.2203
 8442TIP3    H246818   0.320   4.518   3.565 -0.1620 -1.2012 -0.7797
 8443TIP3   OH246819   6.330   4.796   1.128  0.7494 -0.5237 -0.5227
 8443TIP3    H146820   6.379   4.872   1.157  1.1548 -1.0214  0.1367
 8443TIP3    H246821   6.398   4.734   1.099  0.3929 -0.2992 -1.9374
 8444TIP3   OH246822   5.714   3.343  11.371 -0.0772 -0.5773 -0.0247
 8444TIP3    H146823   5.641   3.405  11.364  0.5033  0.0955 -0.1617
 8444TIP3    H246824   5.736   3.321  11.280 -1.5623 -2.5442  0.0129
 8445TIP3   OH246825   6.422   5.608   5.091 -0.0509 -0.1156 -0.4649
 8445TIP3    H146826   6.491   5.561   5.139  0.6344 -0.4420 -1.7047
 8445TIP3    H246827   6.372   5.539   5.048 -0.4466  0.1816 -0.4832
 8446TIP3   OH246828   2.355   1.291  11.421 -0.2507 -0.4915 -0.6515
 8446TIP3    H146829   2.435   1.267  11.375 -0.0992 -1.6394  0.1622
 8446TIP3    H246830   2.362   1.386  11.434  0.1600 -0.3055 -2.0786
 8447TIP3   OH246831   1.261   5.347   1.636  0.2881  0.2908  0.1977
 8447TIP3    H146832   1.321   5.291   1.686 -1.8560 -1.5704  0.8507
 8447TIP3    H246833   1.310   5.368   1.556  1.5034 -1.9120  0.2589
 8448TIP3   OH246834   5.284   5.057   0.251 -0.3435  0.1818 -0.0919
 8448TIP3    H146835   5.283   5.105   0.334 -1.6638 -0.0280  0.0440
 8448TIP3    H246836   5.213   5.096   0.201  0.2490  0.0978 -1.0065
 8449TIP3   OH246837   0.059   4.407   5.299  0.2767 -0.3677  0.3665
 8449TIP3    H146838   0.127   4.471   5.322  1.6286 -1.4938 -0.2971
 8449TIP3    H246839  -0.013   4.460   5.265  1.8672  0.7760 -1.4282
 8450TIP3   OH246840   2.359   6.054  14.805 -0.1872 -0.2630  0.3438
 8450TIP3    H146841   2.362   5.960  14.822  0.9706  0.2002  3.2413
 8450TIP3    H246842   2.450   6.082  14.809 -0.6083  1.1489  0.7123
 8451TIP3   OH246843   1.597   6.244  16.393 -0.1055 -0.1299 -0.1274
 8451TIP3    H146844   1.678   6.211  16.354 -0.5093 -3.0550  1.2140
 8451TIP3    H246845   1.625   6.295  16.468  0.5203  0.1511 -0.5441
 8452TIP3   OH246846   4.369   1.158  15.229  0.0185 -0.0662  0.0010
 8452TIP3    H146847   4.398   1.188  15.143 -0.0491  1.2994  0.4354
 8452TIP3    H246848   4.428   1.201  15.291 -1.1907  0.5771  0.7376
 8453TIP3   OH246849   3.905   1.441  15.804  0.1918 -0.0513  0.1275
 8453TIP3    H146850   3.973   1.460  15.869  0.3827  0.1187 -0.1202
 8453TIP3    H246851   3.883   1.527  15.766  0.9888 -0.2978 -0.9317
 8454TIP3   OH246852   5.080   5.898   1.462  0.2284 -0.0533 -0.0042
 8454TIP3    H146853   5.049   5.813   1.432  0.9573 -0.4967  0.4749
 8454TIP3    H246854   5.174   5.887   1.473  0.6871  1.4085 -1.9458
 8455TIP3   OH246855   6.823   3.774   1.325  0.4629 -0.2562 -0.3067
 8455TIP3    H146856   6.890   3.715   1.359  2.8732  1.8568 -1.0707
 8455TIP3    H246857   6.846   3.785   1.233  0.3524  2.1396 -0.0958
 8456TIP3   OH246858   3.719   0.455   5.134 -0.2196 -0.0207  0.2366
 8456TIP3    H146859   3.763   0.401   5.199 -0.3270  0.8559  1.0485
 8456TIP3    H246860   3.634   0.413   5.121 -0.1998 -0.1924  0.6722
 8457TIP3   OH246861   3.197   0.098  13.218 -0.5691  0.4792 -0.2033
 8457TIP3    H146862   3.127   0.153  13.185 -1.4806 -1.7806 -2.3550
 8457TIP3    H246863   3.275   0.153  13.214 -2.0637  3.0870  2.3248
 8458TIP3   OH246864   4.756   3.037   1.508 -0.1480 -0.8655  0.3260
 8458TIP3    H146865   4.800   3.025   1.592 -0.4833 -0.0316  0.6337
 8458TIP3    H246866   4.824   3.024   1.442  0.8724  1.5480  0.8138
 8459TIP3   OH246867   4.522   4.323  14.632 -0.3525  0.0122 -0.0873
 8459TIP3    H146868   4.591   4.382  14.601 -0.1131 -1.0713 -1.7729
 8459TIP3    H246869   4.446   4.343  14.576 -0.8828  0.0612  0.6383
 8460TIP3   OH246870   5.758   6.784   3.280  0.1452 -0.4975 -0.1121
 8460TIP3    H146871   5.784   6.726   3.208  1.8969 -0.1069  0.1512
 8460TIP3    H246872   5.816   6.759   3.352 -1.1760 -0.4702  0.9949
 8461TIP3   OH246873   4.604   3.270   1.406 -0.1277  0.4328 -0.0559
 8461TIP3    H146874   4.518   3.232   1.390 -0.1255  0.2528  0.3503
 8461TIP3    H246875   4.656   3.198   1.441 -0.0946  0.7789  0.6281
 8462TIP3   OH246876   0.741   3.978  13.150 -0.3643  0.7634 -0.1466
 8462TIP3    H146877   0.777   4.065  13.171 -0.3271  1.0518 -1.3550
 8462TIP3    H246878   0.651   3.995  13.126 -1.0039  0.1845  1.6476
 8463TIP3   OH246879   3.925   5.196  12.294  0.2640  0.2279 -0.2906
 8463TIP3    H146880   3.880   5.165  12.215 -0.5190  3.5097 -1.2934
 8463TIP3    H246881   3.856   5.240  12.345  1.3472  0.8472  0.6831
 8464TIP3   OH246882   3.362   3.713  10.533  0.3308 -0.8404  0.4208
 8464TIP3    H146883   3.290   3.773  10.513  0.4977 -0.3934  1.1165
 8464TIP3    H246884   3.337   3.631  10.491 -0.0208 -0.3591 -0.3379
 8465TIP3   OH246885   0.337   0.221  11.947  0.7797  0.4013 -0.4683
 8465TIP3    H146886   0.304   0.295  11.896 -0.8709  0.8005  1.0792
 8465TIP3    H246887   0.378   0.260  12.023  1.3988 -0.2425 -0.4634
 8466TIP3   OH246888   4.438   1.461   0.046  0.1475  0.0683 -0.2766
 8466TIP3    H146889   4.530   1.485   0.053  0.1881 -0.2358  0.3132
 8466TIP3    H246890   4.417   1.473  -0.046  0.3793  1.5873 -0.1577
 8467TIP3   OH246891   5.588   1.669  14.979  0.0356  0.6925  0.2829
 8467TIP3    H146892   5.511   1.649  15.032 -0.4345  0.0829 -0.6042
 8467TIP3    H246893   5.597   1.593  14.920  2.2731 -0.0370  1.4426
 8468TIP3   OH246894   5.363   3.661   2.573  0.2537 -0.5202 -0.1715
 8468TIP3    H146895   5.334   3.574   2.601 -1.5971  0.1047 -0.0254
 8468TIP3    H246896   5.383   3.706   2.655 -3.2949  0.6617  0.2306
 8469TIP3   OH246897   3.797   5.798  16.325  0.5332 -0.0724 -0.2058
 8469TIP3    H146898   3.796   5.877  16.271  1.7547 -0.1413 -0.3565
 8469TIP3    H246899   3.715   5.754  16.304  0.6855  0.2238 -1.5465
 8470TIP3   OH246900   4.892   5.944  17.300  0.4895 -0.6189  0.2595
 8470TIP3    H146901   4.878   5.974  17.210  1.2766 -0.4073  0.1940
 8470TIP3    H246902   4.822   5.881  17.316  1.7218 -2.5410 -1.3584
 8471TIP3   OH246903   6.564   0.962   5.417 -0.3648  0.2243  0.5253
 8471TIP3    H146904   6.558   1.010   5.500 -1.2800  0.1191  0.5257
 8471TIP3    H246905   6.548   1.029   5.350 -0.4252  0.1535  0.4696
 8472TIP3   OH246906   1.970   5.378   3.497  0.3121 -0.4848 -0.2407
 8472TIP3    H146907   2.047   5.412   3.542 -1.2611 -0.7717  2.9647
 8472TIP3    H246908   1.970   5.284   3.516  0.2624 -0.8852 -2.0271
 8473TIP3   OH246909   6.432   4.877  15.666 -0.3116  0.3013  0.3306
 8473TIP3    H146910   6.373   4.949  15.642  1.3295  1.5858 -0.0380
 8473TIP3    H246911   6.373   4.804  15.687 -2.0407  1.6957  0.6189
 8474TIP3   OH246912   4.361   6.271  14.281  0.5888  0.1688 -0.1772
 8474TIP3    H146913   4.377   6.195  14.224 -0.5339  0.5987 -1.0997
 8474TIP3    H246914   4.423   6.337  14.251  1.6210 -0.3682  0.6749
 8475TIP3   OH246915   2.287   0.094  13.080  0.4201  0.3179  0.1309
 8475TIP3    H146916   2.318   0.009  13.110  1.4135 -0.1777 -2.1061
 8475TIP3    H246917   2.192   0.087  13.083  0.3338 -2.2036 -3.1422
 8476TIP3   OH246918   0.319   3.853  13.823 -0.8063  0.0005 -0.4961
 8476TIP3    H146919   0.281   3.822  13.741 -1.7935 -0.2128  0.0199
 8476TIP3    H246920   0.299   3.784  13.886  2.1486 -1.0824 -0.5551
 8477TIP3   OH246921   2.227   3.614   2.435 -0.3449 -0.6368  0.4828
 8477TIP3    H146922   2.140   3.626   2.397 -0.8018 -0.9529  1.4132
 8477TIP3    H246923   2.281   3.584   2.361 -0.7720  0.5249 -0.3237
 8478TIP3   OH246924   0.318   6.419   0.615 -0.3453  0.0651  0.1807
 8478TIP3    H146925   0.342   6.510   0.595  0.6647 -0.1890  0.1926
 8478TIP3    H246926   0.262   6.393   0.542 -0.0467  0.4671 -0.1990
 8479TIP3   OH246927   0.260   0.422  15.731 -0.3248 -0.5951 -0.0841
 8479TIP3    H146928   0.228   0.497  15.682  0.7641  0.5440  0.8860
 8479TIP3    H246929   0.352   0.414  15.707  0.7742  1.1022  2.9015
 8480TIP3   OH246930   5.378   0.018  13.831  0.1965 -0.4204 -0.0715
 8480TIP3    H146931   5.310  -0.044  13.856  1.1540 -1.8542 -0.8993
 8480TIP3    H246932   5.429   0.031  13.911 -0.7710  0.3604  0.4481
 8481TIP3   OH246933   3.676   0.810   6.191  0.3183 -0.0804  0.3574
 8481TIP3    H146934   3.748   0.802   6.254  0.2208  0.7457  0.5785
 8481TIP3    H246935   3.624   0.883   6.222  0.3620  0.4545 -0.7711
 8482TIP3   OH246936   4.832   5.317  16.432  0.1768 -0.0470  0.1933
 8482TIP3    H146937   4.856   5.410  16.437  0.8735 -0.2030 -0.1734
 8482TIP3    H246938   4.916   5.271  16.430 -0.1321 -0.5859 -1.5637
 8483TIP3   OH246939   3.255   5.430   0.380  0.2828 -0.2484  0.3897
 8483TIP3    H146940   3.199   5.502   0.411  0.7247  0.5458 -0.5745
 8483TIP3    H246941   3.228   5.417   0.289  0.1446 -1.3882  0.5750
 8484TIP3   OH246942   0.961   2.286   0.744  0.2190 -0.2885 -0.0560
 8484TIP3    H146943   1.013   2.322   0.672  0.9558  0.6520  0.9171
 8484TIP3    H246944   0.878   2.261   0.703  0.0766  1.5336 -0.9790
 8485TIP3   OH246945   6.377   5.815   5.250 -0.5059  0.0894  0.5525
 8485TIP3    H146946   6.352   5.890   5.197 -0.3199  0.3131  0.7774
 8485TIP3    H246947   6.383   5.742   5.188  0.2670  0.4675  0.1694
 8486TIP3   OH246948   0.405   6.563  11.169  0.2907 -0.4087  0.2598
 8486TIP3    H146949   0.496   6.545  11.145  0.4430  0.1673  0.4049
 8486TIP3    H246950   0.361   6.479  11.156  1.0069 -0.9257  1.0065
 8487TIP3   OH246951   6.467   0.242   0.507 -0.1314 -0.2950  1.0847
 8487TIP3    H146952   6.463   0.337   0.514 -0.0248 -0.1931 -0.0163
 8487TIP3    H246953   6.394   0.219   0.450  0.2949 -0.7941  0.7314
 8488TIP3   OH246954   1.866   5.607   4.899  0.3301  0.5263  0.1443
 8488TIP3    H146955   1.797   5.668   4.870  0.1161  0.9876  1.5441
 8488TIP3    H246956   1.871   5.620   4.994  1.0857 -0.8342  0.3123
 8489TIP3   OH246957   2.832   1.022  11.664 -0.2447 -0.1704  0.3595
 8489TIP3    H146958   2.921   0.987  11.666 -0.3825 -0.4980  1.2633
 8489TIP3    H246959   2.783   0.960  11.610 -0.0565 -0.3039  0.3420
 8490TIP3   OH246960   3.540   1.110   3.064 -0.0337  0.1695  0.1345
 8490TIP3    H146961   3.487   1.189   3.060 -1.1462 -0.4410  1.6254
 8490TIP3    H246962   3.542   1.087   3.157  5.1527  1.5988  0.7236
 8491TIP3   OH246963   5.717   5.199   0.854 -0.2921  0.3705  0.7058
 8491TIP3    H146964   5.687   5.150   0.778 -1.0854 -0.1805  1.3437
 8491TIP3    H246965   5.677   5.285   0.844  0.2259  0.5478  0.1223
 8492TIP3   OH246966   0.059   1.375  15.254  0.5682 -0.0781  0.0264
 8492TIP3    H146967  -0.034   1.386  15.277  0.7802  1.8665  0.0943
 8492TIP3    H246968   0.057   1.342  15.164 -0.2151  1.1345 -0.4310
 8493TIP3   OH246969   3.576   5.202  11.424  0.6622 -0.8996  0.4251
 8493TIP3    H146970   3.547   5.293  11.420  0.4230 -0.9584  0.7823
 8493TIP3    H246971   3.528   5.158  11.354  1.7649 -0.4874 -0.6289
 8494TIP3   OH246972   5.369   3.141  16.954 -0.5509 -0.2006 -0.1460
 8494TIP3    H146973   5.456   3.120  16.921 -1.0514 -2.1585 -0.3590
 8494TIP3    H246974   5.384   3.188  17.036  0.7185 -1.7095  0.5228
 8495TIP3   OH246975   4.088   3.539  16.339  0.0568  0.1675 -0.2215
 8495TIP3    H146976   4.172   3.565  16.303 -0.3006 -2.4644 -3.4587
 8495TIP3    H246977   4.025   3.600  16.300  0.1913  0.5423  0.1436
 8496TIP3   OH246978   4.078   4.332  16.518 -0.2673 -0.2997  0.5709
 8496TIP3    H146979   3.988   4.330  16.484  0.3147  0.6034 -1.1667
 8496TIP3    H246980   4.126   4.269  16.463  0.5190  0.5280  0.2858
 8497TIP3   OH246981   3.328   4.064  17.045  0.2199 -0.2926  0.1278
 8497TIP3    H146982   3.402   4.072  16.985  1.1142  3.2000  1.4683
 8497TIP3    H246983   3.251   4.075  16.989  0.8793 -0.3922 -0.8238
 8498TIP3   OH246984   5.762   4.282   1.310 -0.3338 -0.2460  0.2978
 8498TIP3    H146985   5.766   4.323   1.396  0.8530  2.5908 -0.9893
 8498TIP3    H246986   5.678   4.309   1.274 -0.2564 -0.3313  0.0506
 8499TIP3   OH246987   1.073   5.876  13.148  0.2700 -0.2647 -0.0353
 8499TIP3    H146988   1.086   5.862  13.054  0.0481 -0.8875  0.0254
 8499TIP3    H246989   0.977   5.874  13.158  0.0065  3.4797 -0.3700
 8500TIP3   OH246990   4.936   4.605   4.360 -0.0510  0.1740 -0.8258
 8500TIP3    H146991   4.941   4.630   4.268  1.7224 -1.0273 -1.1098
 8500TIP3    H246992   5.019   4.635   4.397 -1.0838  1.4020  0.6304
 8501TIP3   OH246993   0.836   4.240   2.633 -0.1507 -0.0300  0.6362
 8501TIP3    H146994   0.876   4.291   2.563 -1.2311  1.1454  0.8507
 8501TIP3    H246995   0.909   4.221   2.693  0.5842 -0.2119 -0.2876
 8502TIP3   OH246996   3.224   5.304  14.221 -0.4686 -0.3903 -0.6147
 8502TIP3    H146997   3.200   5.213  14.236 -0.0503 -0.5954 -1.1337
 8502TIP3    H246998   3.266   5.304  14.135  0.5396  0.1010 -0.1405
 8503TIP3   OH246999   3.136   6.130  11.588  0.8503 -0.6563 -0.1641
 8503TIP3    H147000   3.223   6.132  11.548  0.7564  0.5845 -0.3587
 8503TIP3    H247001   3.138   6.202  11.652 -0.4391  0.2646 -1.1041
 8504TIP3   OH247002   5.218   2.962  17.065 -0.3198  0.1208 -0.0676
 8504TIP3    H147003   5.278   3.015  17.011  0.0007  0.9166  1.0410
 8504TIP3    H247004   5.224   2.874  17.028  1.6480  0.1533  0.0858
 8505TIP3   OH247005   1.722   1.800   5.697 -0.2303 -0.0896  0.6949
 8505TIP3    H147006   1.698   1.708   5.712 -1.0480 -0.5049 -2.3411
 8505TIP3    H247007   1.767   1.827   5.776 -0.2837 -3.0093  1.8339
 8506TIP3   OH247008   6.677   6.715  14.685 -0.9856  0.5041 -0.0597
 8506TIP3    H147009   6.647   6.631  14.650 -0.8159 -0.1778  1.3645
 8506TIP3    H247010   6.598   6.767  14.696 -1.0393  0.7522 -1.4466
 8507TIP3   OH247011   1.346   1.817  12.300  0.1253  0.1866  0.9030
 8507TIP3    H147012   1.399   1.807  12.221 -0.6497 -0.4938  0.4477
 8507TIP3    H247013   1.316   1.728  12.320 -1.1443  0.5977  0.9292
 8508TIP3   OH247014   1.237   5.916   3.664 -0.5674 -0.0544 -0.3326
 8508TIP3    H147015   1.294   5.873   3.728 -0.4450  0.0475 -0.3717
 8508TIP3    H247016   1.298   5.951   3.599 -0.6559  0.3416 -0.2012
 8509TIP3   OH247017   4.967   3.940   1.531  0.0873 -0.4950  0.0058
 8509TIP3    H147018   4.982   3.882   1.457  1.4642 -0.1141 -0.0380
 8509TIP3    H247019   4.986   3.887   1.608  0.0240 -0.4926  0.0229
 8510TIP3   OH247020   4.427   1.535   5.269  0.4950 -0.3062  0.1339
 8510TIP3    H147021   4.365   1.597   5.306 -1.4324 -1.0259 -1.6510
 8510TIP3    H247022   4.458   1.577   5.189 -2.1774 -2.1226 -2.0713
 8511TIP3   OH247023   0.269   5.641   1.674  0.1773 -0.8284  0.0199
 8511TIP3    H147024   0.255   5.575   1.741  1.9955 -2.0497 -0.7272
 8511TIP3    H247025   0.208   5.711   1.696  0.1999 -1.5042  2.5035
 8512TIP3   OH247026   6.110   6.714   5.191 -0.2090  0.0073  0.2077
 8512TIP3    H147027   6.075   6.778   5.253 -1.1089  1.0497 -1.2986
 8512TIP3    H247028   6.088   6.629   5.229 -1.2155  0.6229  1.0640
 8513TIP3   OH247029   1.415   2.978  13.130  0.1890  0.1662 -0.4213
 8513TIP3    H147030   1.429   3.043  13.198 -0.4206 -1.0993  0.9637
 8513TIP3    H247031   1.468   3.008  13.056  1.5807  1.0958  0.9185
 8514TIP3   OH247032   6.390   4.254  14.099  0.0866 -0.1497 -0.7049
 8514TIP3    H147033   6.345   4.184  14.147 -0.1547  0.1162 -0.5355
 8514TIP3    H247034   6.409   4.320  14.165 -1.4495  0.8269 -1.1730
 8515TIP3   OH247035   0.476   4.849  12.885 -0.4514  0.4808  0.2427
 8515TIP3    H147036   0.385   4.822  12.889 -0.2479 -0.2458  0.1489
 8515TIP3    H247037   0.525   4.767  12.880  0.1722  0.8801 -0.3629
 8516TIP3   OH247038   5.626   3.739  13.101  0.1670  0.4848 -0.2068
 8516TIP3    H147039   5.608   3.806  13.167 -0.4441 -0.5297  0.6743
 8516TIP3    H247040   5.557   3.751  13.036 -0.1484  0.4854  0.1253
 8517TIP3   OH247041   4.757   1.153  12.929  0.5841  0.2944 -0.1542
 8517TIP3    H147042   4.721   1.158  12.840  2.5891  0.7434 -0.9908
 8517TIP3    H247043   4.685   1.119  12.982 -0.7071  0.1442 -1.9148
 8518TIP3   OH247044   1.256   6.788  16.904  0.5063 -0.3163  0.3191
 8518TIP3    H147045   1.211   6.790  16.989  1.8489 -0.9168  1.0637
 8518TIP3    H247046   1.273   6.696  16.888  3.2314 -0.0216  1.0446
 8519TIP3   OH247047   3.180   5.213   0.981 -0.2062 -0.1199 -0.0190
 8519TIP3    H147048   3.264   5.252   0.956 -1.1428  1.6933 -0.4858
 8519TIP3    H247049   3.124   5.288   1.001 -1.9749 -1.2420 -0.5586
 8520TIP3   OH247050   4.675   1.588   4.576 -0.0160  0.6423  0.0784
 8520TIP3    H147051   4.618   1.560   4.648  0.4750 -0.9489 -0.1088
 8520TIP3    H247052   4.631   1.555   4.497  1.2096 -0.7457 -0.0557
 8521TIP3   OH247053   4.334   2.318   2.080  0.6608  0.4533 -0.3169
 8521TIP3    H147054   4.354   2.357   2.165 -1.4426 -1.5372  1.2232
 8521TIP3    H247055   4.258   2.367   2.048 -1.1167 -1.2875  0.9753
 8522TIP3   OH247056   0.929   4.011  13.430 -0.3261  0.7926 -0.1888
 8522TIP3    H147057   0.856   4.058  13.390  0.2050  1.7385 -0.0858
 8522TIP3    H247058   0.982   4.080  13.471  0.4182  0.0862  0.0635
 8523TIP3   OH247059   0.461   5.670   0.923 -0.0255 -0.6023  0.2394
 8523TIP3    H147060   0.516   5.596   0.950 -1.4996 -1.9220 -0.2501
 8523TIP3    H247061   0.454   5.724   1.002  0.7749 -1.1710  0.7190
 8524TIP3   OH247062   1.200   0.805   4.594 -0.0897 -0.1176  0.1128
 8524TIP3    H147063   1.200   0.710   4.584  1.6656 -0.2367  0.8697
 8524TIP3    H247064   1.271   0.834   4.535 -1.2159  0.8297 -0.8182
 8525TIP3   OH247065   0.501   4.361  11.746 -0.1999  0.4291  0.3657
 8525TIP3    H147066   0.412   4.375  11.778  0.8215 -0.6018  4.1655
 8525TIP3    H247067   0.537   4.449  11.733 -1.2944  0.8618  0.2318
 8526TIP3   OH247068   4.943   5.298   3.116  0.1385  0.1046 -0.2720
 8526TIP3    H147069   4.938   5.207   3.146  1.7913  0.1699  0.3053
 8526TIP3    H247070   4.855   5.318   3.084 -0.5352 -1.3534  0.5770
 8527TIP3   OH247071   5.215   1.260  14.406  0.2151 -0.1088  0.4168
 8527TIP3    H147072   5.271   1.307  14.345 -0.9527  2.7552  1.3758
 8527TIP3    H247073   5.129   1.300  14.396 -0.9851 -2.2901  1.1418
 8528TIP3   OH247074   2.909   5.532   4.676  0.1482 -0.0158 -0.0840
 8528TIP3    H147075   2.939   5.549   4.587 -0.8506  0.6507 -0.3069
 8528TIP3    H247076   2.825   5.577   4.682 -0.1880 -0.7418  0.9324
 8529TIP3   OH247077   5.893   2.233  16.583  0.0599  0.1991  0.6224
 8529TIP3    H147078   5.827   2.204  16.646  1.7854 -1.9267  1.5803
 8529TIP3    H247079   5.951   2.291  16.632 -0.5770  1.4092 -0.0029
 8530TIP3   OH247080   6.380   3.701   2.826  0.3976  1.0448  0.0021
 8530TIP3    H147081   6.360   3.758   2.899 -0.3150 -1.7201  2.1472
 8530TIP3    H247082   6.457   3.651   2.854 -1.0975 -1.5340 -0.1053
 8531TIP3   OH247083   0.292   5.139   4.305 -0.5838  0.2170  0.1951
 8531TIP3    H147084   0.359   5.151   4.238 -1.1766  1.2622 -0.2208
 8531TIP3    H247085   0.218   5.100   4.258 -0.2801 -0.9958  0.6654
 8532TIP3   OH247086   4.438   6.801  10.871 -0.0859  0.1289 -0.3445
 8532TIP3    H147087   4.523   6.791  10.829 -0.0843  0.8845 -0.5311
 8532TIP3    H247088   4.417   6.894  10.862  0.2776  0.5087  1.9862
 8533TIP3   OH247089   5.149   6.134  15.497 -0.1626  0.0670 -0.1773
 8533TIP3    H147090   5.154   6.125  15.402 -0.3949  0.5203 -0.2339
 8533TIP3    H247091   5.113   6.221  15.511 -1.0020 -0.3444  0.3042
 8534TIP3   OH247092   1.975   5.261  15.740  0.2381  0.2558 -0.6941
 8534TIP3    H147093   2.029   5.206  15.684  0.0276 -1.3507  0.6103
 8534TIP3    H247094   1.890   5.266  15.694 -0.2647 -1.8963 -0.0868
 8535TIP3   OH247095   3.722   3.350   5.067  0.4657  0.0475  0.0671
 8535TIP3    H147096   3.699   3.409   4.995 -0.6333 -0.6753 -0.2025
 8535TIP3    H247097   3.653   3.362   5.131  3.2187  3.3491  2.7764
 8536TIP3   OH247098   5.647   6.470   1.810 -0.3157 -0.8676  0.2489
 8536TIP3    H147099   5.677   6.382   1.836 -3.2545 -1.8074  0.8079
 8536TIP3    H247100   5.629   6.462   1.716  1.2204 -0.2378 -0.1362
 8537TIP3   OH247101   6.777   1.953  16.629  0.1781  0.3235  0.3493
 8537TIP3    H147102   6.718   2.023  16.659  0.8539  0.5772  1.1182
 8537TIP3    H247103   6.825   1.992  16.556 -0.1057  0.3472  0.1731
 8538TIP3   OH247104   0.039   0.785  12.758  0.1730 -0.6248  0.5915
 8538TIP3    H147105   0.113   0.844  12.746 -0.0521 -0.6908 -1.3715
 8538TIP3    H247106   0.076   0.711  12.807  0.8535  0.3070  1.5479
 8539TIP3   OH247107   4.370   4.140  11.881  0.4589  0.0193  0.7168
 8539TIP3    H147108   4.345   4.084  11.807 -0.3927 -0.2313  1.1912
 8539TIP3    H247109   4.316   4.218  11.872  2.6048  1.4493 -0.7313
 8540TIP3   OH247110   3.942   0.774   2.251  0.3227 -0.1804  0.1540
 8540TIP3    H147111   3.913   0.683   2.242 -0.4905  0.1240 -0.3278
 8540TIP3    H247112   3.869   0.826   2.218  0.2007  0.7105  1.7319
 8541TIP3   OH247113   1.685   5.401   5.059  0.1950  0.1197  0.4598
 8541TIP3    H147114   1.739   5.382   4.982 -1.3359  1.7296 -1.1076
 8541TIP3    H247115   1.728   5.476   5.100 -0.5280  1.0719 -0.4903
 8542TIP3   OH247116   5.827   1.846   2.206 -0.0111 -0.3134 -0.0521
 8542TIP3    H147117   5.783   1.813   2.128  1.5431 -2.6110 -0.0374
 8542TIP3    H247118   5.808   1.781   2.274 -1.6226  1.7842  1.7025
 8543TIP3   OH247119   6.442   6.040   2.262  0.1468  0.2072 -0.0515
 8543TIP3    H147120   6.516   6.094   2.292 -0.1747  1.4965 -1.4573
 8543TIP3    H247121   6.417   5.988   2.339  2.1359  0.1597  0.6119
 8544TIP3   OH247122   0.455   2.765  14.141  0.0877 -0.1676 -0.5977
 8544TIP3    H147123   0.485   2.687  14.097  0.5325 -0.6879  0.5845
 8544TIP3    H247124   0.372   2.739  14.182  0.9084 -0.4474  0.9345
 8545TIP3   OH247125   5.220   5.295   2.761 -0.7283 -0.3482  0.2490
 8545TIP3    H147126   5.293   5.336   2.714  0.8681 -0.3266  2.5706
 8545TIP3    H247127   5.166   5.368   2.791 -1.5975 -0.3503 -1.2032
 8546TIP3   OH247128   0.547   1.454   3.232  0.4764 -0.5003  0.4321
 8546TIP3    H147129   0.619   1.402   3.268  1.2732  0.3565  0.1127
 8546TIP3    H247130   0.485   1.463   3.305  0.5970 -1.4060  0.6539
 8547TIP3   OH247131   2.170   3.042  14.119  0.2263 -0.8223 -0.9418
 8547TIP3    H147132   2.191   3.130  14.087  0.3974 -0.2775  0.6091
 8547TIP3    H247133   2.256   2.999  14.129  0.4982  0.2309  2.0934
 8548TIP3   OH247134   2.632   6.321   1.682  0.4166  0.6560 -0.2054
 8548TIP3    H147135   2.673   6.396   1.638  0.7851  0.2774 -0.5206
 8548TIP3    H247136   2.577   6.282   1.614  1.5817 -0.3880 -0.5870
 8549TIP3   OH247137   6.141   5.618   4.380 -0.2877 -0.1966  0.4478
 8549TIP3    H147138   6.062   5.568   4.405 -1.2379  0.1975 -1.5654
 8549TIP3    H247139   6.156   5.595   4.288  1.1106  0.8538  0.3804
 8550TIP3   OH247140   3.887   6.050   4.675  0.5425  0.0024 -0.1586
 8550TIP3    H147141   3.803   6.019   4.640  1.4386 -0.4930 -2.0021
 8550TIP3    H247142   3.879   6.146   4.674 -0.4220 -0.0462  0.8458
 8551TIP3   OH247143   4.941   0.274  15.612  0.3431 -0.3076  0.2676
 8551TIP3    H147144   4.946   0.368  15.597 -0.0643  0.0534  2.1631
 8551TIP3    H247145   5.026   0.240  15.583  0.7514  0.7389  0.2052
 8552TIP3   OH247146   6.776   3.517   4.294  0.1456 -0.2485  0.0075
 8552TIP3    H147147   6.785   3.422   4.283  1.5028 -0.1267 -0.1399
 8552TIP3    H247148   6.781   3.551   4.205 -2.5768 -0.1361 -0.2034
 8553TIP3   OH247149   2.189   5.373  16.198  0.3262  0.4231  0.0588
 8553TIP3    H147150   2.239   5.304  16.155 -0.6611 -0.4029  0.2056
 8553TIP3    H247151   2.098   5.351  16.181 -0.1140  0.0023  2.6577
 8554TIP3   OH247152   4.727   2.800  11.896  0.2441  0.1897  0.5182
 8554TIP3    H147153   4.664   2.741  11.936  2.2289 -0.7416  2.5100
 8554TIP3    H247154   4.712   2.792  11.802 -1.1732 -1.6049  0.8465
 8555TIP3   OH247155   6.136   3.082  11.431  0.1842 -0.1060  0.1958
 8555TIP3    H147156   6.181   2.998  11.417  1.2004  0.6161 -1.1991
 8555TIP3    H247157   6.074   3.088  11.359  1.4893  1.1584 -0.9021
 8556TIP3   OH247158   6.092   5.289  11.242  0.2243 -0.4085  0.8683
 8556TIP3    H147159   6.126   5.355  11.182 -0.5959  1.7255  2.6018
 8556TIP3    H247160   6.011   5.259  11.202  0.2785  0.1255  0.3448
 8557TIP3   OH247161   1.593   3.686   2.390  0.0396 -0.5660 -0.0281
 8557TIP3    H147162   1.645   3.615   2.428  0.8583  0.0901  0.1144
 8557TIP3    H247163   1.541   3.720   2.462  1.4605  0.5625  0.5100
 8558TIP3   OH247164   2.497   4.635  15.963  0.4911  0.5394  0.2997
 8558TIP3    H147165   2.421   4.684  15.932 -1.1172 -2.6788 -1.2915
 8558TIP3    H247166   2.560   4.703  15.989 -1.6455  3.3840 -1.3594
 8559TIP3   OH247167   5.976   6.069  13.849  0.1114 -0.1300  0.1508
 8559TIP3    H147168   5.894   6.029  13.878 -0.1121 -0.1275 -0.4646
 8559TIP3    H247169   6.006   6.014  13.777 -0.3576  0.9702 -0.9106
 8560TIP3   OH247170   6.426   2.156  15.108  0.4296 -0.0266  0.9745
 8560TIP3    H147171   6.476   2.152  15.189  2.0460  1.7151  0.1248
 8560TIP3    H247172   6.356   2.218  15.126 -0.1984 -0.8546  1.4929
 8561TIP3   OH247173   1.714   3.002  15.646 -0.0565  0.1523  0.4637
 8561TIP3    H147174   1.806   2.993  15.670  0.2384  0.0783 -0.6354
 8561TIP3    H247175   1.669   2.936  15.699  0.2204  1.4424  2.4218
 8562TIP3   OH247176   4.756   6.371  13.272  0.3833 -0.8118 -0.1625
 8562TIP3    H147177   4.702   6.327  13.208  0.5145 -1.6645  0.3009
 8562TIP3    H247178   4.697   6.434  13.314  0.0054 -1.0637 -0.3161
 8563TIP3   OH247179   4.889   1.730  14.372 -0.7905  0.1988 -0.2709
 8563TIP3    H147180   4.918   1.803  14.317 -0.9456  1.2199  0.9568
 8563TIP3    H247181   4.922   1.752  14.459  0.9152 -2.1925 -0.2043
 8564TIP3   OH247182   2.796   3.801   4.177  0.1096 -0.2514  0.3430
 8564TIP3    H147183   2.728   3.794   4.110 -0.4056 -0.9105  0.9130
 8564TIP3    H247184   2.870   3.842   4.132 -1.1457  1.8513  0.0819
 8565TIP3   OH247185   3.771   5.864  16.853  0.5567  0.3526 -0.7144
 8565TIP3    H147186   3.777   5.885  16.946  2.3797  0.3620 -0.8031
 8565TIP3    H247187   3.732   5.942  16.814 -0.5900  0.1972  0.0745
 8566TIP3   OH247188   5.652   1.089  13.137  0.1923  0.3345 -0.3273
 8566TIP3    H147189   5.700   1.074  13.056 -1.2125  0.7252 -1.2663
 8566TIP3    H247190   5.561   1.100  13.109 -1.2491 -4.3557  1.6603
 8567TIP3   OH247191   6.679   0.230  16.927  0.0799  0.1818 -0.4719
 8567TIP3    H147192   6.755   0.225  16.985 -0.6393 -1.5048  0.3828
 8567TIP3    H247193   6.646   0.141  16.923 -0.0535  0.2623 -3.3460
 8568TIP3   OH247194   4.817   3.146   4.658  0.2112  0.5305  0.4749
 8568TIP3    H147195   4.862   3.081   4.603 -1.0349 -0.0453  0.0779
 8568TIP3    H247196   4.731   3.107   4.674 -0.4441  1.9335  0.5217
 8569TIP3   OH247197   4.199   5.237   2.534 -0.4388 -0.2087  0.4316
 8569TIP3    H147198   4.207   5.204   2.623 -0.5329  0.8771  0.8491
 8569TIP3    H247199   4.278   5.205   2.490 -1.0594 -1.9331  0.4944
 8570TIP3   OH247200   2.169   1.301   5.735 -0.1986 -0.1235  0.3490
 8570TIP3    H147201   2.182   1.382   5.783  2.3439  0.1090 -0.5414
 8570TIP3    H247202   2.242   1.299   5.672 -2.0734 -1.4820 -1.9459
 8571TIP3   OH247203   1.315   2.249  16.970  0.2932 -0.4535 -0.3257
 8571TIP3    H147204   1.288   2.162  16.942  0.1527 -0.3726 -0.4438
 8571TIP3    H247205   1.341   2.293  16.889 -1.7426  0.3667 -0.6084
 8572TIP3   OH247206   4.161   1.664  11.136  0.1386  0.0795 -0.3830
 8572TIP3    H147207   4.138   1.574  11.113  2.2095 -0.1832 -1.7252
 8572TIP3    H247208   4.114   1.717  11.072 -0.4275 -0.0944 -0.1191
 8573TIP3   OH247209   4.764   5.532   2.158 -0.0043 -0.0020  0.5554
 8573TIP3    H147210   4.776   5.600   2.093 -1.4319 -0.2501 -0.0049
 8573TIP3    H247211   4.706   5.468   2.116 -0.7524 -0.2946  1.9656
 8574TIP3   OH247212   2.771   1.667  17.124  0.1420 -0.0977  0.2216
 8574TIP3    H147213   2.785   1.603  17.054 -0.2042  0.9386 -0.8288
 8574TIP3    H247214   2.677   1.686  17.121  0.0639 -0.2901  1.1976
 8575TIP3   OH247215   5.723   3.045  12.585  0.2886  0.4571 -0.0046
 8575TIP3    H147216   5.792   3.106  12.559  2.3291 -0.6161  2.4941
 8575TIP3    H247217   5.749   2.961  12.546 -0.9694  0.5378 -1.0720
 8576TIP3   OH247218   6.815   5.391  13.528 -0.2491 -0.0067  0.4886
 8576TIP3    H147219   6.870   5.313  13.526  0.1332  0.2526  0.8543
 8576TIP3    H247220   6.828   5.432  13.442  0.2914  0.1678  0.6543
 8577TIP3   OH247221   4.533   0.284  13.487  0.4279  0.3434  0.0663
 8577TIP3    H147222   4.447   0.246  13.505  0.6309 -1.1578 -1.8174
 8577TIP3    H247223   4.584   0.268  13.566 -1.2079  1.9494  1.5165
 8578TIP3   OH247224   2.764   4.720   4.881  0.3398 -0.1069  0.1519
 8578TIP3    H147225   2.793   4.789   4.821  0.2813 -0.0209  0.2248
 8578TIP3    H247226   2.846   4.683   4.915  0.3826  1.7168  2.2204
 8579TIP3   OH247227   5.262   2.734  11.391 -0.2480  0.2380  0.2766
 8579TIP3    H147228   5.241   2.822  11.358 -0.8695  0.2192  0.5916
 8579TIP3    H247229   5.268   2.745  11.486 -1.2966 -0.2276  0.4177
 8580TIP3   OH247230   5.704   0.223   3.578  1.2093 -0.0003 -0.2095
 8580TIP3    H147231   5.630   0.165   3.594  1.3409  0.5096  3.0684
 8580TIP3    H247232   5.769   0.168   3.533  0.4095 -1.6871  0.6092
 8581TIP3   OH247233   0.665   4.688   3.173 -0.4796  0.3363  0.3108
 8581TIP3    H147234   0.596   4.632   3.210 -1.7990  0.5423 -1.6562
 8581TIP3    H247235   0.703   4.636   3.103 -0.8885  1.4175 -0.7514
 8582TIP3   OH247236   4.380   3.626   4.439 -0.1052  0.5636  0.4855
 8582TIP3    H147237   4.452   3.563   4.435 -0.5436  0.1025 -0.4680
 8582TIP3    H247238   4.414   3.703   4.394 -0.4581  0.0694 -0.6609
 8583TIP3   OH247239   2.592   1.420   3.306 -0.3454  0.1363  0.4678
 8583TIP3    H147240   2.551   1.497   3.347 -0.7714  0.5320 -0.6606
 8583TIP3    H247241   2.568   1.347   3.363 -1.3432  0.5968  0.6678
 8584TIP3   OH247242   4.408   6.197   3.934  0.2208 -0.2455 -0.3398
 8584TIP3    H147243   4.370   6.151   4.009  1.6634 -0.0407  0.5615
 8584TIP3    H247244   4.442   6.279   3.970  0.1689  0.2546 -1.3931
 8585TIP3   OH247245   4.613   0.876  10.968 -0.1486 -0.7665  0.0996
 8585TIP3    H147246   4.593   0.849  10.878  0.2629 -0.7903  0.0167
 8585TIP3    H247247   4.701   0.842  10.985  0.4779  0.6830 -0.0890
 8586TIP3   OH247248   5.246   5.946   2.688 -0.4765  0.2065  0.0881
 8586TIP3    H147249   5.317   5.882   2.684 -0.0675  0.6984 -0.7533
 8586TIP3    H247250   5.168   5.896   2.663 -0.7776 -0.7652  2.6683
 8587TIP3   OH247251   6.307   1.817   0.881 -0.2807  0.3800 -0.8417
 8587TIP3    H147252   6.370   1.869   0.832  1.8583  0.9003  2.1942
 8587TIP3    H247253   6.349   1.731   0.890  0.4361  0.9393  1.8050
 8588TIP3   OH247254   1.754   3.164   4.550 -0.2531 -0.0517  0.6193
 8588TIP3    H147255   1.763   3.074   4.519 -0.2159 -0.0903  0.7424
 8588TIP3    H247256   1.719   3.212   4.475 -0.7282 -0.2651  0.6977
 8589TIP3   OH247257   5.001   5.027   6.002 -0.8135  0.3712 -0.0568
 8589TIP3    H147258   5.021   4.945   5.956  1.6925  0.0033  1.5081
 8589TIP3    H247259   4.969   4.998   6.088 -0.1368  1.0230  0.4221
 8590TIP3   OH247260   5.525   2.297  12.965  0.5762  0.4942  0.0083
 8590TIP3    H147261   5.434   2.269  12.959  0.9340 -1.1581  1.5275
 8590TIP3    H247262   5.539   2.348  12.885 -1.9004  1.5482  0.1631
 8591TIP3   OH247263   4.434   5.385  16.940  0.2791 -0.1128  0.0603
 8591TIP3    H147264   4.363   5.372  17.003 -0.1601 -0.7305 -0.5465
 8591TIP3    H247265   4.468   5.473  16.960 -0.5942  0.1536  0.4231
 8592TIP3   OH247266   2.773   3.832   1.222  0.2430  0.3192 -0.0757
 8592TIP3    H147267   2.723   3.871   1.151 -1.2208  1.1666  1.3385
 8592TIP3    H247268   2.865   3.844   1.197 -0.2218  1.6572 -1.2483
 8593TIP3   OH247269   1.947   6.553   4.743 -0.3396  0.3100  0.1891
 8593TIP3    H147270   1.938   6.641   4.706  1.5129  0.3278 -0.3134
 8593TIP3    H247271   2.015   6.511   4.691 -0.4007 -1.0408  1.1330
 8594TIP3   OH247272   3.773   0.575   0.181 -0.3703 -1.0123 -0.5420
 8594TIP3    H147273   3.757   0.481   0.180 -1.3143 -0.8616 -0.5229
 8594TIP3    H247274   3.718   0.610   0.111 -2.4295 -0.1398  1.3912
 8595TIP3   OH247275   4.206   4.219  12.326 -0.7583  0.4344  0.6771
 8595TIP3    H147276   4.115   4.241  12.344 -0.1462  1.1814  3.2005
 8595TIP3    H247277   4.242   4.192  12.411  1.2659 -0.2877 -0.3345
 8596TIP3   OH247278   1.534   3.343  13.824  0.2474  0.1489 -0.4836
 8596TIP3    H147279   1.576   3.266  13.786  0.0324 -0.0036 -0.4095
 8596TIP3    H247280   1.516   3.319  13.915 -0.6263 -0.0345 -0.6976
 8597TIP3   OH247281   3.430   3.496  16.263  0.2416  0.4413 -0.5922
 8597TIP3    H147282   3.348   3.511  16.310  0.7817 -2.2479  1.4755
 8597TIP3    H247283   3.480   3.576  16.275 -1.4338  1.5118 -0.4953
 8598TIP3   OH247284   4.243   1.265  16.085  0.1789 -0.2967  0.0805
 8598TIP3    H147285   4.243   1.285  16.178  1.0242 -1.6336  0.3912
 8598TIP3    H247286   4.335   1.249  16.064  0.3836  2.3483 -1.5618
 8599TIP3   OH247287   1.470   2.064  11.214  0.2104 -0.1910 -0.3602
 8599TIP3    H147288   1.438   2.130  11.153 -1.3948 -0.0187  0.6009
 8599TIP3    H247289   1.390   2.020  11.245  0.6037  1.4934  3.6053
 8600TIP3   OH247290   4.734   3.429  13.138  0.3244  0.4510 -0.0170
 8600TIP3    H147291   4.779   3.510  13.114 -1.0899  1.5016  0.6966
 8600TIP3    H247292   4.663   3.457  13.196 -1.9886 -0.9516 -1.9595
 8601TIP3   OH247293   0.017   0.081  12.737  0.0235  0.7213 -0.6928
 8601TIP3    H147294  -0.065   0.031  12.743 -1.4141  2.9958 -0.4787
 8601TIP3    H247295   0.082   0.024  12.778 -1.1680 -1.6312 -1.8404
 8602TIP3   OH247296   5.058   4.441  16.949 -0.1605  0.1804  0.2480
 8602TIP3    H147297   4.992   4.395  16.897 -0.2877 -0.0767  0.6374
 8602TIP3    H247298   5.073   4.385  17.025  0.3137  0.3645  0.2947
 8603TIP3   OH247299   0.439   3.665   5.603  0.1135  0.0978 -0.4260
 8603TIP3    H147300   0.350   3.699   5.590 -0.5853 -0.5037  2.1468
 8603TIP3    H247301   0.427   3.572   5.619  1.2213 -0.0326 -0.2934
 8604TIP3   OH247302   4.334   6.433   5.678  0.1395 -0.5441  0.3800
 8604TIP3    H147303   4.405   6.426   5.615  0.8910  0.3383  1.0965
 8604TIP3    H247304   4.281   6.355   5.663  0.9200 -0.9173 -0.5710
 8605TIP3   OH247305   0.161   3.692   1.070 -0.1987 -0.9513  0.3557
 8605TIP3    H147306   0.231   3.667   1.009  0.4578  2.5438 -0.5478
 8605TIP3    H247307   0.080   3.667   1.025  0.3239 -3.1577  0.4923
 8606TIP3   OH247308   6.022   1.049   4.411 -0.3254  0.4249 -0.1696
 8606TIP3    H147309   6.087   1.092   4.357 -1.8438  1.8427 -0.9592
 8606TIP3    H247310   6.009   1.108   4.485 -0.8820  0.2797 -0.1455
 8607TIP3   OH247311   3.435   4.149  17.299  0.0358 -0.0711 -0.0488
 8607TIP3    H147312   3.510   4.203  17.274  1.0888 -1.1516  0.6584
 8607TIP3    H247313   3.399   4.117  17.217  0.9989 -0.3845 -0.3569
 8608TIP3   OH247314   3.584   2.466  10.472  0.0107  0.1244  0.0780
 8608TIP3    H147315   3.494   2.494  10.489 -0.0365 -0.4126  0.7448
 8608TIP3    H247316   3.635   2.546  10.475 -0.1144  0.1675  1.9775
 8609TIP3   OH247317   0.404   4.282   5.755 -0.0870  0.3950  0.0138
 8609TIP3    H147318   0.492   4.292   5.793  0.4645  0.1857 -1.1444
 8609TIP3    H247319   0.387   4.188   5.759 -0.4624  0.4885  0.6632
 8610TIP3   OH247320   3.236   2.538  13.943  0.4699 -0.3449  0.0407
 8610TIP3    H147321   3.307   2.520  13.882  0.9094 -1.8229  0.9272
 8610TIP3    H247322   3.248   2.629  13.968 -0.1584  0.5330 -2.5642
 8611TIP3   OH247323   3.239   4.504   6.039  0.1845  0.3177 -0.1842
 8611TIP3    H147324   3.211   4.441   6.106  1.5050 -0.5973 -0.4629
 8611TIP3    H247325   3.259   4.450   5.963 -0.0312  1.2327 -0.9018
 8612TIP3   OH247326   1.316   1.544   1.128 -0.2395 -0.1321 -0.3013
 8612TIP3    H147327   1.250   1.545   1.197 -1.6477  0.2865 -1.6115
 8612TIP3    H247328   1.399   1.546   1.176 -1.1291 -1.0020  1.3984
 8613TIP3   OH247329   3.707   2.312  11.067  0.1480  0.2881 -0.3160
 8613TIP3    H147330   3.782   2.365  11.039 -0.9402  0.8963 -2.2362
 8613TIP3    H247331   3.661   2.367  11.130  0.0976  0.8320 -0.8245
 8614TIP3   OH247332   2.353   2.146   3.957 -0.6890  0.7609 -0.8879
 8614TIP3    H147333   2.281   2.141   3.895  0.0833 -3.3670 -1.7477
 8614TIP3    H247334   2.329   2.085   4.027  1.2901  0.3766 -0.4801
 8615TIP3   OH247335   6.530   0.794   2.659  0.3779  0.1590 -0.3945
 8615TIP3    H147336   6.608   0.819   2.611  1.8829  0.1830  1.8881
 8615TIP3    H247337   6.488   0.878   2.682  0.2591  0.1891 -0.7206
 8616TIP3   OH247338   5.539   5.461   6.552  0.0025  0.1787  0.5697
 8616TIP3    H147339   5.460   5.421   6.515 -0.3883  0.6227  0.9006
 8616TIP3    H247340   5.532   5.445   6.646 -0.2530  1.1527  0.7332
 8617TIP3   OH247341   1.452   4.872   6.173 -0.2022 -0.2038 -0.4905
 8617TIP3    H147342   1.519   4.835   6.230  0.6100  1.6372 -0.1820
 8617TIP3    H247343   1.411   4.941   6.225 -1.0219 -0.0238 -1.3463
 8618TIP3   OH247344   3.923   6.331   2.661  0.3086 -0.3658  0.0024
 8618TIP3    H147345   3.955   6.324   2.751  0.1271  0.8043  0.1689
 8618TIP3    H247346   3.991   6.290   2.608  1.0002  0.0380  0.5605
 8619TIP3   OH247347   4.458   3.308  12.576  0.3754  0.3268 -0.0528
 8619TIP3    H147348   4.547   3.331  12.602 -0.0730 -1.3402  3.7156
 8619TIP3    H247349   4.406   3.384  12.602  0.4646  0.4775 -0.3148
 8620TIP3   OH247350   1.439   5.396  11.386 -0.3266  0.5504 -0.1598
 8620TIP3    H147351   1.354   5.355  11.401  0.5926 -1.6588 -0.5895
 8620TIP3    H247352   1.474   5.413  11.474 -0.4423 -0.2654  0.0477
 8621TIP3   OH247353   1.087   3.076   6.490  0.2599  0.2960 -0.0770
 8621TIP3    H147354   1.024   3.147   6.505 -0.3134 -0.5341  1.8173
 8621TIP3    H247355   1.033   3.000   6.467  0.6445 -0.1513  0.4681
 8622TIP3   OH247356   4.212   4.968   4.875  0.3903  0.1709 -0.0996
 8622TIP3    H147357   4.302   4.972   4.843  0.0940  0.2349 -0.9799
 8622TIP3    H247358   4.194   4.874   4.885  0.7251  0.1819  0.5901
 8623TIP3   OH247359   3.656   5.255  12.724 -0.0906 -0.0908  0.4039
 8623TIP3    H147360   3.606   5.335  12.740  0.3152  0.2369  0.0603
 8623TIP3    H247361   3.745   5.278  12.749  0.3659  0.1056 -1.2678
 8624TIP3   OH247362   0.246   0.824  11.058  0.8519  0.4212  0.1975
 8624TIP3    H147363   0.313   0.755  11.053  1.6816  1.0279  2.1170
 8624TIP3    H247364   0.164   0.778  11.042  1.4226 -0.9827  1.0660
 8625TIP3   OH247365   2.733   1.023   1.021  0.3115 -0.3322  0.0832
 8625TIP3    H147366   2.808   1.048   1.076 -0.4286 -0.8454  1.3676
 8625TIP3    H247367   2.706   1.104   0.979  0.2800  0.2855  1.2599
 8626TIP3   OH247368   4.633   6.414  12.874 -0.2395 -0.1308 -0.3715
 8626TIP3    H147369   4.710   6.417  12.930  0.2783 -0.5432 -1.0501
 8626TIP3    H247370   4.583   6.492  12.897  0.2531  0.0021  0.2508
 8627TIP3   OH247371   1.488   3.506   4.591 -0.1456  0.7064 -0.2273
 8627TIP3    H147372   1.435   3.496   4.670 -0.5184  0.6952 -0.4788
 8627TIP3    H247373   1.442   3.455   4.524 -0.4948  1.6919 -0.7597
 8628TIP3   OH247374   4.276   0.071   2.478 -0.2034  0.2596 -0.5991
 8628TIP3    H147375   4.342   0.007   2.452 -0.4566  0.3344 -1.4427
 8628TIP3    H247376   4.213   0.022   2.530  1.2120  0.4498  1.4275
 8629TIP3   OH247377   2.840   0.986  15.316  0.2740 -0.1508 -0.2162
 8629TIP3    H147378   2.824   0.912  15.257  0.7697 -0.2171 -0.2763
 8629TIP3    H247379   2.931   1.011  15.297 -0.2927  1.3368 -1.1533
 8630TIP3   OH247380   6.035   6.029   0.048  0.0963  0.4687  0.4102
 8630TIP3    H147381   5.941   6.023   0.032 -0.1496  1.1695  1.5013
 8630TIP3    H247382   6.050   6.119   0.074  0.7320 -0.1242  2.2273
 8631TIP3   OH247383   0.012   3.884  11.763  0.4235 -0.2465  0.1579
 8631TIP3    H147384  -0.065   3.906  11.816  0.6554  0.1946  0.3253
 8631TIP3    H247385   0.057   3.968  11.752  0.5411 -0.3874 -0.4834
 8632TIP3   OH247386   0.730   2.610   6.626  0.1514  0.4541  0.0928
 8632TIP3    H147387   0.809   2.638   6.672  1.1049 -1.7224 -0.1164
 8632TIP3    H247388   0.762   2.569   6.546 -1.1574 -0.8644  0.2099
 8633TIP3   OH247389   2.632   4.342  16.216 -0.3309  0.0666  0.6809
 8633TIP3    H147390   2.578   4.412  16.252  1.3559  1.3635  0.8557
 8633TIP3    H247391   2.571   4.288  16.166 -1.8037  1.3401  1.0015
 8634TIP3   OH247392   4.401   6.767  11.685  0.1288 -0.0887  0.0644
 8634TIP3    H147393   4.347   6.710  11.630 -1.9490  0.9316  0.9508
 8634TIP3    H247394   4.438   6.830  11.623  0.2171 -0.7197 -0.5447
 8635TIP3   OH247395   3.274   4.163   1.802 -0.3443  0.2453  0.1017
 8635TIP3    H147396   3.301   4.072   1.810 -2.2755 -0.2706  1.5483
 8635TIP3    H247397   3.209   4.163   1.732 -0.8258  0.3805  0.5448
 8636TIP3   OH247398   2.529   0.101  11.263 -0.0534  0.0262 -0.4724
 8636TIP3    H147399   2.621   0.076  11.273  0.2135  1.6752  2.0243
 8636TIP3    H247400   2.531   0.174  11.201  0.7171  1.6032  1.2870
 8637TIP3   OH247401   4.448   3.445  16.418  0.1346 -0.6469  0.1540
 8637TIP3    H147402   4.358   3.419  16.398 -0.0320  0.3799 -0.5041
 8637TIP3    H247403   4.499   3.364  16.409 -0.8545 -1.4549  1.5418
 8638TIP3   OH247404   6.119   1.978   0.181  0.2386  0.1813 -0.4361
 8638TIP3    H147405   6.110   2.010   0.271 -0.4233  0.8818 -0.7352
 8638TIP3    H247406   6.182   2.038   0.140 -0.5666  0.7836 -0.8355
 8639TIP3   OH247407   6.597   6.179  13.047 -0.1083  0.1682 -0.4247
 8639TIP3    H147408   6.605   6.274  13.058  1.1460 -0.0377  0.6628
 8639TIP3    H247409   6.560   6.148  13.130  1.0662 -0.4539 -0.1085
 8640TIP3   OH247410   3.957   4.788   1.916  0.3539  0.0376  0.0113
 8640TIP3    H147411   3.921   4.700   1.902 -0.0771  0.1475  0.4224
 8640TIP3    H247412   3.962   4.798   2.011 -0.2801  0.7244 -0.0121
 8641TIP3   OH247413   2.871   0.559   3.431  0.2027 -0.0164  0.1756
 8641TIP3    H147414   2.793   0.552   3.486 -0.6385 -1.1637 -1.0884
 8641TIP3    H247415   2.837   0.584   3.344  1.1780 -0.8279 -0.4649
 8642TIP3   OH247416   5.373   4.352   4.531  0.3070 -0.0598 -0.4425
 8642TIP3    H147417   5.393   4.377   4.441 -0.2633  1.4206 -0.1770
 8642TIP3    H247418   5.280   4.370   4.542  0.6696  1.1659  0.8648
 8643TIP3   OH247419   5.610   3.335   0.600 -0.4139  0.0317  0.0419
 8643TIP3    H147420   5.568   3.389   0.666 -1.9094 -0.4709 -0.4597
 8643TIP3    H247421   5.703   3.357   0.606 -0.6751  0.8402  1.4996
 8644TIP3   OH247422   4.764   6.451   3.602  0.4310 -0.1892 -0.3300
 8644TIP3    H147423   4.815   6.467   3.523  2.6179  0.1700  1.0889
 8644TIP3    H247424   4.739   6.359   3.597 -0.2306  0.0324 -1.8099
 8645TIP3   OH247425   3.451   5.849  16.412  0.1027 -0.1299  0.5131
 8645TIP3    H147426   3.470   5.908  16.485 -0.2729  0.4497  0.1509
 8645TIP3    H247427   3.411   5.772  16.453  0.9549 -0.3109  1.0286
 8646TIP3   OH247428   6.157   4.046   5.907  0.0011  0.4867  0.1806
 8646TIP3    H147429   6.158   4.000   5.991  0.4572 -0.6413 -0.4179
 8646TIP3    H247430   6.173   3.978   5.842 -0.4363  1.3235 -0.8407
 8647TIP3   OH247431   1.677   4.624   2.606 -0.5417 -0.4338 -0.4841
 8647TIP3    H147432   1.696   4.628   2.512 -0.1919  2.0165 -0.3632
 8647TIP3    H247433   1.725   4.698   2.643  0.3929 -2.1092  1.8666
 8648TIP3   OH247434   6.764   5.263   5.357  0.4846 -0.1437  0.2815
 8648TIP3    H147435   6.834   5.269   5.292 -0.8143 -1.4693 -1.3568
 8648TIP3    H247436   6.789   5.189   5.412  0.8592  0.0259  0.3409
 8649TIP3   OH247437   6.800   1.701   3.745  0.0045  0.4725  0.5585
 8649TIP3    H147438   6.889   1.703   3.778  0.5397  1.5610 -0.8354
 8649TIP3    H247439   6.798   1.768   3.676 -0.8605 -1.9327 -1.9514
 8650TIP3   OH247440   6.339   3.684   2.513 -0.0936  0.2527 -0.0190
 8650TIP3    H147441   6.403   3.613   2.514 -2.6676 -2.2559  0.1380
 8650TIP3    H247442   6.344   3.720   2.425 -0.4602 -1.9182 -0.9997
 8651TIP3   OH247443   4.521   2.493  13.520  0.2259  0.0878  0.3033
 8651TIP3    H147444   4.468   2.566  13.488 -2.0387 -0.5209  2.3392
 8651TIP3    H247445   4.457   2.425  13.540  1.5812 -0.3319  3.9448
 8652TIP3   OH247446   4.811   2.076  11.331 -0.4548 -0.0329  0.1787
 8652TIP3    H147447   4.744   2.087  11.398 -0.4133 -0.9910  0.3895
 8652TIP3    H247448   4.894   2.089  11.378 -0.4827  2.5168 -0.3453
 8653TIP3   OH247449   6.471   4.535   1.624 -0.6282 -0.0569  0.1503
 8653TIP3    H147450   6.377   4.542   1.610 -0.3635  0.3123 -1.6064
 8653TIP3    H247451   6.484   4.567   1.713 -2.2821 -1.2266  0.8612
 8654TIP3   OH247452   2.621   4.989   2.508  0.1720 -0.6461 -0.4595
 8654TIP3    H147453   2.702   5.038   2.492  0.0495 -0.6816 -1.2367
 8654TIP3    H247454   2.629   4.911   2.453 -0.2545 -0.8101 -0.2920
 8655TIP3   OH247455   4.244   4.778  11.187 -0.2899  0.3611  0.0653
 8655TIP3    H147456   4.211   4.868  11.187 -1.5623 -0.0807 -0.0838
 8655TIP3    H247457   4.259   4.757  11.095 -0.0235  0.4164  0.0968
 8656TIP3   OH247458   5.975   1.385  12.570 -0.2363 -0.5779  0.1188
 8656TIP3    H147459   5.883   1.375  12.546 -0.5285  0.5852  0.7177
 8656TIP3    H247460   5.992   1.479  12.562  0.7506 -0.7097  0.5612
 8657TIP3   OH247461   4.265   5.035  14.570 -0.0050  0.1325 -0.0595
 8657TIP3    H147462   4.174   5.039  14.598  0.0290 -2.0984  0.6299
 8657TIP3    H247463   4.313   5.015  14.650  0.9438  0.1841 -0.6013
 8658TIP3   OH247464   1.826   6.356   0.228 -0.4941 -0.2375  0.1943
 8658TIP3    H147465   1.749   6.406   0.204 -0.2648 -0.5633 -1.3673
 8658TIP3    H247466   1.852   6.311   0.147  1.9272  0.6716  0.3596
 8659TIP3   OH247467   4.985   3.061   4.299 -0.6318  0.6670  0.0834
 8659TIP3    H147468   5.002   3.030   4.210 -0.3569  0.1331  0.3196
 8659TIP3    H247469   5.063   3.112   4.321 -0.4274  0.2854  0.2461
 8660TIP3   OH247470   5.184   5.273   3.562  0.8348 -0.3448  0.4354
 8660TIP3    H147471   5.105   5.295   3.512  2.1253  1.8063 -0.7737
 8660TIP3    H247472   5.233   5.214   3.505  0.9673 -0.1818  0.3795
 8661TIP3   OH247473   4.351   4.541   4.841  0.0026  0.4177  0.0111
 8661TIP3    H147474   4.421   4.498   4.792 -0.1956 -1.1953  1.0535
 8661TIP3    H247475   4.396   4.604   4.898  0.4391  0.5687 -0.4982
 8662TIP3   OH247476   1.118   3.420   3.232  0.4225 -0.3858 -0.5438
 8662TIP3    H147477   1.075   3.431   3.317  0.0865 -0.9024 -0.6424
 8662TIP3    H247478   1.204   3.461   3.243 -0.7099  2.2649 -0.8807
 8663TIP3   OH247479   6.199   5.777   4.911  0.2717 -0.6800 -0.0528
 8663TIP3    H147480   6.274   5.741   4.864  0.2742  0.8901 -1.3168
 8663TIP3    H247481   6.223   5.867   4.931 -1.2445 -0.1574 -0.4208
 8664TIP3   OH247482   2.699   3.380  14.778  0.8489 -0.7727  0.0731
 8664TIP3    H147483   2.740   3.431  14.709  1.5083 -0.7023  0.5087
 8664TIP3    H247484   2.657   3.445  14.835 -0.2632 -0.8681 -0.6038
 8665TIP3   OH247485   2.650   0.983  16.301  1.0602  0.5190  0.0814
 8665TIP3    H147486   2.578   0.981  16.238 -0.1674  1.0463  1.4046
 8665TIP3    H247487   2.711   1.048  16.266  0.9940 -0.0665 -1.1501
 8666TIP3   OH247488   6.819   0.919   5.327  0.2151  0.0248 -0.1295
 8666TIP3    H147489   6.792   0.866   5.252  0.4288  1.4725 -1.2819
 8666TIP3    H247490   6.737   0.954   5.362  0.1829  0.1430 -0.3187
 8667TIP3   OH247491   6.567   4.726  14.874  0.5508 -0.4798  0.3630
 8667TIP3    H147492   6.500   4.792  14.857  0.3435 -1.0127 -1.0065
 8667TIP3    H247493   6.536   4.648  14.829  0.9984 -1.4017  1.6066
 8668TIP3   OH247494   5.894   3.593  13.732 -0.5063  0.5503  0.6431
 8668TIP3    H147495   5.855   3.508  13.711 -1.0210  0.9229  0.0435
 8668TIP3    H247496   5.971   3.572  13.785 -0.8360 -0.2674  0.8151
 8669TIP3   OH247497   0.773   0.500  10.340 -0.1713 -0.5709  0.8236
 8669TIP3    H147498   0.694   0.540  10.304 -0.4374 -1.4248  0.4405
 8669TIP3    H247499   0.842   0.564  10.323 -0.4603 -0.5747 -0.4070
 8670TIP3   OH247500   6.218   5.262   0.150 -0.4973 -0.1429 -0.2769
 8670TIP3    H147501   6.239   5.177   0.188 -0.0056  0.6959  1.4230
 8670TIP3    H247502   6.298   5.314   0.160 -1.1276  0.8614 -0.3017
 8671TIP3   OH247503   4.915   3.312   3.088  0.0603  0.5222  0.3079
 8671TIP3    H147504   4.939   3.241   3.147  0.7804  0.7480  0.2906
 8671TIP3    H247505   4.862   3.371   3.141 -1.7048 -0.6774 -0.0192
 8672TIP3   OH247506   2.166   1.040  16.538 -0.0477 -0.1846 -0.2282
 8672TIP3    H147507   2.210   1.025  16.454 -1.0686  1.4002 -1.0969
 8672TIP3    H247508   2.185   0.961  16.589  2.5087 -0.2147 -1.0891
 8673TIP3   OH247509   0.543   1.734  12.919 -0.3766 -0.0452 -0.3005
 8673TIP3    H147510   0.480   1.805  12.904 -0.9307 -0.2544  0.9179
 8673TIP3    H247511   0.618   1.778  12.960 -0.0276  0.0873 -1.0702
 8674TIP3   OH247512   3.573   5.088  15.764  0.3981  0.3955  0.4858
 8674TIP3    H147513   3.658   5.114  15.727  0.6018 -0.8716  0.0127
 8674TIP3    H247514   3.539   5.023  15.702 -0.1410 -0.3614  1.5474
 8675TIP3   OH247515   0.873   0.703  13.532  0.6210 -0.7565 -0.5714
 8675TIP3    H147516   0.862   0.661  13.446 -2.0341  0.2918 -0.8539
 8675TIP3    H247517   0.821   0.783  13.526 -0.6669 -1.2396  2.3949
 8676TIP3   OH247518   1.614   1.541   5.705 -0.3162 -0.2334  0.1230
 8676TIP3    H147519   1.628   1.525   5.612 -0.2966 -0.5588  0.1800
 8676TIP3    H247520   1.519   1.552   5.714 -0.3589 -0.5798  0.1191
 8677TIP3   OH247521   2.841   5.959   6.257  0.0465  0.1062  0.5726
 8677TIP3    H147522   2.916   5.928   6.308  1.4869 -0.4542 -1.7238
 8677TIP3    H247523   2.815   5.884   6.203 -2.0253  0.3865  1.0874
 8678TIP3   OH247524   3.975   4.543  14.114  0.2692  0.0668 -0.7744
 8678TIP3    H147525   3.903   4.484  14.138  0.3535  0.1996 -0.1689
 8678TIP3    H247526   3.983   4.534  14.019  1.0000 -1.7072 -0.5727
 8679TIP3   OH247527   2.749   6.510   6.609 -0.0522  0.9237 -0.7590
 8679TIP3    H147528   2.758   6.423   6.569  0.1002  0.3064  0.5758
 8679TIP3    H247529   2.838   6.543   6.615  0.3778 -0.4701  2.1925
 8680TIP3   OH247530   2.083   5.718  15.334  0.1933 -0.9251 -0.8146
 8680TIP3    H147531   2.065   5.774  15.258  0.3537  0.3067  0.0310
 8680TIP3    H247532   2.178   5.706  15.333  0.6756  1.9904  1.1069
 8681TIP3   OH247533   3.561   1.772   5.485 -0.4986 -0.2148  0.0535
 8681TIP3    H147534   3.556   1.858   5.443  0.3064 -0.1231  0.1284
 8681TIP3    H247535   3.512   1.783   5.567  0.5415  0.5147  0.6058
 8682TIP3   OH247536   4.878   2.206  11.086 -0.0106 -0.7155 -0.6278
 8682TIP3    H147537   4.849   2.152  11.160 -0.0638 -0.2131 -0.2747
 8682TIP3    H247538   4.940   2.150  11.039 -0.5593 -1.3227 -0.6475
 8683TIP3   OH247539   0.767   6.451   2.514  0.1502  0.0157 -0.6992
 8683TIP3    H147540   0.714   6.473   2.438  0.5399 -1.1836 -1.3508
 8683TIP3    H247541   0.813   6.532   2.536 -3.7012  1.8925  1.4557
 8684TIP3   OH247542   6.612   0.280   5.163 -0.0215  0.2286 -0.1463
 8684TIP3    H147543   6.696   0.306   5.125  0.3358 -1.0302 -0.2629
 8684TIP3    H247544   6.630   0.197   5.206 -1.2157 -0.0797 -0.2089
 8685TIP3   OH247545   0.986   4.707  13.869  0.3379 -0.5756 -0.2615
 8685TIP3    H147546   0.898   4.681  13.842  0.6074 -1.5254 -0.2781
 8685TIP3    H247547   1.027   4.740  13.790  0.0562 -0.2826 -0.2887
 8686TIP3   OH247548   1.890   5.877  12.348  0.2958  0.2598  0.3337
 8686TIP3    H147549   1.964   5.832  12.307  1.5666  1.8983  0.7409
 8686TIP3    H247550   1.913   5.970  12.345 -2.1702  0.9230 -0.3449
 8687TIP3   OH247551   6.721   4.831   0.961  0.2254 -0.3198  0.3977
 8687TIP3    H147552   6.725   4.924   0.981 -0.3744 -0.2192  0.0609
 8687TIP3    H247553   6.716   4.826   0.866 -1.9801 -0.5869  0.4766
 8688TIP3   OH247554   4.238   0.269   3.697  0.2508 -0.0088  0.0928
 8688TIP3    H147555   4.224   0.350   3.747  1.2840 -0.3109  0.9120
 8688TIP3    H247556   4.161   0.215   3.717 -0.0046  0.4130  0.2633
 8689TIP3   OH247557   4.482   2.016  12.047 -0.5484 -0.0236 -0.2759
 8689TIP3    H147558   4.443   2.064  12.120 -0.1673  0.6916 -0.5320
 8689TIP3    H247559   4.412   1.957  12.017 -1.1647  0.6437 -0.1976
 8690TIP3   OH247560   3.287   5.694  15.286  0.5069  0.4331 -0.5883
 8690TIP3    H147561   3.274   5.713  15.379 -1.1091 -1.0046 -0.4784
 8690TIP3    H247562   3.374   5.730  15.266  1.7139 -0.8581  1.9409
 8691TIP3   OH247563   2.296   0.402  13.383 -0.0456 -0.1501  0.4630
 8691TIP3    H147564   2.334   0.315  13.399  0.9532  0.3352  0.8035
 8691TIP3    H247565   2.205   0.394  13.412 -0.5422 -1.6368 -1.2965
 8692TIP3   OH247566   3.934   6.468  14.741 -0.0534  0.1134  0.3472
 8692TIP3    H147567   3.908   6.560  14.746  2.1383  0.8104 -0.1739
 8692TIP3    H247568   4.025   6.470  14.713 -0.3513 -2.2733 -1.1238
 8693TIP3   OH247569   4.275   3.656   5.608  0.2216 -0.2104  0.4523
 8693TIP3    H147570   4.289   3.744   5.643  0.4889 -0.4083  0.8637
 8693TIP3    H247571   4.355   3.608   5.633 -0.0687 -0.6562  0.5326
 8694TIP3   OH247572   3.346   6.778   2.489  0.5560 -0.8325 -0.3762
 8694TIP3    H147573   3.306   6.864   2.478  2.1342  0.3682  2.3516
 8694TIP3    H247574   3.440   6.794   2.488  0.8992 -2.5347  0.1558
 8695TIP3   OH247575   3.805   2.770   5.357  0.1144  0.1544  0.5038
 8695TIP3    H147576   3.884   2.786   5.306 -0.1413  0.8753  0.3192
 8695TIP3    H247577   3.733   2.783   5.295 -0.1602 -0.1756  0.7484
 8696TIP3   OH247578   4.492   2.687  14.529  0.6119  0.2873  0.0335
 8696TIP3    H147579   4.414   2.707  14.477  1.0418 -0.5646 -0.9811
 8696TIP3    H247580   4.515   2.770  14.571 -0.6570  0.6173  0.1043
 8697TIP3   OH247581   3.751   3.242   5.559 -0.1600 -0.5590  0.3351
 8697TIP3    H147582   3.783   3.152   5.553  1.7336  0.0907 -0.2561
 8697TIP3    H247583   3.668   3.236   5.606  0.9644 -2.3901  2.2357
 8698TIP3   OH247584   1.889   3.164  17.281  0.3053  0.5101 -0.4396
 8698TIP3    H147585   1.802   3.124  17.285  0.0273  1.2053  2.5980
 8698TIP3    H247586   1.949   3.090  17.278 -0.3276 -0.0193 -0.3969
 8699TIP3   OH247587   3.937   1.625   4.793 -0.5490 -0.1568  0.0475
 8699TIP3    H147588   3.900   1.601   4.709 -0.7556 -0.3911  0.2039
 8699TIP3    H247589   3.906   1.714   4.809 -2.9540 -1.1071  1.2072
 8700TIP3   OH247590   0.554   2.697  15.218 -0.5994  0.1920  0.4995
 8700TIP3    H147591   0.615   2.716  15.147 -0.6988 -1.2237  0.0086
 8700TIP3    H247592   0.606   2.653  15.284 -0.4289  1.8319  1.5033
 8701TIP3   OH247593   5.660   6.353  15.651 -0.1296  0.0866  0.3069
 8701TIP3    H147594   5.741   6.399  15.672 -0.8785  0.0815  3.6992
 8701TIP3    H247595   5.591   6.416  15.674 -1.1482 -0.6950 -0.5025
 8702TIP3   OH247596   0.041   5.111   0.298  0.2578 -0.5431 -0.3189
 8702TIP3    H147597   0.111   5.046   0.301 -1.4834 -2.6316  3.9496
 8702TIP3    H247598  -0.033   5.065   0.258  0.0145  0.0715 -0.5903
 8703TIP3   OH247599   1.664   0.477   5.684 -0.2636 -0.3631  0.0830
 8703TIP3    H147600   1.610   0.421   5.629 -0.0213  0.9385 -1.5567
 8703TIP3    H247601   1.663   0.435   5.770 -1.8118 -1.7061 -0.5493
 8704TIP3   OH247602   4.289   4.375   0.124  0.2076 -0.3044 -0.4180
 8704TIP3    H147603   4.335   4.330   0.054 -1.5570  0.0080 -1.8401
 8704TIP3    H247604   4.355   4.430   0.165  1.1522  0.0044 -2.2618
 8705TIP3   OH247605   0.757   0.888   2.429  0.5014 -0.7566  0.2459
 8705TIP3    H147606   0.707   0.930   2.499  0.1924 -1.1292  0.2565
 8705TIP3    H247607   0.793   0.809   2.470  0.2423 -1.0255 -0.0395
 8706TIP3   OH247608   6.129   0.955  16.306 -0.3671 -0.4451 -0.2777
 8706TIP3    H147609   6.061   1.012  16.342  0.3793  0.4522 -0.2637
 8706TIP3    H247610   6.120   0.964  16.211 -0.5224 -0.6419 -0.2836
 8707TIP3   OH247611   0.010   5.045  16.117 -0.4442 -0.5486  0.0505
 8707TIP3    H147612   0.056   5.074  16.195 -1.7322  0.7263  0.3801
 8707TIP3    H247613   0.064   4.975  16.081  1.2641  0.2998  0.8840
 8708TIP3   OH247614   3.733   2.524  13.849 -0.2601  0.7448 -0.2644
 8708TIP3    H147615   3.778   2.608  13.852  1.6697 -0.2199 -0.4333
 8708TIP3    H247616   3.666   2.530  13.917 -1.0789  2.8778 -1.2053
 8709TIP3   OH247617   5.626   3.596   2.402  0.9877  0.1395  0.5230
 8709TIP3    H147618   5.661   3.615   2.489  1.4395  1.7082  0.0307
 8709TIP3    H247619   5.544   3.647   2.398  1.1199  0.3108 -0.0671
 8710TIP3   OH247620   3.083   5.284  12.816  0.1136 -0.0020  0.0849
 8710TIP3    H147621   3.110   5.355  12.758 -0.6550 -0.3087 -0.6695
 8710TIP3    H247622   3.163   5.259  12.862  0.8733 -0.1462 -1.2726
 8711TIP3   OH247623   4.821   1.138  13.658  0.2956 -0.3559  0.2296
 8711TIP3    H147624   4.759   1.147  13.586  0.6700  0.2984 -0.0183
 8711TIP3    H247625   4.775   1.085  13.723  0.4058 -2.0349 -1.0039
 8712TIP3   OH247626   2.623   4.190   0.336  0.5482 -0.0902  0.1596
 8712TIP3    H147627   2.531   4.189   0.310  0.4386 -0.7387  0.5667
 8712TIP3    H247628   2.653   4.101   0.323  0.8943 -0.0774  0.8283
 8713TIP3   OH247629   4.150   4.325  12.968 -0.4235 -0.0368  0.7513
 8713TIP3    H147630   4.066   4.343  12.925 -0.4011  0.5734  0.9573
 8713TIP3    H247631   4.209   4.303  12.896 -0.2297  1.5746  0.3685
 8714TIP3   OH247632   3.643   1.308  15.438 -0.1355  0.1868 -0.1024
 8714TIP3    H147633   3.729   1.320  15.397  1.1047 -2.1223  1.5592
 8714TIP3    H247634   3.656   1.337  15.529 -0.8798 -0.8563  0.3540
 8715TIP3   OH247635   3.352   1.812   5.116 -0.3260 -0.2947  0.0451
 8715TIP3    H147636   3.404   1.892   5.119 -0.3397 -0.1964 -1.5955
 8715TIP3    H247637   3.416   1.742   5.108 -0.3046 -0.5110  1.6382
 8716TIP3   OH247638   5.772   2.711  16.886 -0.0629 -0.1365 -0.3045
 8716TIP3    H147639   5.791   2.619  16.868  1.1568  0.3339 -1.5617
 8716TIP3    H247640   5.705   2.735  16.823  0.1819  0.0403 -0.4982
 8717TIP3   OH247641   2.275   3.452   0.378 -0.1376  0.3465 -0.0736
 8717TIP3    H147642   2.299   3.435   0.469 -1.0408  1.1658  0.3317
 8717TIP3    H247643   2.357   3.472   0.335  0.6539 -2.3109  0.0073
 8718TIP3   OH247644   6.192   6.615  15.139  0.4550 -0.3556 -0.1448
 8718TIP3    H147645   6.175   6.523  15.118  0.5203 -0.2024 -0.8952
 8718TIP3    H247646   6.139   6.632  15.217  0.4538 -1.0309  0.0087
 8719TIP3   OH247647   6.059   3.850  17.119  0.0191  0.4736 -0.1207
 8719TIP3    H147648   6.016   3.826  17.201  0.6244  1.6183  0.5471
 8719TIP3    H247649   6.040   3.943  17.107 -0.0303  0.3365 -1.2778
 8720TIP3   OH247650   5.388   3.128  14.953  0.3123 -0.0046  0.2080
 8720TIP3    H147651   5.478   3.125  14.921  0.7337  1.9636  1.0381
 8720TIP3    H247652   5.352   3.209  14.917 -0.7097 -0.1076  0.9409
 8721TIP3   OH247653   3.752   0.884  16.118 -0.1589  0.0284 -0.2413
 8721TIP3    H147654   3.809   0.843  16.053  0.6687  0.3583  0.2628
 8721TIP3    H247655   3.686   0.931  16.066 -0.0259 -0.4223 -0.8260
 8722TIP3   OH247656   0.565   1.530   3.511 -0.2158  0.0799 -0.4915
 8722TIP3    H147657   0.489   1.575   3.476  0.3791  0.9242 -0.7334
 8722TIP3    H247658   0.640   1.583   3.483  0.3225  0.6872  1.8557
 8723TIP3   OH247659   1.254   3.603  14.227  0.1901  0.0954 -0.2015
 8723TIP3    H147660   1.268   3.667  14.296  2.2319 -0.5687  0.0656
 8723TIP3    H247661   1.315   3.627  14.158  0.8636 -1.4204 -0.1793
 8724TIP3   OH247662   2.602   1.207   5.807  0.3493  0.5049  0.3868
 8724TIP3    H147663   2.542   1.257   5.753  1.1440 -0.3060 -1.3193
 8724TIP3    H247664   2.547   1.140   5.848  0.1931 -1.0963 -2.2223
 8725TIP3   OH247665   0.104   4.656   5.589  0.1780 -0.1594 -0.6102
 8725TIP3    H147666   0.069   4.672   5.676 -1.6343  1.0602 -1.4885
 8725TIP3    H247667   0.176   4.594   5.602 -0.9004 -1.0352  1.5779
 8726TIP3   OH247668   0.473   0.869   1.828 -0.4718 -0.1148 -0.0568
 8726TIP3    H147669   0.550   0.915   1.861 -0.2856  0.4222 -1.1824
 8726TIP3    H247670   0.409   0.938   1.811 -1.6486 -0.6496  1.9086
 8727TIP3   OH247671   5.625   2.997  15.307 -0.0030 -0.4829  0.0463
 8727TIP3    H147672   5.716   3.024  15.299 -0.5716  1.2056 -1.5347
 8727TIP3    H247673   5.579   3.077  15.333 -1.1269 -1.1121  0.0452
 8728TIP3   OH247674   3.539   1.069   4.076  0.3358 -0.4581 -0.7562
 8728TIP3    H147675   3.567   0.993   4.024 -0.7179 -1.3858 -0.0212
 8728TIP3    H247676   3.478   1.033   4.140 -1.0974  1.1969 -1.1188
 8729TIP3   OH247677   5.492   5.067  10.790  0.2887 -0.3041 -0.3462
 8729TIP3    H147678   5.530   5.030  10.710  0.2200 -0.4999 -0.2903
 8729TIP3    H247679   5.478   4.991  10.847  1.1781 -0.0782  0.2070
 8730TIP3   OH247680   4.403   5.796   4.420 -0.1878 -0.0462 -0.1579
 8730TIP3    H147681   4.395   5.713   4.373  0.5895  0.4561 -1.2150
 8730TIP3    H247682   4.486   5.832   4.392 -1.0964  1.7158 -0.7500
 8731TIP3   OH247683   3.214   4.167  13.633  0.0435 -0.1776 -0.6029
 8731TIP3    H147684   3.233   4.239  13.572 -2.9053  0.7120 -0.6243
 8731TIP3    H247685   3.141   4.199  13.686 -2.2905 -3.5855 -1.4342
 8732TIP3   OH247686   1.205   2.460  12.416 -0.2151 -0.0993  0.9055
 8732TIP3    H147687   1.257   2.381  12.402 -0.9002 -0.5501  0.8724
 8732TIP3    H247688   1.136   2.456  12.349  0.0264  0.7716  0.5922
 8733TIP3   OH247689   0.899   2.869  14.381  0.1570 -0.3553 -0.1413
 8733TIP3    H147690   0.896   2.775  14.364 -1.6838 -0.1652 -1.1651
 8733TIP3    H247691   0.848   2.881  14.461  2.0221 -0.3958  1.0975
 8734TIP3   OH247692   4.374   6.773   2.824 -0.6607 -0.5082  0.2093
 8734TIP3    H147693   4.466   6.777   2.800 -0.9702  0.4383 -0.9060
 8734TIP3    H247694   4.333   6.845   2.777 -2.0744 -1.2491  0.2383
 8735TIP3   OH247695   3.079   6.065   5.415 -0.1479 -0.0243  0.4401
 8735TIP3    H147696   3.114   6.151   5.438  2.7376 -0.8910 -0.2043
 8735TIP3    H247697   2.991   6.082   5.382  0.3962  2.7046  0.2016
 8736TIP3   OH247698   0.931   6.228  16.862 -0.0865  0.3479  0.1513
 8736TIP3    H147699   0.915   6.296  16.797 -1.5287 -0.0963 -0.0083
 8736TIP3    H247700   0.894   6.149  16.823  2.4861 -0.8127 -0.1283
 8737TIP3   OH247701   5.084   0.452   0.154  0.4110  0.1417  0.0757
 8737TIP3    H147702   5.098   0.404   0.236  2.0568  0.6991  0.1534
 8737TIP3    H247703   5.157   0.426   0.098 -0.5964 -0.0913 -1.1737
 8738TIP3   OH247704   2.113   5.225   6.352 -0.0733  0.2622 -0.2797
 8738TIP3    H147705   2.131   5.289   6.420 -0.4827  0.0746  0.0079
 8738TIP3    H247706   2.191   5.169   6.350 -0.5755 -0.5164  0.9224
 8739TIP3   OH247707   4.134   2.404  13.722  0.2033 -0.2044  0.4600
 8739TIP3    H147708   4.116   2.495  13.697 -0.3265 -0.8091 -1.5108
 8739TIP3    H247709   4.222   2.387  13.688  0.2241 -0.4871  0.6573
 8740TIP3   OH247710   5.362   5.891  12.692 -0.1086 -0.0326  0.4199
 8740TIP3    H147711   5.284   5.897  12.637  0.4622  1.3270 -0.2896
 8740TIP3    H247712   5.386   5.798  12.690 -0.6272 -0.1535 -0.9048
 8741TIP3   OH247713   6.003   4.352   5.521  0.0574 -0.3080 -0.1079
 8741TIP3    H147714   6.002   4.447   5.527 -2.3336 -0.2919  0.0359
 8741TIP3    H247715   6.036   4.334   5.433 -0.2829  0.6719 -0.4417
 8742TIP3   OH247716   4.103   1.900   1.687  0.3978 -0.2431 -0.1409
 8742TIP3    H147717   4.177   1.859   1.733  0.2896  0.1808  0.4322
 8742TIP3    H247718   4.104   1.991   1.718  0.3316  0.0590 -1.0051
 8743TIP3   OH247719   5.821   2.767   1.202  0.3223 -0.3954  0.2254
 8743TIP3    H147720   5.898   2.726   1.241 -0.1011 -1.9044 -0.4683
 8743TIP3    H247721   5.852   2.805   1.120  0.7491  0.8538  0.9447
 8744TIP3   OH247722   3.210   0.420  13.727 -0.8385  0.5579 -0.3330
 8744TIP3    H147723   3.300   0.425  13.695 -0.7668 -2.7564 -1.0352
 8744TIP3    H247724   3.158   0.396  13.650 -1.8709 -0.1298  0.5355
 8745TIP3   OH247725   3.911   2.027   3.853 -0.7679  0.2095  0.2002
 8745TIP3    H147726   3.903   2.075   3.936  1.0438 -1.6665  1.5585
 8745TIP3    H247727   3.964   1.950   3.875  1.4644  0.6130 -3.1069
 8746TIP3   OH247728   4.132   5.767   1.616  0.1292  0.6141  0.5259
 8746TIP3    H147729   4.170   5.851   1.591  0.4978  0.8036  1.6828
 8746TIP3    H247730   4.048   5.790   1.656  0.5703  0.5034  1.5397
 8747TIP3   OH247731   1.064   6.130  11.975 -0.7506  0.2434 -0.2196
 8747TIP3    H147732   0.974   6.099  11.971 -0.2607 -1.2545 -0.1002
 8747TIP3    H247733   1.118   6.052  11.961  0.5465  0.9184  0.7237
 8748TIP3   OH247734   3.398   5.541   4.193  0.1481 -0.4005  0.1164
 8748TIP3    H147735   3.476   5.590   4.218  1.4531 -3.4127  2.6925
 8748TIP3    H247736   3.411   5.454   4.231 -2.7009 -2.3115 -2.7469
 8749TIP3   OH247737   0.762   1.718   3.755  0.7009 -0.0433  0.2997
 8749TIP3    H147738   0.823   1.700   3.827 -0.4770  0.3738  1.4456
 8749TIP3    H247739   0.803   1.679   3.678  3.0768  1.4491  0.7310
 8750TIP3   OH247740   3.455   2.285  11.214  0.5448  0.6572 -0.3967
 8750TIP3    H147741   3.535   2.260  11.261  0.0364  1.9008  1.2137
 8750TIP3    H247742   3.385   2.270  11.276 -0.8464 -2.3765 -2.4395
 8751TIP3   OH247743   3.255   0.378  16.141  0.4322 -0.0022 -0.4384
 8751TIP3    H147744   3.204   0.315  16.090  0.2690  0.3789 -0.7566
 8751TIP3    H247745   3.192   0.445  16.166  0.6171  0.0667 -0.1533
 8752TIP3   OH247746   6.153   4.286   5.285  0.0987 -0.3493 -0.0005
 8752TIP3    H147747   6.201   4.260   5.206  0.1988 -2.0286  0.5760
 8752TIP3    H247748   6.183   4.374   5.303  0.0927  0.0661 -1.8266
 8753TIP3   OH247749   1.091   1.153  12.537  0.6877 -0.0684  0.2074
 8753TIP3    H147750   1.135   1.126  12.617  1.6777 -0.5440 -0.4766
 8753TIP3    H247751   1.040   1.230  12.562  0.1416 -0.8395  1.5177
 8754TIP3   OH247752   5.108   5.581   4.169 -0.2242 -0.0164  0.1110
 8754TIP3    H147753   5.031   5.585   4.113  0.2307 -1.0302 -0.6145
 8754TIP3    H247754   5.108   5.665   4.216 -0.4631  0.9885 -1.6020
 8755TIP3   OH247755   5.217   5.185   5.809 -0.1919 -0.0111  0.7922
 8755TIP3    H147756   5.155   5.228   5.751  1.0474  0.6384 -0.0959
 8755TIP3    H247757   5.201   5.224   5.895 -2.2659 -1.2129  1.0371
 8756TIP3   OH247758   1.278   1.100   5.389 -0.1409  0.5037  0.7350
 8756TIP3    H147759   1.278   1.196   5.378 -2.2329  0.5412  0.7786
 8756TIP3    H247760   1.277   1.087   5.483 -1.5407  0.4891  0.7338
 8757TIP3   OH247761   0.563   6.775   3.869  0.1711  0.1367 -0.3779
 8757TIP3    H147762   0.522   6.852   3.908 -2.5206  0.0228 -2.7173
 8757TIP3    H247763   0.577   6.716   3.944 -2.6564  0.8169  0.8363
 8758TIP3   OH247764   5.330   0.843   1.241  0.2793  0.4368 -0.2969
 8758TIP3    H147765   5.407   0.804   1.282  0.0889 -1.4259 -1.5848
 8758TIP3    H247766   5.275   0.872   1.314  2.3825  2.3430  0.6568
 8759TIP3   OH247767   0.723   4.430  15.255  0.2044  0.3824 -0.7307
 8759TIP3    H147768   0.649   4.489  15.272 -0.0839 -0.3686  0.9248
 8759TIP3    H247769   0.684   4.355  15.210  0.2548  0.6749 -1.2688
 8760TIP3   OH247770   6.700   0.443  10.507 -0.5539  0.3598  0.1983
 8760TIP3    H147771   6.703   0.352  10.534 -1.7757 -0.2829 -1.6597
 8760TIP3    H247772   6.773   0.452  10.446  0.3363  0.9972  1.3151
 8761TIP3   OH247773   4.028   2.614   1.953 -0.3706 -0.0675  0.0120
 8761TIP3    H147774   4.048   2.698   1.911  0.1001 -0.0921  0.1692
 8761TIP3    H247775   4.088   2.612   2.029  0.3185 -0.9811 -0.5395
 8762TIP3   OH247776   1.530   4.760  13.700 -0.6685 -0.0015 -0.3351
 8762TIP3    H147777   1.498   4.839  13.654 -1.1020  0.2491  0.3811
 8762TIP3    H247778   1.546   4.790  13.789 -0.2443 -0.5938 -0.2093
 8763TIP3   OH247779   6.743   3.449  10.825  0.1821  0.1531  0.2788
 8763TIP3    H147780   6.657   3.485  10.803  1.1276  0.8378 -2.8191
 8763TIP3    H247781   6.783   3.515  10.881  0.2526  1.9894 -1.8004
 8764TIP3   OH247782   0.528   2.286  12.993  0.2367 -0.1125 -0.3209
 8764TIP3    H147783   0.618   2.301  12.965  0.5030  2.4944  1.4697
 8764TIP3    H247784   0.474   2.319  12.921  0.7352 -0.4631 -0.8583
 8765TIP3   OH247785   2.934   4.267   6.190 -0.4556  0.1158  0.0946
 8765TIP3    H147786   2.934   4.185   6.239  2.5424  0.6739  1.2647
 8765TIP3    H247787   3.011   4.314   6.222 -1.7942  3.2201 -0.8631
 8766TIP3   OH247788   2.289   6.775   5.915  0.1400  0.3143 -0.1790
 8766TIP3    H147789   2.309   6.688   5.948  1.2548  0.6509  0.0796
 8766TIP3    H247790   2.372   6.805   5.876 -0.9152  0.1977 -2.7260
 8767TIP3   OH247791   6.340   1.914  12.044  0.7666  0.8618 -0.0494
 8767TIP3    H147792   6.426   1.897  12.083  0.3517  1.8632  1.3815
 8767TIP3    H247793   6.346   2.004  12.011  0.2106  1.0045  0.2285
 8768TIP3   OH247794   0.993   2.805   5.700 -0.0343 -0.2547 -0.3321
 8768TIP3    H147795   0.922   2.746   5.677  0.9245 -2.0583  1.0375
 8768TIP3    H247796   1.064   2.782   5.639  0.9555 -1.8750  1.3268
 8769TIP3   OH247797   1.366   4.848  15.210 -0.2775  0.0750  0.2406
 8769TIP3    H147798   1.408   4.886  15.132  0.8638 -0.2000  0.7047
 8769TIP3    H247799   1.331   4.765  15.179  0.2413 -0.0716  0.0250
 8770TIP3   OH247800   6.357   2.134   1.160  0.1690 -0.3978 -0.2185
 8770TIP3    H147801   6.418   2.075   1.116 -1.5090 -2.1278 -0.3364
 8770TIP3    H247802   6.413   2.204   1.194  2.6011 -3.0158  1.7219
 8771TIP3   OH247803   3.075   5.997   0.066  0.3085  0.1344 -0.1825
 8771TIP3    H147804   3.081   5.922   0.006  2.7425 -0.2149  0.4020
 8771TIP3    H247805   3.096   5.960   0.152 -1.4447  0.9570  0.6629
 8772TIP3   OH247806   3.379   4.185  14.866 -0.2327  0.5683  0.5178
 8772TIP3    H147807   3.317   4.257  14.855  0.9344  1.7900  1.5232
 8772TIP3    H247808   3.330   4.118  14.912 -1.6794  0.2056 -1.4327
 8773TIP3   OH247809   6.272   2.411  12.872 -0.0200  0.1738  0.2421
 8773TIP3    H147810   6.235   2.454  12.950  0.1340 -0.0289  0.4296
 8773TIP3    H247811   6.354   2.459  12.856  1.2849 -1.3673  1.7510
 8774TIP3   OH247812   3.402   3.148  16.158  0.9782  0.3152  0.6589
 8774TIP3    H147813   3.387   3.055  16.141  1.0385 -0.3186  3.5319
 8774TIP3    H247814   3.489   3.151  16.199  0.6295  1.5169  1.3653
 8775TIP3   OH247815   0.642   5.865  12.823  0.1220  0.4623 -0.4994
 8775TIP3    H147816   0.634   5.943  12.767 -1.0682  0.1964 -0.7342
 8775TIP3    H247817   0.552   5.833  12.831  0.3689  0.1139  1.0409
 8776TIP3   OH247818   1.245   6.238  15.374  0.5976 -0.0615 -0.3617
 8776TIP3    H147819   1.189   6.216  15.300  1.6289 -0.8270 -0.9403
 8776TIP3    H247820   1.200   6.202  15.450  1.1827 -2.3949 -1.0385
 8777TIP3   OH247821   5.774   1.958   5.183  1.0046 -0.4472  0.0846
 8777TIP3    H147822   5.776   2.054   5.179 -0.7279 -0.3745  0.1796
 8777TIP3    H247823   5.836   1.930   5.115 -0.0693  0.7601 -1.4879
 8778TIP3   OH247824   3.940   2.047  12.427  0.2958  0.3360 -0.0257
 8778TIP3    H147825   3.946   2.048  12.332 -1.4402 -0.5591 -0.1892
 8778TIP3    H247826   3.847   2.054  12.446  0.6738  1.6124  1.6647
 8779TIP3   OH247827   2.553   4.015   3.207  0.4626  0.0325  0.1668
 8779TIP3    H147828   2.472   3.994   3.161  1.0902 -1.8071 -0.1898
 8779TIP3    H247829   2.539   3.982   3.296  0.9187 -0.5692  0.0198
 8780TIP3   OH247830   6.008   4.256  16.366 -0.0067  0.2095  0.0977
 8780TIP3    H147831   5.970   4.201  16.435  0.4603 -1.3869 -0.8538
 8780TIP3    H247832   6.016   4.197  16.291  2.0529  1.1488 -0.4837
 8781TIP3   OH247833   1.314   1.984  11.778  0.1456 -0.4676  0.2468
 8781TIP3    H147834   1.405   1.959  11.760 -0.2191 -1.0272 -0.9568
 8781TIP3    H247835   1.311   2.079  11.763 -0.1207 -0.8806 -2.9380
 8782TIP3   OH247836   2.788   5.857   5.976 -0.3378  0.4129 -0.0174
 8782TIP3    H147837   2.692   5.853   5.972 -0.3713 -3.8645  0.4251
 8782TIP3    H247838   2.816   5.867   5.885 -1.0940  3.4984 -0.0009
 8783TIP3   OH247839   2.171   3.945  14.884 -0.4581  0.6981  0.0774
 8783TIP3    H147840   2.189   3.949  14.978 -0.0067  1.7710 -0.0430
 8783TIP3    H247841   2.246   3.988  14.843 -0.8358  0.5869 -0.7509
 8784TIP3   OH247842   6.110   3.925  14.749 -0.0843 -0.1787  0.5351
 8784TIP3    H147843   6.081   3.847  14.796  0.0479  0.5706  1.9259
 8784TIP3    H247844   6.071   3.917  14.662 -0.4678 -1.5420  0.8084
 8785TIP3   OH247845   3.087   1.589   0.960 -0.0799 -0.1514 -0.1028
 8785TIP3    H147846   3.158   1.562   1.018  1.0330 -2.4128 -2.3399
 8785TIP3    H247847   3.122   1.665   0.913  0.4896 -0.6815 -0.5368
 8786TIP3   OH247848   2.133   1.146   1.318  0.1400  0.0586 -0.4444
 8786TIP3    H147849   2.215   1.165   1.363  1.1739  2.5549 -3.0518
 8786TIP3    H247850   2.140   1.055   1.292  1.4542 -0.1559  0.5505
 8787TIP3   OH247851   0.899   0.126   1.032 -0.1373 -0.2663 -0.0434
 8787TIP3    H147852   0.963   0.131   0.960 -0.0981 -0.8542 -0.0549
 8787TIP3    H247853   0.847   0.048   1.012  1.4690 -1.9544  1.8571
 8788TIP3   OH247854   5.686   6.739   1.579 -0.2884  0.2583 -0.4013
 8788TIP3    H147855   5.655   6.653   1.552 -1.4739  0.3037  0.6865
 8788TIP3    H247856   5.641   6.800   1.520  1.4385  0.1295 -1.9438
 8789TIP3   OH247857   0.340   3.516   3.599  0.5342 -0.1786  0.0100
 8789TIP3    H147858   0.324   3.597   3.648  1.1044 -0.6526  1.0319
 8789TIP3    H247859   0.400   3.541   3.529 -0.7079  0.6191 -0.8041
 8790TIP3   OH247860   4.060   5.786  12.397 -0.0558 -0.3476  0.5111
 8790TIP3    H147861   4.056   5.812  12.305 -1.1485  0.9730  0.9118
 8790TIP3    H247862   4.126   5.843  12.435  0.8064 -1.2743  0.4591
 8791TIP3   OH247863   4.946   3.167   0.404 -0.1086  0.0796 -0.3291
 8791TIP3    H147864   4.906   3.181   0.318  1.7549 -0.9157 -1.4353
 8791TIP3    H247865   4.974   3.075   0.402  0.0523  0.0647  1.3361
 8792TIP3   OH247866   4.597   0.236  13.220  0.0947  0.1644 -0.2478
 8792TIP3    H147867   4.643   0.320  13.216  0.9056 -0.2115  0.5020
 8792TIP3    H247868   4.531   0.248  13.288 -0.4141  0.4785 -0.7970
 8793TIP3   OH247869   0.242   2.996   1.710  0.4252 -0.0327 -0.2372
 8793TIP3    H147870   0.235   3.023   1.618  1.0645  0.3889 -0.1691
 8793TIP3    H247871   0.170   2.934   1.723  0.3950 -0.1740 -1.0512
 8794TIP3   OH247872   0.124   5.603  16.613 -0.5185 -0.2164 -0.0216
 8794TIP3    H147873   0.164   5.526  16.571 -0.0028  0.2192 -0.3500
 8794TIP3    H247874   0.086   5.652  16.541 -0.9172 -0.2046  0.1979
 8795TIP3   OH247875   1.979   0.571  15.346 -0.1742 -0.3896 -0.2636
 8795TIP3    H147876   1.953   0.486  15.310  1.1263  0.2054 -2.8359
 8795TIP3    H247877   2.057   0.552  15.398 -0.5490 -0.8981  0.1273
 8796TIP3   OH247878   2.053   3.530  11.225  0.3512  0.2852 -0.3543
 8796TIP3    H147879   1.980   3.475  11.252  0.2960 -0.0140 -1.0715
 8796TIP3    H247880   2.129   3.493  11.269  0.5218 -1.1594 -1.7725
 8797TIP3   OH247881   6.756   1.813  10.770  0.7402  0.0645 -0.1229
 8797TIP3    H147882   6.704   1.835  10.692 -1.0017  1.3160  1.3066
 8797TIP3    H247883   6.725   1.726  10.795  0.5992  0.0620 -0.2997
 8798TIP3   OH247884   5.583   0.495  15.297  0.1611  0.2699 -0.4116
 8798TIP3    H147885   5.586   0.449  15.213 -0.5841  1.1568 -0.9410
 8798TIP3    H247886   5.644   0.568  15.286 -1.3329  1.5015 -0.8969
 8799TIP3   OH247887   5.978   4.109  16.123 -0.1724 -0.0079  0.3208
 8799TIP3    H147888   5.919   4.034  16.128  1.0406 -1.1198 -1.2868
 8799TIP3    H247889   5.927   4.176  16.077 -0.4450 -0.6935 -0.3883
 8800TIP3   OH247890   1.511   0.392  13.010 -0.5922 -0.2715 -0.0695
 8800TIP3    H147891   1.447   0.325  12.983 -1.6652  0.4558  0.6114
 8800TIP3    H247892   1.587   0.341  13.039 -0.4360 -1.1407 -1.8176
 8801TIP3   OH247893   2.581   2.408   1.830  1.0287  0.0765  0.7886
 8801TIP3    H147894   2.599   2.320   1.862  0.8501 -0.9002 -1.6116
 8801TIP3    H247895   2.666   2.441   1.801  0.5783 -1.1038 -2.3347
 8802TIP3   OH247896   0.038   1.878   4.367 -0.2116  0.5962 -0.6041
 8802TIP3    H147897  -0.047   1.833   4.371  1.3433 -2.6158 -1.0280
 8802TIP3    H247898   0.033   1.931   4.288 -2.1280  1.2904 -0.0933
 8803TIP3   OH247899   2.316   6.332  12.243 -0.4150  0.0202 -0.0913
 8803TIP3    H147900   2.389   6.304  12.299 -1.9575 -1.2677  1.3760
 8803TIP3    H247901   2.333   6.291  12.159 -0.0694 -1.3359  0.6056
 8804TIP3   OH247902   5.036   6.484  13.342  0.3178 -0.2828  0.3210
 8804TIP3    H147903   4.979   6.511  13.414 -0.1010  0.9714 -0.4495
 8804TIP3    H247904   5.024   6.390  13.336 -1.2040 -0.1346  0.5848
 8805TIP3   OH247905   5.221   0.989  12.460 -0.1634  0.5041 -0.2108
 8805TIP3    H147906   5.236   1.055  12.393  1.0706  2.0753  1.5106
 8805TIP3    H247907   5.136   1.012  12.498 -1.1729 -0.7673 -1.5549
 8806TIP3   OH247908   4.456   3.800  14.594  0.3508  0.5135 -0.0916
 8806TIP3    H147909   4.461   3.848  14.677 -1.8667  0.3662  0.1897
 8806TIP3    H247910   4.465   3.867  14.527 -0.3283  0.9996  0.2923
 8807TIP3   OH247911   6.291   2.804   6.323 -0.2895 -0.6293  0.3466
 8807TIP3    H147912   6.382   2.816   6.297  0.7211 -0.6656  3.4584
 8807TIP3    H247913   6.268   2.884   6.370 -2.1171 -0.3496 -0.9150
 8808TIP3   OH247914   1.432   6.114   1.581 -0.2484  0.2125  0.0049
 8808TIP3    H147915   1.519   6.126   1.543  0.0561 -0.0677  0.5992
 8808TIP3    H247916   1.378   6.082   1.509  0.2119  0.1175 -0.2983
 8809TIP3   OH247917   4.633   3.224  15.395  0.1695  0.0534 -0.2391
 8809TIP3    H147918   4.696   3.160  15.428  0.1654  0.2684  0.1872
 8809TIP3    H247919   4.680   3.270  15.325  0.0894 -0.5783 -0.7235
 8810TIP3   OH247920   5.209   0.859  15.083  0.2057  0.1934  0.4153
 8810TIP3    H147921   5.157   0.805  15.142  1.3365  0.7194  1.9487
 8810TIP3    H247922   5.294   0.816  15.079  0.8352  1.3561  0.9351
 8811TIP3   OH247923   5.009   4.752   5.832 -0.8262 -0.4222  0.1284
 8811TIP3    H147924   5.039   4.687   5.895 -0.7381 -2.1401 -1.6110
 8811TIP3    H247925   5.078   4.755   5.765 -1.8319 -0.1473 -0.9298
 8812TIP3   OH247926   1.346   6.264  14.944  0.2111 -0.0020  0.1448
 8812TIP3    H147927   1.366   6.312  14.864 -0.6062  2.0860  1.1145
 8812TIP3    H247928   1.258   6.229  14.930  0.2363  0.0086 -0.0385
 8813TIP3   OH247929   4.391   6.174  13.891  0.5087  0.5658  0.2059
 8813TIP3    H147930   4.305   6.184  13.850  0.5241  2.3395  0.5125
 8813TIP3    H247931   4.449   6.147  13.820 -0.4822 -1.8104  0.2233
 8814TIP3   OH247932   2.844   2.463   4.164 -0.5513  0.3127  0.0748
 8814TIP3    H147933   2.921   2.440   4.216 -0.9282  1.4295  1.1774
 8814TIP3    H247934   2.790   2.383   4.165  0.5629 -0.4832 -0.7289
 8815TIP3   OH247935   2.309   5.647   5.860 -0.0863  0.3632 -0.4338
 8815TIP3    H147936   2.390   5.637   5.909 -0.1517 -0.4336 -0.4770
 8815TIP3    H247937   2.261   5.715   5.907 -0.8927 -1.5353  1.6478
 8816TIP3   OH247938   6.613   5.346   4.578  0.0106 -0.0903 -0.6199
 8816TIP3    H147939   6.553   5.407   4.535  2.3536  1.7375 -1.5577
 8816TIP3    H247940   6.668   5.313   4.507  0.2693 -1.5523  0.2212
 8817TIP3   OH247941   0.500   5.634   4.714 -0.0415  0.1164 -0.0600
 8817TIP3    H147942   0.498   5.719   4.670 -2.1875 -0.5907 -1.4853
 8817TIP3    H247943   0.539   5.575   4.649  2.3338  0.0863  1.2599
 8818TIP3   OH247944   5.508   4.840  13.531 -0.2292  0.3767 -0.4522
 8818TIP3    H147945   5.471   4.926  13.509  0.1552  1.6432  3.1669
 8818TIP3    H247946   5.602   4.856  13.538 -0.2327 -0.0686  0.9852
 8819TIP3   OH247947   3.657   4.332  15.091  0.0173  0.4338 -0.2132
 8819TIP3    H147948   3.672   4.238  15.105  2.5579  0.7814 -0.0484
 8819TIP3    H247949   3.671   4.344  14.997  0.5912  0.7614 -0.0899
 8820TIP3   OH247950   5.120   1.089   3.319 -0.0898 -0.3964  0.8299
 8820TIP3    H147951   5.172   1.120   3.244  0.6104 -1.2463  0.9478
 8820TIP3    H247952   5.057   1.028   3.280  0.5664 -1.1809  0.9754
 8821TIP3   OH247953   1.335   3.089  12.414 -0.7693 -0.2746 -0.1729
 8821TIP3    H147954   1.329   3.133  12.499 -2.7942  1.1277 -0.9815
 8821TIP3    H247955   1.425   3.054  12.412 -1.1146 -1.7738  3.1832
 8822TIP3   OH247956   5.033   0.363   2.814  0.4674 -0.5189  0.2689
 8822TIP3    H147957   5.042   0.458   2.808  0.2324 -0.5556 -0.8181
 8822TIP3    H247958   5.082   0.339   2.894  2.9868  0.1919 -0.9572
 8823TIP3   OH247959   5.804   1.457  16.511  0.1539 -0.5308 -0.4643
 8823TIP3    H147960   5.745   1.418  16.446  1.5254 -2.6941 -0.5230
 8823TIP3    H247961   5.756   1.452  16.594 -0.3720 -0.7305 -0.7752
 8824TIP3   OH247962   2.509   4.453   2.324  0.5370  0.0694  0.4956
 8824TIP3    H147963   2.540   4.467   2.414 -0.1267  1.0377  0.5894
 8824TIP3    H247964   2.466   4.367   2.327  0.5237  0.0918  1.0962
 8825TIP3   OH247965   5.802   3.635   6.656 -0.3210  0.0466 -0.3327
 8825TIP3    H147966   5.834   3.619   6.568  0.4070  0.3711 -0.1351
 8825TIP3    H247967   5.869   3.689   6.697 -0.6758 -0.0509  0.4035
 8826TIP3   OH247968   3.031   1.580  12.808 -0.1743 -0.0779 -0.7666
 8826TIP3    H147969   3.058   1.515  12.744 -0.1807 -0.6691 -0.1765
 8826TIP3    H247970   2.980   1.644  12.758 -0.6397 -0.8199 -1.2488
 8827TIP3   OH247971   3.810   5.326   4.342  0.1948  0.2391  0.6147
 8827TIP3    H147972   3.849   5.381   4.274  0.2998 -1.8953 -1.1761
 8827TIP3    H247973   3.882   5.309   4.404  0.4471  1.1577  0.5921
 8828TIP3   OH247974   2.875   4.245  14.252  0.1454 -0.0380  0.5144
 8828TIP3    H147975   2.928   4.175  14.290 -0.1952  0.0986  1.2565
 8828TIP3    H247976   2.801   4.254  14.312  0.7148  1.6570  0.9935
 8829TIP3   OH247977   5.616   0.577  13.965 -0.3263  0.0046  0.6564
 8829TIP3    H147978   5.638   0.653  13.911  1.0460 -0.4670  0.5145
 8829TIP3    H247979   5.559   0.612  14.034 -0.6593  0.9360 -0.0777
 8830TIP3   OH247980   2.838   2.612   6.344 -0.4422 -0.2361 -0.8523
 8830TIP3    H147981   2.788   2.574   6.417  0.8961 -0.1867  0.1328
 8830TIP3    H247982   2.782   2.682   6.310 -0.6773  0.4404  0.8160
 8831TIP3   OH247983   5.214   2.672  15.201  0.1597 -0.0211 -0.1580
 8831TIP3    H147984   5.184   2.747  15.252  3.3999 -0.2038  2.3715
 8831TIP3    H247985   5.168   2.597  15.236  0.5933  0.1855  0.8784
 8832TIP3   OH247986   2.078   0.122  15.036 -0.4844  0.6905 -0.1306
 8832TIP3    H147987   2.084   0.209  15.075 -2.1001  0.7096  0.1476
 8832TIP3    H247988   2.019   0.133  14.962 -1.6720 -0.3823  0.6241
 8833TIP3   OH247989   3.207   6.817  15.832  0.1580 -0.5088  0.7100
 8833TIP3    H147990   3.172   6.733  15.862  0.4207 -0.5708  0.8438
 8833TIP3    H247991   3.157   6.883  15.881  0.1770 -0.5947  0.8445
 8834TIP3   OH247992   2.684   2.211   4.236 -0.0364 -0.0449  0.1411
 8834TIP3    H147993   2.681   2.249   4.324  1.4599 -2.2555  1.2403
 8834TIP3    H247994   2.593   2.206   4.209 -0.5869  0.1218  1.8186
 8835TIP3   OH247995   4.369   5.983   5.082  0.4607 -0.3010 -0.4280
 8835TIP3    H147996   4.445   6.021   5.039 -0.1511  0.0730 -1.1909
 8835TIP3    H247997   4.369   6.022   5.169  0.6220  0.3874 -0.7324
 8836TIP3   OH247998   1.892   3.864   6.041 -0.5046 -0.5172  0.6041
 8836TIP3    H147999   1.812   3.908   6.014  0.1646 -0.8532 -2.2653
 8836TIP3    H248000   1.862   3.784   6.085 -1.6944  0.5057  1.7151
 8837TIP3   OH248001   2.759   2.877  13.893 -0.4266 -0.0404  0.1710
 8837TIP3    H148002   2.840   2.856  13.940  0.8921  1.5190 -1.2832
 8837TIP3    H248003   2.785   2.883  13.801 -1.6491  2.8435 -0.0732
 8838TIP3   OH248004   6.517   5.209   1.866  0.1992  0.2630 -0.6709
 8838TIP3    H148005   6.521   5.144   1.796 -0.6083  0.7673 -1.2036
 8838TIP3    H248006   6.547   5.163   1.944  1.6381 -0.1537 -1.4540
 8839TIP3   OH248007   6.151   3.879   3.359  0.2672 -0.0251 -0.0876
 8839TIP3    H148008   6.181   3.836   3.439 -0.3956 -2.6277 -1.1434
 8839TIP3    H248009   6.217   3.857   3.294  0.7673  2.0143 -0.3373
 8840TIP3   OH248010   5.188   1.465   3.958  0.3503 -0.1638  0.1786
 8840TIP3    H148011   5.256   1.532   3.963 -1.7098  2.1237 -0.1350
 8840TIP3    H248012   5.152   1.460   4.047 -0.1727 -0.1027 -0.0253
 8841TIP3   OH248013   4.835   5.660   2.809 -0.3506  0.1555  0.1060
 8841TIP3    H148014   4.764   5.634   2.751 -0.8504 -0.2382  0.8743
 8841TIP3    H248015   4.815   5.751   2.833 -0.1493  0.3150 -0.3139
 8842TIP3   OH248016   4.492   1.109  12.136 -0.0343  0.0266 -0.4670
 8842TIP3    H148017   4.434   1.176  12.172 -0.4441 -1.0090  0.9324
 8842TIP3    H248018   4.500   1.045  12.207  0.4465 -1.3308 -1.6934
 8843TIP3   OH248019   0.277   1.671   2.100 -0.2319 -0.5103 -0.7477
 8843TIP3    H148020   0.303   1.731   2.170  0.3437 -1.3743 -0.1979
 8843TIP3    H248021   0.359   1.649   2.055 -0.2287 -1.8361 -0.1536
 8844TIP3   OH248022   0.264   5.630   0.750 -0.0701 -0.0839  0.3234
 8844TIP3    H148023   0.329   5.633   0.821  1.3855 -1.4054 -0.8855
 8844TIP3    H248024   0.314   5.605   0.673 -1.9855 -0.8263 -0.7397
 8845TIP3   OH248025   3.821   2.476  13.544  0.1021 -0.3281  0.1726
 8845TIP3    H148026   3.741   2.438  13.510 -0.9586  0.7675  1.3372
 8845TIP3    H248027   3.802   2.495  13.636  1.2562  1.0806  0.1647
 8846TIP3   OH248028   6.431   3.429   2.029  0.0436  0.3587 -0.3013
 8846TIP3    H148029   6.350   3.424   2.079  0.4054  0.7812  0.3451
 8846TIP3    H248030   6.478   3.348   2.051 -0.3245 -0.0268 -0.9063
 8847TIP3   OH248031   2.800   5.146  13.589  0.1509 -0.1954 -0.5760
 8847TIP3    H148032   2.802   5.064  13.638 -0.9904  1.3798  2.3375
 8847TIP3    H248033   2.707   5.163  13.574  0.4592 -0.9738 -4.1571
 8848TIP3   OH248034   2.550   5.181   0.878 -0.1265  0.2590  0.2673
 8848TIP3    H148035   2.535   5.091   0.850 -1.2871  0.8528 -1.0977
 8848TIP3    H248036   2.564   5.174   0.973 -0.7275 -1.2890  0.2705
 8849TIP3   OH248037   6.754   4.027  15.916 -0.2703  0.3636 -0.1077
 8849TIP3    H148038   6.776   3.997  15.828  0.3650  0.8656 -0.1274
 8849TIP3    H248039   6.742   4.122  15.907  0.8675  0.5901  0.5369
 8850TIP3   OH248040   3.129   1.473   4.824 -0.1302  0.1967  0.0743
 8850TIP3    H148041   3.135   1.567   4.843 -0.0326  0.5159 -1.4654
 8850TIP3    H248042   3.219   1.446   4.806  0.7894 -1.3603  5.2723
 8851TIP3   OH248043   2.120   0.131   0.587  0.5233  0.2325  0.8075
 8851TIP3    H148044   2.214   0.115   0.581  0.3243 -0.5012 -1.2720
 8851TIP3    H248045   2.105   0.205   0.528 -0.2187  0.3055  1.0796
 8852TIP3   OH248046   1.592   6.098  13.234 -0.2495  0.4277  0.6066
 8852TIP3    H148047   1.525   6.030  13.226  0.5875 -0.3227 -0.4607
 8852TIP3    H248048   1.544   6.177  13.258 -1.2422 -0.5517  1.9848
 8853TIP3   OH248049   4.294   2.673   1.369  0.2917  0.0632  0.2443
 8853TIP3    H148050   4.326   2.590   1.405 -0.0055  0.2726  1.0198
 8853TIP3    H248051   4.202   2.657   1.350  0.3471  0.0805 -0.0408
 8854TIP3   OH248052   3.914   4.298  12.804 -0.5356 -0.1512  0.2820
 8854TIP3    H148053   3.822   4.295  12.832 -0.1461 -1.5545  1.5391
 8854TIP3    H248054   3.919   4.237  12.732 -0.4468 -0.6556  0.7100
 8855TIP3   OH248055   1.108   0.300   1.650  0.3830 -0.3264  0.4008
 8855TIP3    H148056   1.127   0.264   1.737 -1.4616  0.8970  1.3669
 8855TIP3    H248057   1.037   0.245   1.616  1.4520 -1.1338 -0.6033
 8856TIP3   OH248058   5.388   5.842   4.766  0.1817 -0.2842  0.1009
 8856TIP3    H148059   5.396   5.929   4.725  0.2752  0.2874  1.2994
 8856TIP3    H248060   5.313   5.802   4.721 -0.4452  0.7832  0.1518
 8857TIP3   OH248061   1.314   4.348  13.099 -0.5529 -0.0189  0.3058
 8857TIP3    H148062   1.291   4.292  13.025  1.7886  1.9757 -2.1407
 8857TIP3    H248063   1.290   4.436  13.071  1.9350  1.0117  1.1490
 8858TIP3   OH248064   4.232   6.124   0.859  0.0988 -0.0915 -0.3009
 8858TIP3    H148065   4.249   6.093   0.770  0.3923 -0.0497 -0.2600
 8858TIP3    H248066   4.148   6.170   0.853  0.2749  0.1883 -0.6212
 8859TIP3   OH248067   5.277   6.337  16.087 -0.0625 -0.2954  0.1888
 8859TIP3    H148068   5.269   6.270  16.019 -2.1328 -0.6265  0.6996
 8859TIP3    H248069   5.350   6.307  16.141 -1.9876 -3.2086  1.4545
 8860TIP3   OH248070   4.026   3.881   2.015  0.6735 -0.3439 -0.1566
 8860TIP3    H148071   4.071   3.827   1.949 -0.6777 -0.0672 -1.3599
 8860TIP3    H248072   3.933   3.861   2.003  0.3265  0.4739  1.0141
 8861TIP3   OH248073   1.561   5.106   1.795 -0.0925  0.6598 -0.3120
 8861TIP3    H148074   1.599   5.021   1.771  0.1968  0.4571  0.8260
 8861TIP3    H248075   1.549   5.151   1.711 -0.5208 -0.6079 -0.9553
 8862TIP3   OH248076   4.655   5.208   2.004 -0.5290 -0.3319 -0.0429
 8862TIP3    H148077   4.735   5.169   2.039 -0.3567  0.4291  0.4234
 8862TIP3    H248078   4.646   5.169   1.917  0.0087 -0.8900  0.1457
 8863TIP3   OH248079   4.648   1.284  17.105  0.2894  0.2848 -0.2469
 8863TIP3    H148080   4.622   1.225  17.176 -0.8166  1.9190  0.7535
 8863TIP3    H248081   4.744   1.284  17.109  0.2711 -0.3732  0.6353
 8864TIP3   OH248082   3.565   2.824   4.067 -0.2965  0.0102  0.4695
 8864TIP3    H148083   3.653   2.852   4.090  0.6961 -2.5880  0.1760
 8864TIP3    H248084   3.554   2.854   3.976  0.3701  0.1836  0.4386
 8865TIP3   OH248085   2.628   4.487   0.271 -0.7823 -0.1257 -0.2937
 8865TIP3    H148086   2.678   4.405   0.267  1.1200  0.9583 -0.0815
 8865TIP3    H248087   2.641   4.527   0.185  0.2116  0.9704  0.3330
 8866TIP3   OH248088   1.255   4.380   5.418 -0.5147 -0.2569  0.3706
 8866TIP3    H148089   1.240   4.466   5.458 -0.6800 -0.0928 -0.0408
 8866TIP3    H248090   1.183   4.370   5.356  0.7705  0.3073 -1.2771
 8867TIP3   OH248091   5.304   6.187  17.005  0.0920  0.1239 -0.1742
 8867TIP3    H148092   5.313   6.280  16.985  0.3006  0.7994  2.7059
 8867TIP3    H248093   5.391   6.160  17.035 -0.1828 -0.7809 -0.1753
 8868TIP3   OH248094   4.121   4.851   0.755  0.5107  0.2631 -0.1590
 8868TIP3    H148095   4.064   4.818   0.826  1.0418  1.7825  1.0377
 8868TIP3    H248096   4.191   4.786   0.748  0.0778 -0.2563  0.2295
 8869TIP3   OH248097   2.078   1.775   2.020  0.5175 -0.0528  0.3660
 8869TIP3    H148098   2.030   1.766   2.101 -1.0851  0.3931 -0.4961
 8869TIP3    H248099   2.028   1.839   1.969  0.1555 -2.0063 -1.8999
 8870TIP3   OH248100   5.182   2.013   2.694 -0.1984  0.3351 -0.1005
 8870TIP3    H148101   5.246   1.998   2.625  0.3789  3.0468 -0.2922
 8870TIP3    H248102   5.235   2.027   2.773 -0.3607  3.3001 -0.3921
 8871TIP3   OH248103   5.865   5.129   6.086 -0.0319 -0.0272  0.1880
 8871TIP3    H148104   5.918   5.194   6.133 -1.5273  1.8544 -0.6243
 8871TIP3    H248105   5.895   5.134   5.996 -1.8119  1.3660 -0.3687
 8872TIP3   OH248106   3.061   4.706   4.523 -0.0028 -0.5012 -0.8223
 8872TIP3    H148107   3.046   4.728   4.431  1.1195 -1.1699 -1.1882
 8872TIP3    H248108   3.002   4.633   4.540 -1.0032  0.3118 -0.6775
 8873TIP3   OH248109   2.650   3.831   2.998  0.0367 -0.3403 -0.0867
 8873TIP3    H148110   2.639   3.740   2.971  0.1815 -0.0357 -1.2793
 8873TIP3    H248111   2.583   3.846   3.064 -0.8961 -0.9470 -0.8618
 8874TIP3   OH248112   2.324   6.757  17.263 -0.4176  0.2900  0.1441
 8874TIP3    H148113   2.306   6.738  17.171 -0.4771 -2.2250  0.5916
 8874TIP3    H248114   2.265   6.828  17.285 -3.0747 -1.4756 -0.8546
 8875TIP3   OH248115   3.960   1.384  14.808  0.0063 -0.4622  0.1362
 8875TIP3    H148116   4.034   1.347  14.759  0.4543  0.3453  0.1742
 8875TIP3    H248117   3.942   1.467  14.765 -1.3268 -0.9449 -0.2740
 8876TIP3   OH248118   1.028   1.096   2.195 -0.2563 -0.8295  0.1945
 8876TIP3    H148119   0.965   1.165   2.177 -0.5849 -1.5759 -1.8157
 8876TIP3    H248120   1.088   1.098   2.120  2.0021 -0.3225  1.8990
 8877TIP3   OH248121   0.680   5.457   0.984  0.2563 -0.1008 -0.4423
 8877TIP3    H148122   0.774   5.474   0.980  0.1938  0.6285  0.9397
 8877TIP3    H248123   0.661   5.445   1.076 -0.9874 -0.4296 -0.7236
 8878TIP3   OH248124   0.593   5.498   4.239  0.0622 -0.4408  0.1515
 8878TIP3    H148125   0.514   5.447   4.224 -0.7082  1.1443 -1.4292
 8878TIP3    H248126   0.663   5.447   4.198 -0.8511  0.1511 -2.2981
 8879TIP3   OH248127   4.457   5.385   5.467 -0.3218 -0.3601 -0.3455
 8879TIP3    H148128   4.402   5.425   5.400  0.7338 -0.8929 -1.5794
 8879TIP3    H248129   4.402   5.383   5.546 -1.2224  1.2702 -0.8863
 8880TIP3   OH248130   5.304   3.912   0.863 -0.3667 -0.4563  0.2957
 8880TIP3    H148131   5.268   3.841   0.916 -1.2013 -0.0217  0.3339
 8880TIP3    H248132   5.300   3.989   0.920 -0.1593 -0.2300  0.0080
 8881TIP3   OH248133   4.351   3.262  13.258 -0.1627  0.1863 -0.2436
 8881TIP3    H148134   4.401   3.320  13.201 -1.2575  0.3791 -1.0265
 8881TIP3    H248135   4.320   3.319  13.329 -1.2608  0.5874 -1.0265
 8882TIP3   OH248136   4.880   5.326  13.246 -0.4957  0.4049 -0.2844
 8882TIP3    H148137   4.875   5.304  13.153 -0.9202 -0.7353  0.0023
 8882TIP3    H248138   4.886   5.422  13.247  2.7890  0.3234 -1.6023
 8883TIP3   OH248139   1.528   6.386   3.944  0.2098 -0.1015 -0.1972
 8883TIP3    H148140   1.442   6.428   3.940 -0.0783 -0.1381  2.9290
 8883TIP3    H248141   1.539   6.363   4.036  3.2574 -0.8164 -0.6270
 8884TIP3   OH248142   2.023   2.579  16.591 -0.3408 -0.1994  0.2892
 8884TIP3    H148143   2.001   2.577  16.498  1.5657 -0.6622 -0.1811
 8884TIP3    H248144   1.976   2.504  16.628  0.6819 -1.3884 -0.7465
 8885TIP3   OH248145   6.568   3.385  12.364 -0.3255  0.0852  0.1360
 8885TIP3    H148146   6.643   3.439  12.340 -0.5463  0.3029 -0.0730
 8885TIP3    H248147   6.497   3.415  12.306 -0.3084 -0.7865 -0.3505
 8886TIP3   OH248148   2.793   6.170  11.633 -0.0254 -0.6225 -0.2150
 8886TIP3    H148149   2.817   6.096  11.578  3.0774 -0.3615  0.6196
 8886TIP3    H248150   2.845   6.243  11.599  0.2019  0.1002  1.5695
 8887TIP3   OH248151   1.021   3.476   2.843 -0.4363  0.6275  0.4796
 8887TIP3    H148152   1.087   3.480   2.775 -1.5078 -0.9621 -0.7143
 8887TIP3    H248153   0.946   3.524   2.807 -1.3112 -0.9418  0.1371
 8888TIP3   OH248154   6.805   6.305   4.043 -0.2866 -0.3615 -0.1798
 8888TIP3    H148155   6.874   6.368   4.024 -0.0967 -0.6737 -0.5338
 8888TIP3    H248156   6.805   6.298   4.138  0.5488 -0.7726 -0.1989
 8889TIP3   OH248157   5.532   3.662  14.556 -0.2247  0.4625  0.4475
 8889TIP3    H148158   5.445   3.697  14.537 -0.9251 -1.4004 -0.0244
 8889TIP3    H248159   5.551   3.604  14.482  2.0226  1.8038 -0.1262
 8890TIP3   OH248160   5.436   2.529  16.414 -0.3093 -0.4503  0.4950
 8890TIP3    H148161   5.435   2.620  16.382  0.9569 -0.0753  1.4637
 8890TIP3    H248162   5.344   2.502  16.409 -0.3483 -0.1202 -2.5459
 8891TIP3   OH248163   2.670   3.594   3.859  0.0166  0.2701 -0.1877
 8891TIP3    H148164   2.717   3.519   3.894  0.1711 -0.1548 -1.2596
 8891TIP3    H248165   2.604   3.556   3.801  0.9168  0.9764 -1.7260
 8892TIP3   OH248166   1.410   1.637   0.454 -0.7389 -0.1326  0.0562
 8892TIP3    H148167   1.445   1.579   0.521  2.3987  0.3845 -0.9432
 8892TIP3    H248168   1.475   1.633   0.383 -3.2886  0.2271 -2.4910
 8893TIP3   OH248169   4.843   4.751  11.479 -0.0039  0.6116 -0.1059
 8893TIP3    H148170   4.779   4.822  11.489  1.6769  2.4405 -1.5223
 8893TIP3    H248171   4.907   4.766  11.549 -0.2827 -0.2904  0.3613
 8894TIP3   OH248172   6.075   3.050   2.209  0.2426  0.1816  0.7111
 8894TIP3    H148173   6.039   3.053   2.298  0.1009 -0.9692  0.7023
 8894TIP3    H248174   6.026   3.117   2.162 -0.1059  0.3903  1.3470
 8895TIP3   OH248175   1.186   0.529   4.581 -0.0853  0.1925  0.4456
 8895TIP3    H148176   1.260   0.475   4.554  0.2364 -0.0551  1.7702
 8895TIP3    H248177   1.115   0.504   4.521 -0.4490 -2.9386  1.9738
 8896TIP3   OH248178   3.326   5.369  16.148  0.7885 -0.2143  0.3794
 8896TIP3    H148179   3.365   5.422  16.078  0.9480  0.5417  1.0378
 8896TIP3    H248180   3.279   5.431  16.203  0.0047 -0.9079  0.5214
 8897TIP3   OH248181   2.955   6.261   2.525  0.1073  0.1577 -0.2269
 8897TIP3    H148182   3.041   6.220   2.514  0.0094 -0.0275 -0.3153
 8897TIP3    H248183   2.969   6.329   2.591  0.2321 -0.1414  0.0571
 8898TIP3   OH248184   1.586   1.999   6.211  0.0658  0.2119  0.0965
 8898TIP3    H148185   1.666   1.950   6.195  0.0547  0.2087  0.0503
 8898TIP3    H248186   1.528   1.974   6.139  0.4279  1.0751 -0.5220
 8899TIP3   OH248187   1.958   1.528   0.786  0.0255  0.1214 -0.5439
 8899TIP3    H148188   1.879   1.575   0.760 -1.5053 -1.6131  0.7555
 8899TIP3    H248189   1.997   1.584   0.854 -0.4393  0.6591 -0.7062
 8900TIP3   OH248190   2.464   0.746   5.958 -0.4840  0.5205  0.1102
 8900TIP3    H148191   2.407   0.713   5.888 -1.5470 -1.4197  1.7902
 8900TIP3    H248192   2.530   0.678   5.970 -0.7619  0.4643  1.4737
 8901TIP3   OH248193   6.104   0.863  15.724  0.4911 -0.1439 -0.5675
 8901TIP3    H148194   6.086   0.816  15.642 -1.4619  0.4787 -0.5504
 8901TIP3    H248195   6.171   0.811  15.768  0.8178 -1.0559 -2.0749
 8902TIP3   OH248196   1.680   5.683  16.780 -0.0734  0.1818  0.4805
 8902TIP3    H148197   1.722   5.639  16.853 -0.7892 -0.1109  0.7299
 8902TIP3    H248198   1.752   5.710  16.723  0.5106  0.6646  1.4275
 8903TIP3   OH248199   3.727   6.055  11.577  0.0720 -0.2900  0.1352
 8903TIP3    H148200   3.771   6.139  11.567 -1.6619  0.5951 -0.4369
 8903TIP3    H248201   3.687   6.039  11.491 -1.3666 -0.6448  0.8330
 8904TIP3   OH248202   6.140   4.670   0.555 -0.8100  0.2024  0.0878
 8904TIP3    H148203   6.145   4.579   0.586  0.7067  0.4261  0.5743
 8904TIP3    H248204   6.104   4.663   0.466 -0.7293 -0.8741  0.1275
 8905TIP3   OH248205   3.957   2.364   5.512  0.0934  0.1820  0.4902
 8905TIP3    H148206   3.923   2.289   5.463  1.3231  0.6333 -1.1305
 8905TIP3    H248207   4.036   2.330   5.555  0.0128  0.2580  0.6979
 8906TIP3   OH248208   0.782   4.707   0.495 -0.4499  0.5038  0.3269
 8906TIP3    H148209   0.753   4.695   0.405 -0.3056  2.9307 -0.1120
 8906TIP3    H248210   0.861   4.762   0.488  1.6230 -2.0687  1.7720
 8907TIP3   OH248211   1.342   1.981  12.862  1.0768 -0.1968 -0.6770
 8907TIP3    H148212   1.322   1.887  12.856 -0.2849  0.0073  0.1696
 8907TIP3    H248213   1.434   1.987  12.838  1.3537 -1.8301 -0.1799
 8908TIP3   OH248214   6.411   5.762  11.588 -0.6688 -0.1694 -0.1509
 8908TIP3    H148215   6.478   5.710  11.632  0.3468  1.2938  0.1258
 8908TIP3    H248216   6.336   5.703  11.579  0.5393 -1.7650 -0.1951
 8909TIP3   OH248217   2.802   4.597  15.459 -0.6666 -0.0448  0.5826
 8909TIP3    H148218   2.712   4.585  15.428 -0.2883  0.2465 -0.6789
 8909TIP3    H248219   2.835   4.671  15.408  0.6650 -0.8797  0.1995
 8910TIP3   OH248220   3.971   1.473  17.036 -0.1130 -0.7173 -0.4115
 8910TIP3    H148221   4.050   1.507  16.994 -1.5461  0.2946 -2.4282
 8910TIP3    H248222   3.900   1.528  17.002 -1.5302 -0.4214  2.6696
 8911TIP3   OH248223   4.515   5.032  17.147  0.0951  0.0465 -0.0053
 8911TIP3    H148224   4.530   4.938  17.136 -0.1113  0.2700 -3.1734
 8911TIP3    H248225   4.431   5.048  17.104 -0.3354  1.5813  1.2955
 8912TIP3   OH248226   0.199   5.065   0.862 -0.1486  0.0980  0.2025
 8912TIP3    H148227   0.278   5.105   0.828  0.0463 -0.2024  0.2924
 8912TIP3    H248228   0.230   4.986   0.907 -0.3332  0.7336  1.4961
 8913TIP3   OH248229   6.069   4.126  16.727 -0.2702  0.1740  0.1589
 8913TIP3    H148230   6.025   4.082  16.654  0.1778 -1.0225  0.5900
 8913TIP3    H248231   6.006   4.119  16.800 -0.5645  1.0451  0.0023
 8914TIP3   OH248232   3.036   5.046   2.875  0.2340 -0.0900  0.2223
 8914TIP3    H148233   3.069   5.117   2.821 -1.3117 -0.2535 -1.0149
 8914TIP3    H248234   3.102   5.035   2.943  0.8744  2.0177  0.0244
 8915TIP3   OH248235   2.809   1.784   4.235  0.7351  0.3208  0.3661
 8915TIP3    H148236   2.758   1.785   4.316  2.6190 -0.2690  1.6339
 8915TIP3    H248237   2.789   1.699   4.196 -1.6540  1.3601 -0.8543
 8916TIP3   OH248238   1.633   2.962   5.296  0.2936 -0.3871 -0.0393
 8916TIP3    H148239   1.677   2.941   5.378  0.6340 -0.3039 -0.2023
 8916TIP3    H248240   1.701   2.997   5.240  0.0384 -0.3392 -0.3224
 8917TIP3   OH248241   2.228   2.589   2.691 -0.0045  0.1161  0.1620
 8917TIP3    H148242   2.173   2.619   2.619  0.1566  0.3846  0.1478
 8917TIP3    H248243   2.232   2.663   2.750 -0.1875 -0.1269  0.4797
 8918TIP3   OH248244   4.928   5.196  17.092 -0.2609  0.5111  0.6931
 8918TIP3    H148245   4.973   5.115  17.115  1.4703  1.9734  2.9051
 8918TIP3    H248246   4.989   5.242  17.034 -0.5992  0.8783  0.6206
 8919TIP3   OH248247   5.033   0.738   0.152  0.0639  0.0356 -0.7140
 8919TIP3    H148248   5.072   0.661   0.192 -0.5471  0.6345  1.1793
 8919TIP3    H248249   5.092   0.762   0.081  1.8484 -0.4758  0.5234
 8920TIP3   OH248250   6.704   3.492   2.847 -0.1460  0.3442  0.0948
 8920TIP3    H148251   6.783   3.459   2.804 -0.2999  1.1358 -0.8272
 8920TIP3    H248252   6.684   3.426   2.913 -0.1226 -1.1382 -1.2949
 8921TIP3   OH248253   2.138   1.570  11.956  0.1823 -0.0101 -0.0351
 8921TIP3    H148254   2.155   1.642  11.894 -0.0625  0.4216  0.3970
 8921TIP3    H248255   2.223   1.555  11.998  0.0755  0.4903  0.3641
 8922TIP3   OH248256   1.643   3.432   2.441  0.2027 -0.6333  0.2477
 8922TIP3    H148257   1.641   3.394   2.353  0.5654 -1.9945  0.8017
 8922TIP3    H248258   1.656   3.357   2.499 -0.0361  0.2435  1.4691
 8923TIP3   OH248259   6.503   6.443  12.777 -0.3616 -0.0185 -0.2017
 8923TIP3    H148260   6.434   6.440  12.711  0.4203 -1.4183 -0.9960
 8923TIP3    H248261   6.542   6.355  12.776  0.8815  0.4832  0.8244
 8924TIP3   OH248262   5.363   0.554  11.869 -0.2128 -0.0297 -0.6436
 8924TIP3    H148263   5.405   0.474  11.899  0.2724  0.5981  0.4058
 8924TIP3    H248264   5.289   0.566  11.928  0.7256  1.1929  0.3609
 8925TIP3   OH248265   0.711   0.097   0.739  0.2009 -0.6965  0.2624
 8925TIP3    H148266   0.690   0.180   0.781 -2.6514 -0.8807 -0.6218
 8925TIP3    H248267   0.704   0.032   0.809  1.8690 -0.3442  0.8222
 8926TIP3   OH248268   6.206   3.871   1.375  0.3302 -0.0866  0.2163
 8926TIP3    H148269   6.112   3.858   1.384  0.4294 -1.7852 -0.8056
 8926TIP3    H248270   6.228   3.829   1.292  2.1474 -0.5692  0.9039
 8927TIP3   OH248271   4.329   6.501  13.665 -0.0269 -0.4891 -0.5160
 8927TIP3    H148272   4.320   6.587  13.707 -0.6723 -1.1679  0.8160
 8927TIP3    H248273   4.292   6.513  13.578 -2.4190  0.0281  0.4723
 8928TIP3   OH248274   4.897   2.886  12.810  0.7667 -0.2032  0.0328
 8928TIP3    H148275   4.833   2.939  12.761  1.0547  0.7745  0.6640
 8928TIP3    H248276   4.843   2.827  12.863  0.4221 -0.2404 -0.3541
 8929TIP3   OH248277   3.736   4.831   3.468 -0.0688  0.2859 -0.1832
 8929TIP3    H148278   3.724   4.871   3.553 -0.5116  1.3988 -0.7548
 8929TIP3    H248279   3.707   4.741   3.479  0.2591  0.3085  0.9373
 8930TIP3   OH248280   3.216   1.477   1.604 -0.3068  0.2245  0.0447
 8930TIP3    H148281   3.248   1.452   1.518 -1.7528  2.5425 -1.2557
 8930TIP3    H248282   3.295   1.491   1.656  0.5926 -2.9255 -0.2711
 8931TIP3   OH248283   2.845   5.736  12.383 -0.8700 -0.0577  0.3531
 8931TIP3    H148284   2.858   5.653  12.428 -2.3605 -0.2798  0.4355
 8931TIP3    H248285   2.932   5.775  12.378  0.1064 -2.2039 -0.8437
 8932TIP3   OH248286   3.164   2.431   1.168 -0.1618 -0.0939 -0.3618
 8932TIP3    H148287   3.160   2.498   1.236 -1.4968  0.3386 -0.8441
 8932TIP3    H248288   3.195   2.477   1.090 -0.5222 -0.1663 -0.5474
 8933TIP3   OH248289   2.782   3.420   5.712 -0.4387  0.4882  0.1804
 8933TIP3    H148290   2.699   3.372   5.717  0.8593 -2.1788 -1.4382
 8933TIP3    H248291   2.792   3.443   5.620  0.5247  0.9056  0.3720
 8934TIP3   OH248292   1.424   4.564   4.740 -0.1110 -0.6120 -0.2558
 8934TIP3    H148293   1.364   4.630   4.773  0.6122 -0.4459  0.7645
 8934TIP3    H248294   1.442   4.508   4.815  1.4541 -0.3188 -0.3779
 8935TIP3   OH248295   4.192   5.973  17.095 -0.2062  0.5983  0.3105
 8935TIP3    H148296   4.143   6.037  17.146 -2.5746 -1.5129  0.8770
 8935TIP3    H248297   4.141   5.963  17.014  0.1934 -0.4387  0.1756
 8936TIP3   OH248298   0.442   4.389  15.903  0.5142 -0.1073 -0.0694
 8936TIP3    H148299   0.358   4.396  15.950  0.7115  0.4363  0.2188
 8936TIP3    H248300   0.439   4.461  15.840  1.2594  0.6643  0.7527
 8937TIP3   OH248301   2.475   0.320  12.225 -0.3577  0.1486 -0.4854
 8937TIP3    H148302   2.467   0.406  12.185 -0.0366  0.7699  0.7519
 8937TIP3    H248303   2.569   0.300  12.220 -0.4421 -0.1789 -0.8452
 8938TIP3   OH248304   0.039   1.519   2.077 -0.7880 -0.0669 -0.0841
 8938TIP3    H148305   0.096   1.589   2.109 -1.8141  0.5419  0.4543
 8938TIP3    H248306   0.068   1.503   1.987  0.8074 -0.3918  0.4570
 8939TIP3   OH248307   5.471   5.302  12.528  0.4991  0.6341  0.1918
 8939TIP3    H148308   5.430   5.223  12.561  1.6634  0.2514  0.7704
 8939TIP3    H248309   5.476   5.360  12.603  1.3869  0.5150  0.2282
 8940TIP3   OH248310   1.831   4.933  11.384 -0.0354  0.3527  0.8576
 8940TIP3    H148311   1.911   4.987  11.384  1.5574 -1.8496  2.1492
 8940TIP3    H248312   1.767   4.987  11.431  0.9729  1.7771  0.6931
 8941TIP3   OH248313   6.678   2.938  15.955 -0.3053  0.3420 -0.2979
 8941TIP3    H148314   6.649   2.991  15.881 -2.7983  0.9408  0.9895
 8941TIP3    H248315   6.632   2.974  16.030  0.0296 -1.9431  1.1143
 8942TIP3   OH248316   0.572   6.280   4.100 -0.5207  0.4274 -0.1506
 8942TIP3    H148317   0.485   6.257   4.069 -0.2999 -0.5353 -0.0784
 8942TIP3    H248318   0.571   6.261   4.193  0.2448 -1.1316 -0.4313
 8943TIP3   OH248319   1.056   6.454  16.473 -0.0639  0.2958  0.0722
 8943TIP3    H148320   1.148   6.441  16.450 -0.2265 -0.9960  0.0931
 8943TIP3    H248321   1.020   6.365  16.480 -0.7947  0.7118  2.2338
 8944TIP3   OH248322   6.458   5.921   3.369 -0.1823  0.5895 -0.6121
 8944TIP3    H148323   6.381   5.902   3.422  1.0043  1.9457  1.7588
 8944TIP3    H248324   6.452   6.014   3.349  0.8998  0.7386 -0.2914
 8945TIP3   OH248325   1.406   5.529   0.623  0.1285  0.3540 -0.2789
 8945TIP3    H148326   1.411   5.550   0.716  1.3119  1.4025 -0.5591
 8945TIP3    H248327   1.449   5.444   0.615  1.2898  0.9053 -0.0536
 8946TIP3   OH248328   3.495   4.934  14.204  0.1290  0.0525 -0.2171
 8946TIP3    H148329   3.547   4.994  14.257  0.0712  0.5811 -0.7503
 8946TIP3    H248330   3.559   4.880  14.158  0.2211  0.7125 -0.8856
 8947TIP3   OH248331   2.067   1.257   3.472 -0.1580  0.0518 -0.1884
 8947TIP3    H148332   2.044   1.192   3.405  0.8696 -1.6787  1.0456
 8947TIP3    H248333   2.007   1.330   3.457 -1.6641 -1.3626 -1.3623
 8948TIP3   OH248334   5.448   4.918   3.576 -0.0061  0.1268  0.1389
 8948TIP3    H148335   5.492   4.842   3.537  0.1567 -1.6940  3.5156
 8948TIP3    H248336   5.360   4.886   3.598 -0.6930  1.6313 -0.2785
 8949TIP3   OH248337   4.182   3.282   6.398 -0.1889  0.0001 -0.0927
 8949TIP3    H148338   4.273   3.273   6.427  0.4682  0.5897 -1.8417
 8949TIP3    H248339   4.165   3.202   6.348 -0.0809  0.5778 -1.0896
 8950TIP3   OH248340   1.123   6.809   4.868 -0.0657  0.0038  0.3255
 8950TIP3    H148341   1.129   6.903   4.888  1.5098  0.1134 -0.4732
 8950TIP3    H248342   1.140   6.805   4.774 -0.3166 -1.0710  0.3232
 8951TIP3   OH248343   6.823   3.439   4.723  0.7293 -0.5629  0.5992
 8951TIP3    H148344   6.784   3.351   4.727  0.3632 -0.4614 -0.5880
 8951TIP3    H248345   6.760   3.491   4.673  1.3103  0.1908  0.6403
 8952TIP3   OH248346   3.276   5.607   2.481  0.8316 -0.0495 -0.0939
 8952TIP3    H148347   3.255   5.683   2.427  1.1942 -0.2656 -0.5445
 8952TIP3    H248348   3.222   5.536   2.445  1.4663 -0.3235 -0.5181
 8953TIP3   OH248349   2.393   0.174  16.844  0.1260 -0.0822 -0.2795
 8953TIP3    H148350   2.477   0.135  16.870  1.1274 -0.4394 -3.5533
 8953TIP3    H248351   2.405   0.268  16.857  0.4304 -0.2555  0.7762
 8954TIP3   OH248352   2.626   3.089   1.673 -0.7785  0.2617 -0.4662
 8954TIP3    H148353   2.663   3.038   1.602  1.4123 -0.8777  1.3823
 8954TIP3    H248354   2.696   3.148   1.700 -1.5361  0.6365  0.7877
 8955TIP3   OH248355   6.073   2.183  15.963  0.2409 -0.5696  0.0666
 8955TIP3    H148356   6.168   2.176  15.951  0.2657  1.4022 -1.2309
 8955TIP3    H248357   6.055   2.126  16.038  2.6136 -0.0992  1.1025
 8956TIP3   OH248358   2.793   1.168  14.072  0.7597  0.3299 -0.0224
 8956TIP3    H148359   2.719   1.209  14.117 -0.0542  0.6306 -1.5637
 8956TIP3    H248360   2.869   1.220  14.098  0.1297  1.2402  0.0355
 8957TIP3   OH248361   3.518   4.043  11.326 -0.1383  0.0345 -0.0872
 8957TIP3    H148362   3.525   4.057  11.232 -2.9987  2.8577 -0.0487
 8957TIP3    H248363   3.570   4.114  11.364  2.2236 -1.9189  0.6384
 8958TIP3   OH248364   2.491   2.573  11.237 -0.1122 -0.0443  0.1009
 8958TIP3    H148365   2.527   2.658  11.259 -0.9036  0.1647  0.6250
 8958TIP3    H248366   2.404   2.592  11.202 -0.1205 -0.6081 -0.1983
 8959TIP3   OH248367   0.492   6.143  15.435  0.0028 -0.1472  0.4737
 8959TIP3    H148368   0.504   6.236  15.454  1.0401 -0.5686  2.0535
 8959TIP3    H248369   0.513   6.134  15.342  1.5995  0.9234  0.7044
 8960TIP3   OH248370   5.402   1.271  10.771  0.7100 -0.0860  0.0720
 8960TIP3    H148371   5.322   1.284  10.721  1.0855 -0.1438 -0.5543
 8960TIP3    H248372   5.395   1.332  10.845  0.2556  0.1619 -0.1752
 8961TIP3   OH248373   6.556   0.886   3.586  0.3201  0.2215  0.1967
 8961TIP3    H148374   6.476   0.887   3.533  1.0529 -0.1089 -0.9335
 8961TIP3    H248375   6.547   0.808   3.641 -0.6182  0.7764  0.8560
 8962TIP3   OH248376   6.083   4.467   0.017 -0.2932  0.0917 -0.0511
 8962TIP3    H148377   6.146   4.396   0.032 -0.5477 -0.3350 -0.8839
 8962TIP3    H248378   6.009   4.446   0.075  0.6529  1.0520  1.5501
 8963TIP3   OH248379   2.972   2.154  12.435  0.0856 -0.1443 -0.2222
 8963TIP3    H148380   2.880   2.154  12.462 -1.0215 -0.7154 -3.5750
 8963TIP3    H248381   3.001   2.064  12.452 -0.5951 -0.5103 -0.9221
 8964TIP3   OH248382   2.944   4.994   5.574  0.2487 -0.2540  0.3398
 8964TIP3    H148383   2.932   5.088   5.590  1.6106 -0.3061  2.0714
 8964TIP3    H248384   3.002   4.966   5.645  3.8213 -1.4302 -2.7313
 8965TIP3   OH248385   0.592   6.134  14.809 -0.1018 -0.2836  0.5352
 8965TIP3    H148386   0.534   6.202  14.844 -1.0885 -0.8287  0.0251
 8965TIP3    H248387   0.571   6.131  14.716  1.1152 -0.1621  0.2442
 8966TIP3   OH248388   4.454   6.174   5.510  0.1162  0.2312  0.0632
 8966TIP3    H148389   4.469   6.269   5.501 -2.4759  0.9310  2.0548
 8966TIP3    H248390   4.367   6.160   5.472  0.2589 -1.2638  0.2481
 8967TIP3   OH248391   0.437   6.340   1.974 -0.2359 -0.1152 -0.2607
 8967TIP3    H148392   0.433   6.378   1.886 -0.9741 -1.0781 -0.6580
 8967TIP3    H248393   0.358   6.371   2.018 -0.2815 -0.2979 -0.2122
 8968TIP3   OH248394   6.748   3.488  11.216 -0.7535  0.5217  0.2306
 8968TIP3    H148395   6.820   3.482  11.278 -1.1747 -1.6889  0.5840
 8968TIP3    H248396   6.766   3.419  11.152 -2.0107  0.6318 -0.2612
 8969TIP3   OH248397   4.205   2.807  11.760  0.5452 -0.3013  0.2000
 8969TIP3    H148398   4.274   2.765  11.709 -0.3706  0.9845 -2.2390
 8969TIP3    H248399   4.198   2.895  11.724 -0.8836  0.3468  1.8894
 8970TIP3   OH248400   5.692   2.866   2.607 -0.5334 -0.1908  0.1763
 8970TIP3    H148401   5.685   2.959   2.582 -1.6114 -0.7041 -1.6440
 8970TIP3    H248402   5.617   2.851   2.665 -0.1194  0.1635  0.8102
 8971TIP3   OH248403   4.467   3.049  10.790  0.1817 -0.4348  0.4777
 8971TIP3    H148404   4.502   3.078  10.705  0.2505  0.0708  0.6780
 8971TIP3    H248405   4.380   3.016  10.770 -0.8391  2.0142  0.5707
 8972TIP3   OH248406   0.465   3.315  15.916  0.2284 -0.5172  0.0601
 8972TIP3    H148407   0.488   3.345  16.003  0.1981 -1.2282  0.3236
 8972TIP3    H248408   0.389   3.258  15.929  0.0803 -0.4447 -0.4533
 8973TIP3   OH248409   1.617   1.573   2.008  0.6520 -0.1185  0.1180
 8973TIP3    H148410   1.616   1.558   1.913  2.0098 -1.3130  0.2615
 8973TIP3    H248411   1.553   1.643   2.021  0.5023  0.1460 -1.6855
 8974TIP3   OH248412   6.337   2.113  15.898 -0.3879 -0.6520  0.5721
 8974TIP3    H148413   6.371   2.077  15.980 -1.2695  1.4655  1.9661
 8974TIP3    H248414   6.398   2.183  15.875 -1.3705  0.2823  0.7084
 8975TIP3   OH248415   2.336   6.761  11.365 -0.4898  0.0301 -0.5030
 8975TIP3    H148416   2.411   6.817  11.345  1.7947 -2.0460  1.5258
 8975TIP3    H248417   2.342   6.690  11.302  1.0125 -1.5423  1.2728
 8976TIP3   OH248418   6.390   4.516   1.265 -0.5235  0.9349  0.1571
 8976TIP3    H148419   6.440   4.462   1.326 -2.2619 -0.6164  0.3072
 8976TIP3    H248420   6.456   4.564   1.216  1.0825 -0.5285  0.7705
 8977TIP3   OH248421   6.228   1.786  11.287  0.2656  0.1169  0.1086
 8977TIP3    H148422   6.172   1.754  11.216 -1.4138  2.1970  0.4096
 8977TIP3    H248423   6.228   1.714  11.350 -2.1645  0.0375  0.1292
 8978TIP3   OH248424   5.113   0.147   2.014  0.1547  0.0094 -0.4988
 8978TIP3    H148425   5.076   0.185   1.935  2.2806 -0.5678 -1.8313
 8978TIP3    H248426   5.185   0.092   1.984  1.5903  0.4193  1.8741
 8979TIP3   OH248427   4.571   3.767  11.561  0.0667  0.2061  0.0685
 8979TIP3    H148428   4.510   3.693  11.562  0.7034 -0.3330 -0.2120
 8979TIP3    H248429   4.527   3.834  11.509 -0.1927 -0.2641 -0.3219
 8980TIP3   OH248430   1.719   6.760  11.434  0.1946 -0.2356  0.3156
 8980TIP3    H148431   1.701   6.701  11.507 -0.5909  0.4311  0.6753
 8980TIP3    H248432   1.712   6.704  11.357  4.2786 -1.7470  0.8165
 8981TIP3   OH248433   3.798   0.470  12.988  0.0856 -0.1754 -0.6725
 8981TIP3    H148434   3.891   0.490  12.999  0.0694 -0.3956 -0.0620
 8981TIP3    H248435   3.753   0.546  13.024  0.0167  0.4609 -2.0441
 8982TIP3   OH248436   2.851   0.363  12.819 -0.0812  0.5423  0.3972
 8982TIP3    H148437   2.857   0.289  12.879  1.9949  0.4375  0.1464
 8982TIP3    H248438   2.798   0.428  12.865 -2.4531 -1.2463  0.3943
 8983TIP3   OH248439   4.734   3.415  12.409  0.2218 -0.0734  0.1228
 8983TIP3    H148440   4.787   3.337  12.425  1.0870  0.1611 -1.4499
 8983TIP3    H248441   4.764   3.478  12.475 -2.5884 -1.9216  3.4746
 8984TIP3   OH248442   3.681   6.126   1.615  0.3584 -0.3007  0.2133
 8984TIP3    H148443   3.733   6.200   1.649 -1.5842  1.3052 -0.1417
 8984TIP3    H248444   3.668   6.069   1.691  0.7338  0.4298  0.8418
 8985TIP3   OH248445   0.711   2.601  15.412  0.3643 -0.3088  0.5212
 8985TIP3    H148446   0.667   2.577  15.493 -1.1230  1.7445  0.3897
 8985TIP3    H248447   0.794   2.638  15.440  0.0583 -0.0311  1.0688
 8986TIP3   OH248448   2.955   1.462   0.766  0.1055  0.2887  0.1603
 8986TIP3    H148449   2.936   1.534   0.707  2.0547  2.1889  1.6383
 8986TIP3    H248450   3.021   1.498   0.826  0.1215 -2.3062  1.8631
 8987TIP3   OH248451   4.710   0.612   1.924 -0.0681  0.1034 -0.7460
 8987TIP3    H148452   4.765   0.544   1.964 -1.5409  0.1935  1.5692
 8987TIP3    H248453   4.758   0.693   1.939 -0.2593  0.0475  0.1764
 8988TIP3   OH248454   5.426   6.152   4.199  0.7604 -1.1266 -0.4016
 8988TIP3    H148455   5.454   6.214   4.266  2.9025 -1.2387 -1.1300
 8988TIP3    H248456   5.331   6.164   4.193  0.9096  0.9001  0.6228
 8989TIP3   OH248457   0.142   3.483   2.363  0.0065  0.0151  0.2852
 8989TIP3    H148458   0.233   3.497   2.339 -0.0287  1.9014  1.1113
 8989TIP3    H248459   0.101   3.570   2.354 -2.1641 -1.0870 -1.8462
 8990TIP3   OH248460   3.676   4.748  12.133  0.5229 -0.9506 -0.3554
 8990TIP3    H148461   3.685   4.817  12.067  0.3640 -0.9087 -0.3314
 8990TIP3    H248462   3.600   4.698  12.106 -1.3394  0.7712  1.3277
 8991TIP3   OH248463   3.467   3.764  13.070  0.4683 -0.1624  0.7366
 8991TIP3    H148464   3.409   3.746  12.996  2.6574  1.8680 -1.6812
 8991TIP3    H248465   3.490   3.678  13.105  0.1692 -1.2959 -1.6830
 8992TIP3   OH248466   0.211   1.068  15.126  0.0288 -0.4823  0.2350
 8992TIP3    H148467   0.173   1.029  15.205  0.8549 -1.6611  0.0726
 8992TIP3    H248468   0.264   1.141  15.158 -1.0139  0.1358  0.6024
 8993TIP3   OH248469   1.341   1.634  11.932  0.3830 -0.2864  0.2906
 8993TIP3    H148470   1.411   1.696  11.952  0.1103 -0.3644  1.6019
 8993TIP3    H248471   1.272   1.655  11.995 -0.9836  0.0923 -1.2692
 8994TIP3   OH248472   2.687   5.446  15.618  0.0028  0.0703  0.0473
 8994TIP3    H148473   2.601   5.443  15.575  0.6670 -0.7442 -1.3027
 8994TIP3    H248474   2.743   5.490  15.554  1.5119 -3.0244 -0.9527
 8995TIP3   OH248475   5.541   3.819  15.798 -0.1664  0.3745  0.2020
 8995TIP3    H148476   5.541   3.792  15.706  1.1766 -2.5819  0.9493
 8995TIP3    H248477   5.623   3.867  15.809 -0.1661  0.4336 -0.0559
 8996TIP3   OH248478   4.136   1.259   6.340  0.1233  0.2790  0.3356
 8996TIP3    H148479   4.099   1.171   6.332 -0.9651  0.8736 -1.9104
 8996TIP3    H248480   4.095   1.294   6.419 -1.0035 -0.5306  0.1459
 8997TIP3   OH248481   1.063   1.855  11.650 -0.4501  0.1594  0.0926
 8997TIP3    H148482   1.001   1.782  11.642  0.5849 -0.7697  0.2809
 8997TIP3    H248483   1.147   1.813  11.669  0.1938  1.4054  0.1000
 8998TIP3   OH248484   0.331   1.723  16.321 -0.3688  0.5300 -0.1432
 8998TIP3    H148485   0.423   1.701  16.305 -0.4526 -0.1011  0.2106
 8998TIP3    H248486   0.332   1.775  16.401 -0.3650  0.1149  0.1274
 8999TIP3   OH248487   5.960   0.789  16.840  0.8644  0.4008 -0.5371
 8999TIP3    H148488   6.055   0.787  16.838  0.8409 -0.5907 -2.0354
 8999TIP3    H248489   5.933   0.745  16.760 -0.8578  1.2497 -0.4691
 9000TIP3   OH248490   5.453   0.480  15.575 -0.2362 -0.9532 -0.3757
 9000TIP3    H148491   5.421   0.564  15.541  2.4285  0.4563  0.2306
 9000TIP3    H248492   5.473   0.428  15.498 -0.2667 -0.3209 -0.8136
 9001TIP3   OH248493   1.869   0.852  14.978  0.2276  0.3424  0.5139
 9001TIP3    H148494   1.850   0.859  14.884 -1.9436  0.2348  0.8827
 9001TIP3    H248495   1.871   0.758  14.995  1.2873  0.3501  0.4756
 9002TIP3   OH248496   0.466   5.727   5.883 -0.6094  0.0974 -0.0517
 9002TIP3    H148497   0.518   5.787   5.828  0.0037  0.5319  0.9708
 9002TIP3    H248498   0.421   5.671   5.821  1.5315 -0.6764 -1.0065
 9003TIP3   OH248499   6.489   1.052   2.740 -1.0331 -0.9844  0.1331
 9003TIP3    H148500   6.486   1.103   2.659 -2.2879 -0.4085  0.5184
 9003TIP3    H248501   6.559   1.093   2.791  2.0594 -3.3375 -1.8585
 9004TIP3   OH248502   1.740   2.301   0.686 -0.0786  0.4361 -0.3148
 9004TIP3    H148503   1.718   2.335   0.773  1.8654  0.4754  0.1953
 9004TIP3    H248504   1.677   2.344   0.628  0.4284  2.6927  0.6838
 9005TIP3   OH248505   5.431   3.240  17.224  0.8060 -0.0282 -0.1873
 9005TIP3    H148506   5.358   3.295  17.254  2.0320  0.9259  1.1649
 9005TIP3    H248507   5.492   3.301  17.184  0.6620 -0.8934 -1.8133
 9006TIP3   OH248508   0.468   1.571   0.880  0.3394  0.2829 -0.0303
 9006TIP3    H148509   0.451   1.479   0.900  2.2536 -0.5207 -1.6761
 9006TIP3    H248510   0.490   1.571   0.787 -0.8695  2.6310 -0.3923
 9007TIP3   OH248511   0.208   3.746  15.155 -0.2972 -0.0356 -0.1947
 9007TIP3    H148512   0.244   3.833  15.174 -0.7285  0.8090 -2.8078
 9007TIP3    H248513   0.196   3.746  15.060 -3.3878 -1.7597  0.0877
 9008TIP3   OH248514   4.271   5.073  12.609 -0.2427 -0.1676 -0.1399
 9008TIP3    H148515   4.186   5.038  12.637  0.2461 -0.1935  1.4259
 9008TIP3    H248516   4.260   5.091  12.516 -1.2906 -2.1863 -0.4716
 9009TIP3   OH248517   4.505   3.688  12.077 -0.7000  0.6118  0.3422
 9009TIP3    H148518   4.542   3.716  11.993 -0.3162 -1.7306 -0.3582
 9009TIP3    H248519   4.576   3.698  12.140 -0.8479  1.9505  0.3184
 9010TIP3   OH248520   4.816   4.605   0.874  0.3529  0.4728 -0.0808
 9010TIP3    H148521   4.851   4.598   0.963  0.5036  0.9097 -0.1026
 9010TIP3    H248522   4.892   4.594   0.817 -0.0206 -1.8218 -0.2314
 9011TIP3   OH248523   0.227   5.220  11.555 -0.1433  0.2847  0.7736
 9011TIP3    H148524   0.145   5.253  11.518 -0.0133 -0.3906 -0.1453
 9011TIP3    H248525   0.209   5.128  11.574  0.9246 -0.3536 -1.1057
 9012TIP3   OH248526   2.668   5.318  11.674 -0.0881 -0.8232  0.4114
 9012TIP3    H148527   2.582   5.319  11.716 -0.8002 -0.7234 -0.9817
 9012TIP3    H248528   2.655   5.365  11.591  1.3323 -0.7317  0.2079
 9013TIP3   OH248529   2.792   5.397  14.645  0.1828  0.4495  0.4645
 9013TIP3    H148530   2.851   5.469  14.666  2.1809 -1.0264  0.1600
 9013TIP3    H248531   2.846   5.333  14.599 -0.8578 -2.3056  2.7462
 9014TIP3   OH248532   3.219   0.247   4.254 -0.4259 -0.3578 -0.0094
 9014TIP3    H148533   3.183   0.229   4.167  0.0748  0.0210 -0.2986
 9014TIP3    H248534   3.145   0.235   4.313 -0.1005 -3.7636 -0.0851
 9015TIP3   OH248535   4.271   1.826   1.447 -0.0274  0.2497 -0.5139
 9015TIP3    H148536   4.317   1.889   1.502  0.7691 -0.2383 -0.5953
 9015TIP3    H248537   4.187   1.813   1.491  0.6257 -0.1996  0.6701
 9016TIP3   OH248538   1.141   5.243   0.194 -0.1537 -0.1086  0.1849
 9016TIP3    H148539   1.075   5.269   0.130 -1.1563 -0.5985  0.9942
 9016TIP3    H248540   1.121   5.294   0.272  1.5353  1.0675 -0.0790
 9017TIP3   OH248541   3.007   4.638  15.221 -0.4675 -0.0786  0.1503
 9017TIP3    H148542   3.037   4.618  15.310 -0.2722 -1.8370 -0.2897
 9017TIP3    H248543   2.963   4.558  15.192 -0.8663  0.6136 -1.2063
 9018TIP3   OH248544   0.317   0.664  15.192  0.1268 -0.1650  0.1576
 9018TIP3    H148545   0.375   0.707  15.130  1.4255  0.7176  1.8769
 9018TIP3    H248546   0.313   0.725  15.266 -0.0499 -1.8520  1.5938
 9019TIP3   OH248547   1.108   5.291   0.464  0.2626  0.1082 -0.0588
 9019TIP3    H148548   1.113   5.372   0.514  0.6297  0.4687 -0.6547
 9019TIP3    H248549   1.188   5.244   0.488 -0.6388 -0.7379  1.3650
 9020TIP3   OH248550   0.842   4.343  14.904 -0.2178 -0.0804  0.3129
 9020TIP3    H148551   0.892   4.298  14.836 -1.7622 -0.1327 -0.8530
 9020TIP3    H248552   0.788   4.275  14.943 -0.4816  0.2330  0.5021
 9021TIP3   OH248553   1.005   3.701   1.056 -0.1791  0.5438  0.2151
 9021TIP3    H148554   1.006   3.715   1.150 -0.7376 -1.6752  0.6186
 9021TIP3    H248555   1.096   3.679   1.033 -0.1407  0.6094  0.3056
 9022TIP3   OH248556   1.852   3.703  11.414 -0.5307  0.5139  0.2972
 9022TIP3    H148557   1.804   3.751  11.346  0.6297  0.4645 -0.5794
 9022TIP3    H248558   1.907   3.770  11.455 -0.6131  0.3741  0.6413
 9023TIP3   OH248559   1.678   1.054  14.585  0.1099 -0.0169  0.5865
 9023TIP3    H148560   1.683   1.007  14.502  1.0687  1.0406  0.0247
 9023TIP3    H248561   1.724   1.136  14.569 -1.9717  1.3784  1.3726
 9024TIP3   OH248562   5.790   4.408  16.710  0.0850  0.1860  0.8672
 9024TIP3    H148563   5.851   4.400  16.783  0.3445  1.7275  0.8535
 9024TIP3    H248564   5.770   4.318  16.686  2.8960 -0.4239  0.4318
 9025TIP3   OH248565   0.789   3.487  16.298 -0.2885 -0.0744  0.7437
 9025TIP3    H148566   0.828   3.527  16.376  0.5438 -0.8078  0.7161
 9025TIP3    H248567   0.823   3.538  16.225  0.7079 -0.7632  0.7135
 9026TIP3   OH248568   2.804   0.047  11.229  0.2436 -0.5197  0.0151
 9026TIP3    H148569   2.822  -0.025  11.169  1.2307  0.2629 -0.6731
 9026TIP3    H248570   2.890   0.087  11.245 -0.3532  0.8770 -0.1088
 9027TIP3   OH248571   4.412   3.360   6.138  0.0497  0.0846 -0.2262
 9027TIP3    H148572   4.406   3.264   6.143  0.3242  0.0632 -0.2883
 9027TIP3    H248573   4.479   3.383   6.202  0.2420  0.2032 -0.4694
 9028TIP3   OH248574   3.125   1.326   5.950 -0.0968  0.4130 -0.4297
 9028TIP3    H148575   3.205   1.273   5.954  0.6790  1.2775 -2.8312
 9028TIP3    H248576   3.149   1.408   5.994 -0.5142 -0.2456  1.0902
 9029TIP3   OH248577   1.004   0.906  17.245 -0.1889 -0.0253 -0.1303
 9029TIP3    H148578   0.980   0.998  17.253  1.1470  0.1622  2.9315
 9029TIP3    H248579   1.093   0.907  17.208 -0.3226 -0.1374 -0.4648
 9030TIP3   OH248580   0.266   6.180  16.490 -0.0135  0.1252  0.2087
 9030TIP3    H148581   0.281   6.092  16.524 -0.0318  0.1541  0.2906
 9030TIP3    H248582   0.257   6.235  16.568  1.1170  0.3912  0.1660
 9031TIP3   OH248583   2.486   3.627   4.048  0.1659  0.7394 -0.4028
 9031TIP3    H148584   2.524   3.560   4.105 -0.0001  0.1679 -0.9503
 9031TIP3    H248585   2.520   3.606   3.961 -3.6846 -1.7320 -1.5848
 9032TIP3   OH248586   5.480   2.026  14.834 -0.0548 -0.5003  0.4353
 9032TIP3    H148587   5.523   2.044  14.751  0.7641 -1.3400  0.6551
 9032TIP3    H248588   5.464   1.931  14.833  0.1091 -0.5488  1.2932
 9033TIP3   OH248589   0.948   3.474  14.202  0.0117  0.3939  0.2427
 9033TIP3    H148590   1.038   3.461  14.173  0.3565  1.5034  0.7686
 9033TIP3    H248591   0.898   3.482  14.121  0.2809 -0.7671 -0.0605
 9034TIP3   OH248592   3.722   1.712  13.841  0.3959  0.0997 -0.8156
 9034TIP3    H148593   3.671   1.788  13.814 -1.0790  0.4339  2.4093
 9034TIP3    H248594   3.725   1.718  13.937  2.7499 -2.3545 -0.6063
 9035TIP3   OH248595   2.928   1.582  14.211 -0.0087  0.1520  0.1332
 9035TIP3    H148596   2.928   1.530  14.130  1.6437 -0.1257  0.2821
 9035TIP3    H248597   2.980   1.659  14.189  0.2483  0.1907  0.8661
 9036TIP3   OH248598   3.231   1.984  16.262  0.3070  0.5225  0.3220
 9036TIP3    H148599   3.211   1.894  16.235  0.1684  0.3081  1.0875
 9036TIP3    H248600   3.324   1.983  16.283  0.6495  0.9498 -1.0965
 9037TIP3   OH248601   6.234   0.822  16.793 -0.1413  0.2781 -0.2391
 9037TIP3    H148602   6.306   0.811  16.855 -0.3554 -1.9540 -0.3153
 9037TIP3    H248603   6.276   0.849  16.711  0.5526 -0.5166 -0.1494
 9038TIP3   OH248604   1.786   0.834  14.710 -0.6451 -0.4147 -0.3713
 9038TIP3    H148605   1.744   0.901  14.657  0.2940  0.4351 -0.0795
 9038TIP3    H248606   1.728   0.758  14.705 -1.0501 -0.0237 -1.8129
 9039TIP3   OH248607   5.644   3.597   3.925  0.0191 -0.4935  0.1583
 9039TIP3    H148608   5.737   3.578   3.935  0.5948  0.9166 -1.7892
 9039TIP3    H248609   5.605   3.516   3.894  1.2642 -0.2984 -2.1585
 9040TIP3   OH248610   2.314   3.416   2.124 -0.4884 -0.1929  0.8557
 9040TIP3    H148611   2.321   3.512   2.123  1.0560 -0.2706 -0.3586
 9040TIP3    H248612   2.271   3.395   2.041  1.8966 -0.6409 -0.3527
 9041TIP3   OH248613   1.178   4.041   1.244 -0.0019  0.6016  0.4037
 9041TIP3    H148614   1.226   3.969   1.204 -0.2402  0.8831 -0.4028
 9041TIP3    H248615   1.233   4.068   1.318  0.8438  0.5952 -0.2075
 9042TIP3   OH248616   0.708   2.659   4.650  0.0152  0.5671  0.0605
 9042TIP3    H148617   0.785   2.602   4.644  0.1792  0.8686 -0.9583
 9042TIP3    H248618   0.636   2.601   4.672  0.4872  0.2451  0.7986
 9043TIP3   OH248619   1.375   2.688  15.287  0.2725 -0.2770 -0.4008
 9043TIP3    H148620   1.384   2.769  15.337 -0.0946  0.6347 -1.7603
 9043TIP3    H248621   1.341   2.716  15.202  2.4965 -1.5659 -1.7882
 9044TIP3   OH248622   4.498   2.376  13.869  0.3127  0.4358  0.1320
 9044TIP3    H148623   4.431   2.343  13.929  0.7102  0.6052  0.6821
 9044TIP3    H248624   4.473   2.341  13.783  0.1126 -0.3734  0.5089
 9045TIP3   OH248625   4.521   0.106   6.081 -0.0033  0.0127 -0.8274
 9045TIP3    H148626   4.604   0.153   6.092  0.3942 -0.9412  0.5465
 9045TIP3    H248627   4.457   0.174   6.064  0.4905  1.1420  1.4591
 9046TIP3   OH248628   1.830   6.781   4.609 -1.3677 -0.3514 -0.1405
 9046TIP3    H148629   1.906   6.797   4.553 -0.9782 -3.2561 -0.6120
 9046TIP3    H248630   1.755   6.790   4.550 -1.1051 -1.2708 -0.6252
 9047TIP3   OH248631   6.269   0.478   0.337 -0.2288 -0.2235  0.0961
 9047TIP3    H148632   6.352   0.510   0.303  0.2909 -0.2304  1.3024
 9047TIP3    H248633   6.263   0.387   0.306  0.9283 -0.7042  1.1866
 9048TIP3   OH248634   0.281   0.334   2.676 -0.5809  0.3073 -0.1831
 9048TIP3    H148635   0.370   0.369   2.684 -0.4573 -0.3578  2.3322
 9048TIP3    H248636   0.224   0.409   2.696 -0.5344  0.4273 -0.5015
 9049TIP3   OH248637   4.874   1.112   0.111  0.2661 -0.4751 -0.2679
 9049TIP3    H148638   4.880   1.018   0.129 -0.3580 -0.2531  1.2398
 9049TIP3    H248639   4.788   1.123   0.070  0.4345 -0.5781 -0.6584
 9050TIP3   OH248640   4.509   0.541   2.179 -0.3817 -0.0870 -0.2703
 9050TIP3    H148641   4.541   0.453   2.158  0.7213  0.5210 -1.2010
 9050TIP3    H248642   4.571   0.601   2.137 -0.9690  1.1523  0.5614
 9051TIP3   OH248643   6.097   2.174   2.354  0.4739  0.6492  0.7201
 9051TIP3    H148644   6.158   2.246   2.335  0.0350  0.9607  0.4787
 9051TIP3    H248645   6.143   2.120   2.419  1.8776 -0.2468 -0.9463
 9052TIP3   OH248646   6.273   5.023   0.281  0.0592  0.3207 -0.0020
 9052TIP3    H148647   6.344   5.078   0.314  1.9365 -1.7548 -0.3541
 9052TIP3    H248648   6.266   4.952   0.345 -0.2880 -0.5715 -0.9953
 9053TIP3   OH248649   5.488   1.117   0.806  0.7673 -0.0149 -0.2068
 9053TIP3    H148650   5.492   1.075   0.891 -1.5047 -0.3392 -0.2008
 9053TIP3    H248651   5.468   1.046   0.745 -1.3307  0.7340 -0.4493
 9054TIP3   OH248652   3.815   0.105   3.408  0.2555 -0.4179  0.1270
 9054TIP3    H148653   3.892   0.050   3.392  1.8357  1.6578  0.2236
 9054TIP3    H248654   3.755   0.049   3.458  1.8274 -1.9934  0.3229
 9055TIP3   OH248655   3.465   3.902   4.906  0.0580  0.0773 -0.2374
 9055TIP3    H148656   3.497   3.814   4.927 -0.1553  0.2851  1.0413
 9055TIP3    H248657   3.482   3.912   4.813 -0.4419 -1.5495 -0.5351
 9056TIP3   OH248658   5.029   6.391  14.250 -0.0737  0.1473  0.1446
 9056TIP3    H148659   4.939   6.365  14.272 -0.0902 -0.6211 -0.7372
 9056TIP3    H248660   5.084   6.344  14.312 -0.2351 -0.1167  0.0898
 9057TIP3   OH248661   6.066   6.418   1.816 -0.7130  0.0814 -0.0563
 9057TIP3    H148662   6.006   6.490   1.800  1.3907  1.9914  0.0372
 9057TIP3    H248663   6.073   6.412   1.911  2.1186  2.6380  0.0571
 9058TIP3   OH248664   6.743   0.238  12.932 -0.1537  0.1446  0.0072
 9058TIP3    H148665   6.766   0.211  12.843  0.8672 -0.2154  0.3678
 9058TIP3    H248666   6.675   0.304  12.920 -0.7579 -0.6333 -0.9982
 9059TIP3   OH248667   3.652   5.892  12.992 -0.1668 -0.0894 -0.2128
 9059TIP3    H148668   3.701   5.949  12.932  1.7129 -1.2822  0.1067
 9059TIP3    H248669   3.663   5.932  13.078  0.0044 -0.1896 -0.1869
 9060TIP3   OH248670   2.879   3.060   3.803  0.5737  0.8119  0.1877
 9060TIP3    H148671   2.952   3.047   3.742 -0.8200  0.2384 -1.4650
 9060TIP3    H248672   2.879   2.981   3.857  1.0003  0.6861  0.0118
 9061TIP3   OH248673   6.417   4.567  14.071 -0.5376 -0.8834  0.2763
 9061TIP3    H148674   6.335   4.529  14.101 -0.9891 -0.2653 -0.1737
 9061TIP3    H248675   6.426   4.648  14.123 -0.6959 -0.4598 -0.3435
 9062TIP3   OH248676   4.120   0.865   2.458  1.1242  0.7374 -0.0980
 9062TIP3    H148677   4.077   0.795   2.410  0.5526  0.0032  1.3984
 9062TIP3    H248678   4.197   0.824   2.498  0.2135  0.6449  1.6508
 9063TIP3   OH248679   6.687   1.877   5.426  0.6010  0.2945  0.1325
 9063TIP3    H148680   6.605   1.900   5.469  0.3947  1.9738 -1.0862
 9063TIP3    H248681   6.669   1.793   5.383 -1.1839  1.5844 -1.8241
 9064TIP3   OH248682   2.072   6.104  12.343  0.2248 -0.0340  0.4430
 9064TIP3    H148683   2.090   6.148  12.260 -0.8752 -1.7756 -0.7896
 9064TIP3    H248684   2.153   6.058  12.364  0.0192 -0.9342 -0.5981
 9065TIP3   OH248685   5.293   1.561   1.711 -0.1672 -0.1090 -0.3927
 9065TIP3    H148686   5.303   1.524   1.623 -0.1907  0.0062 -0.4434
 9065TIP3    H248687   5.247   1.493   1.760  0.0035 -0.2466 -0.4215
 9066TIP3   OH248688   1.107   0.926  16.864  0.3055  0.0151 -0.0860
 9066TIP3    H148689   1.054   0.946  16.942  2.7348  4.4530  0.7788
 9066TIP3    H248690   1.052   0.952  16.790 -0.5624 -0.4329  0.3828
 9067TIP3   OH248691   5.395   3.881  13.397 -0.1020  0.6182  0.0657
 9067TIP3    H148692   5.371   3.794  13.365 -0.0811  1.0119 -1.0804
 9067TIP3    H248693   5.337   3.897  13.471  1.2478 -1.1673  1.5788
 9068TIP3   OH248694   3.082   0.741  11.066 -0.6141 -0.0374  0.2539
 9068TIP3    H148695   3.128   0.688  11.001  1.2856  0.0640  1.4393
 9068TIP3    H248696   3.079   0.686  11.144 -0.6876  0.7426  0.8107
 9069TIP3   OH248697   1.719   1.597   6.615 -0.2628  0.3656 -0.3834
 9069TIP3    H148698   1.733   1.511   6.655 -0.2044  1.0273  1.1026
 9069TIP3    H248699   1.770   1.595   6.535 -1.6117 -1.5870 -1.2774
 9070TIP3   OH248700   2.019   5.167  14.161  0.3328 -0.6940  0.3995
 9070TIP3    H148701   2.088   5.231  14.144 -0.6988  0.4259  0.2875
 9070TIP3    H248702   2.065   5.082  14.162  1.5195 -0.1131 -0.8264
 9071TIP3   OH248703   1.553   5.947   0.629  0.1081 -0.0373  0.4856
 9071TIP3    H148704   1.596   5.995   0.700  0.4913 -0.5698  0.6186
 9071TIP3    H248705   1.609   5.871   0.614  0.2694  0.2953 -0.6937
 9072TIP3   OH248706   1.200   6.283  14.498  0.2975 -0.0546 -0.2001
 9072TIP3    H148707   1.157   6.349  14.444 -0.4275 -0.1447  0.2591
 9072TIP3    H248708   1.244   6.225  14.435  0.5833  0.6154 -0.6238
 9073TIP3   OH248709   1.819   1.741  14.390  0.1811  0.2410  0.1851
 9073TIP3    H148710   1.741   1.698  14.426  0.5706 -1.0644 -0.4493
 9073TIP3    H248711   1.793   1.770  14.303  0.1960  0.4498  0.2498
 9074TIP3   OH248712   0.927   4.843  14.476  0.0299  0.1957 -0.6389
 9074TIP3    H148713   0.998   4.780  14.465 -1.1780 -1.5883  1.0464
 9074TIP3    H248714   0.854   4.806  14.427 -0.7959  0.0412  0.6512
 9075TIP3   OH248715   1.051   1.967  13.354 -0.0262 -0.1930 -0.4166
 9075TIP3    H148716   1.034   2.039  13.294 -0.1899  0.8469  0.8404
 9075TIP3    H248717   0.973   1.912  13.348  0.1384 -0.3354 -1.4497
 9076TIP3   OH248718   3.497   5.187   1.541 -0.1711 -0.8585  0.1516
 9076TIP3    H148719   3.572   5.180   1.482  0.1039 -0.6421  0.4707
 9076TIP3    H248720   3.476   5.097   1.563 -1.3921 -1.0725 -1.6465
 9077TIP3   OH248721   4.159   4.701   3.944 -0.6646  0.0130  0.4826
 9077TIP3    H148722   4.178   4.608   3.937 -2.3392 -0.4458  1.4833
 9077TIP3    H248723   4.093   4.718   3.876  0.7801  0.8517 -0.7691
 9078TIP3   OH248724   1.857   4.415   4.216 -0.0308  0.3307 -0.5608
 9078TIP3    H148725   1.855   4.501   4.175  0.0396 -0.0378 -1.3573
 9078TIP3    H248726   1.929   4.369   4.173 -0.5173 -0.3664 -0.6521
 9079TIP3   OH248727   2.523   5.421  13.273 -0.5183 -0.2710 -0.1554
 9079TIP3    H148728   2.520   5.346  13.333  3.1665 -1.1670 -0.8712
 9079TIP3    H248729   2.611   5.456  13.283 -1.3624  2.5653 -1.6092
 9080TIP3   OH248730   3.416   2.393   0.013  0.7113 -0.8603 -0.4536
 9080TIP3    H148731   3.454   2.335   0.079  3.2254  1.9119  0.7348
 9080TIP3    H248732   3.453   2.362  -0.070  1.0565 -1.6683 -0.0068
 9081TIP3   OH248733   3.249   2.035   3.437  0.1662 -0.2141 -0.0136
 9081TIP3    H148734   3.301   2.100   3.390 -0.5405 -1.0817 -2.1765
 9081TIP3    H248735   3.313   1.983   3.486  0.9529  0.7503  0.0124
 9082TIP3   OH248736   4.930   5.551  16.780  0.5918  0.6853 -0.0200
 9082TIP3    H148737   4.849   5.536  16.731 -0.0714  1.3443  0.8371
 9082TIP3    H248738   4.988   5.593  16.717  0.0411  0.7763 -0.4831
 9083TIP3   OH248739   6.666   3.814  13.914  0.2200 -0.4010  0.5218
 9083TIP3    H148740   6.610   3.806  13.991 -0.5967 -0.3111 -0.0499
 9083TIP3    H248741   6.735   3.874  13.940  0.7311 -1.4207  1.6226
 9084TIP3   OH248742   2.567   6.761   3.137 -0.1165 -0.0072 -0.0744
 9084TIP3    H148743   2.510   6.808   3.076  0.6223  0.1978 -0.6220
 9084TIP3    H248744   2.545   6.796   3.223 -1.2936 -0.4136 -0.1866
 9085TIP3   OH248745   6.547   0.886   5.787 -0.4844  0.2132  0.2597
 9085TIP3    H148746   6.461   0.928   5.794 -0.7354 -0.0963 -0.7282
 9085TIP3    H248747   6.536   0.819   5.719  1.0065  1.4537 -1.3265
 9086TIP3   OH248748   5.994   0.574   2.110 -0.4262 -0.1127  0.1729
 9086TIP3    H148749   5.963   0.657   2.145 -0.5839 -0.1634  0.1551
 9086TIP3    H248750   5.995   0.587   2.015  0.7442  0.2860  0.2208
 9087TIP3   OH248751   5.351   6.139   5.897  0.2283  0.0280  0.2537
 9087TIP3    H148752   5.283   6.078   5.867 -0.6754  0.6192  1.0763
 9087TIP3    H248753   5.427   6.119   5.841 -0.5739 -0.7184 -0.5968
 9088TIP3   OH248754   1.480   0.558   0.531  0.7039 -0.0163  0.4267
 9088TIP3    H148755   1.527   0.627   0.485 -2.0113  0.3522 -2.1253
 9088TIP3    H248756   1.515   0.476   0.494  0.4974  0.1946 -0.2584
 9089TIP3   OH248757   2.716   1.953  17.072 -0.3670 -0.7157 -0.2333
 9089TIP3    H148758   2.810   1.946  17.083 -0.0207  2.3314 -0.5513
 9089TIP3    H248759   2.679   1.905  17.146  1.4464 -0.8385  0.6434
 9090TIP3   OH248760   4.996   2.042  16.301 -0.5334 -0.1325 -0.3952
 9090TIP3    H148761   5.000   1.953  16.336 -1.3370  0.5389  1.5904
 9090TIP3    H248762   5.059   2.091  16.353 -1.2932  0.7813 -0.3041
 9091TIP3   OH248763   5.779   6.536  12.375  0.0183 -0.3087 -0.3085
 9091TIP3    H148764   5.725   6.608  12.342 -1.5662 -1.1088  0.4283
 9091TIP3    H248765   5.739   6.457  12.337  1.2772 -0.8640 -0.5212
 9092TIP3   OH248766   0.719   2.509   0.925  0.1019 -0.1225  0.0780
 9092TIP3    H148767   0.811   2.533   0.913  0.6060 -0.9024  1.9213
 9092TIP3    H248768   0.677   2.532   0.842  1.6045  1.8208 -0.2262
 9093TIP3   OH248769   0.824   4.310  12.198  0.2456  0.0590 -0.0839
 9093TIP3    H148770   0.781   4.293  12.114 -0.7515  0.2199  0.3710
 9093TIP3    H248771   0.786   4.393  12.228  1.8663  0.9073 -0.2722
 9094TIP3   OH248772   4.126   5.942  13.457  0.7532  0.8437  0.0324
 9094TIP3    H148773   4.047   5.920  13.407  1.6776  2.0303 -2.0799
 9094TIP3    H248774   4.167   5.857  13.474 -0.8866  0.2100  1.0981
 9095TIP3   OH248775   4.380   0.760   3.946 -0.0469 -0.5735 -0.2385
 9095TIP3    H148776   4.475   0.773   3.947 -0.2862  1.6256 -0.7799
 9095TIP3    H248777   4.355   0.762   4.038 -0.0723  4.4718 -0.0650
 9096TIP3   OH248778   2.485   4.227  14.235 -0.3247  0.0245 -0.2184
 9096TIP3    H148779   2.453   4.137  14.226 -0.1685 -0.0860  0.2963
 9096TIP3    H248780   2.417   4.272  14.286  0.4404 -0.2842  1.1222
 9097TIP3   OH248781   5.994   5.672   4.667 -0.0462  0.1504 -0.0947
 9097TIP3    H148782   5.995   5.634   4.755  1.8577  0.0704 -0.1139
 9097TIP3    H248783   6.074   5.724   4.662  0.0187 -0.0636 -1.8671
 9098TIP3   OH248784   1.511   1.938  13.580 -0.3338  0.4295 -0.3628
 9098TIP3    H148785   1.519   1.865  13.518 -0.1080 -0.3316  0.5503
 9098TIP3    H248786   1.437   1.989  13.547 -1.1811 -0.7923 -0.4326
 9099TIP3   OH248787   1.597   5.844   2.057 -0.2492  0.1521  0.1799
 9099TIP3    H148788   1.658   5.904   2.100 -1.4854  0.3467  1.7718
 9099TIP3    H248789   1.551   5.899   1.993  0.8225  0.1321 -0.6282
 9100TIP3   OH248790   4.087   0.420  16.651 -0.4199 -0.5498 -0.4832
 9100TIP3    H148791   4.173   0.378  16.663 -0.8251 -1.3212 -0.2155
 9100TIP3    H248792   4.093   0.501  16.702 -0.3910 -1.3715  0.8547
 9101TIP3   OH248793   5.460   3.205  15.380  0.9451 -0.2773 -0.4114
 9101TIP3    H148794   5.518   3.280  15.391  3.1460 -2.0144  0.6114
 9101TIP3    H248795   5.387   3.221  15.440  2.2273  0.2951  1.0567
 9102TIP3   OH248796   0.061   0.925   4.933  0.1458  0.1982  0.1517
 9102TIP3    H148797   0.149   0.939   4.898  0.6090  0.0919  1.2409
 9102TIP3    H248798   0.047   0.998   4.994 -0.6988  0.4543 -0.3198
 9103TIP3   OH248799   6.469   0.002   4.383  0.1096  0.2220  0.0567
 9103TIP3    H148800   6.439   0.084   4.422  1.3677  1.0083 -0.5448
 9103TIP3    H248801   6.469  -0.061   4.456  0.0730  1.0142  0.7559
 9104TIP3   OH248802   0.820   3.639   1.683  0.5528  0.5623  0.1152
 9104TIP3    H148803   0.879   3.685   1.623 -0.9845 -0.0131 -1.9899
 9104TIP3    H248804   0.815   3.550   1.648  0.5823 -0.1871  1.9151
 9105TIP3   OH248805   4.091   5.763   3.180 -0.1925  0.2945 -0.1323
 9105TIP3    H148806   4.003   5.730   3.197 -0.0550 -0.1462 -0.2783
 9105TIP3    H248807   4.114   5.729   3.094  0.4945 -0.3778  0.3023
 9106TIP3   OH248808   5.305   0.357  14.060 -0.0485 -0.9122  0.7908
 9106TIP3    H148809   5.309   0.430  14.122 -0.6330  0.6597 -0.9284
 9106TIP3    H248810   5.395   0.349  14.027  0.0034 -0.9510  0.9375
 9107TIP3   OH248811   4.965   0.596   0.505 -0.3747 -0.3277 -0.1563
 9107TIP3    H148812   5.024   0.524   0.481 -0.0370 -0.1343  0.0986
 9107TIP3    H248813   4.884   0.577   0.456 -0.9855 -1.9251  1.3290
 9108TIP3   OH248814   5.793   2.740   6.725  0.2530 -0.0957 -0.5199
 9108TIP3    H148815   5.832   2.802   6.787  1.3409  0.3923 -1.6499
 9108TIP3    H248816   5.705   2.774   6.711  0.1736  0.0885  0.3551
 9109TIP3   OH248817   0.786   2.609   5.523 -0.4250  0.2501 -0.0775
 9109TIP3    H148818   0.751   2.618   5.435 -2.3956  0.4327  0.6810
 9109TIP3    H248819   0.747   2.529   5.557 -0.3112  0.5897  0.8987
 9110TIP3   OH248820   5.615   5.927   2.972  0.6497  0.1592 -0.7872
 9110TIP3    H148821   5.671   5.855   2.943  1.2312  0.6217 -0.8091
 9110TIP3    H248822   5.590   5.903   3.061  1.1269  0.0984 -0.6667
 9111TIP3   OH248823   0.099   1.163  14.300  0.6723  0.5713 -0.2829
 9111TIP3    H148824   0.135   1.075  14.314 -0.7495 -0.1817 -1.1427
 9111TIP3    H248825   0.100   1.203  14.387  1.1859 -0.3548  0.1596
 9112TIP3   OH248826   6.347   0.452   5.665 -0.0352  0.1034 -0.4190
 9112TIP3    H148827   6.346   0.403   5.747 -0.1945  0.0540 -0.4500
 9112TIP3    H248828   6.385   0.392   5.601  1.3097  0.5857 -0.1078
 9113TIP3   OH248829   6.687   3.918   2.060 -0.3389  0.0257  1.0409
 9113TIP3    H148830   6.630   3.847   2.032 -0.7300 -0.9133  3.9278
 9113TIP3    H248831   6.762   3.875   2.100  1.5324  1.2794 -0.8836
 9114TIP3   OH248832   3.081   2.907   4.248  0.3118  0.3549 -0.0945
 9114TIP3    H148833   3.170   2.871   4.258 -0.6074 -1.9120  0.5416
 9114TIP3    H248834   3.081   2.985   4.303  1.6956  0.0066  0.4543
 9115TIP3   OH248835   4.469   1.678   5.051 -0.2323 -0.1898  0.1016
 9115TIP3    H148836   4.411   1.749   5.023 -0.8290 -1.5424 -2.3965
 9115TIP3    H248837   4.554   1.721   5.064 -1.0342  1.2977  0.7258
 9116TIP3   OH248838   2.478   4.857   3.279  0.8635  0.5004 -0.8206
 9116TIP3    H148839   2.445   4.769   3.261 -1.2175  0.9668  0.3785
 9116TIP3    H248840   2.573   4.849   3.270  0.5918 -1.1824 -3.4602
 9117TIP3   OH248841   4.750   0.173   2.728  0.0491  1.2679 -0.0965
 9117TIP3    H148842   4.693   0.201   2.656 -1.5411  4.4664  2.1545
 9117TIP3    H248843   4.824   0.234   2.726  0.5739  0.6535  0.2636
 9118TIP3   OH248844   0.997   0.274  13.011  0.1143 -0.4993  0.0558
 9118TIP3    H148845   1.021   0.353  12.963 -0.9014  0.7941  1.5508
 9118TIP3    H248846   0.942   0.224  12.951 -3.1747  2.2084  0.5060
 9119TIP3   OH248847   3.434   3.581   1.211  0.0482  0.5208  0.4531
 9119TIP3    H148848   3.399   3.508   1.263  0.7549  0.8816  1.4731
 9119TIP3    H248849   3.455   3.542   1.126 -0.0977 -0.3458  0.7983
 9120TIP3   OH248850   5.888   5.418  13.962 -0.4370  0.6906 -0.2159
 9120TIP3    H148851   5.932   5.493  13.922 -1.7137  1.3619 -0.4190
 9120TIP3    H248852   5.832   5.382  13.893  1.7218 -1.8253 -0.8035
 9121TIP3   OH248853   2.143   6.241  13.226  0.1897 -0.3675  0.0254
 9121TIP3    H148854   2.072   6.289  13.183  0.2734 -1.4308 -1.3869
 9121TIP3    H248855   2.098   6.176  13.281  0.0502 -0.7242 -0.4984
 9122TIP3   OH248856   2.898   6.593   5.782  0.6762 -0.3630  0.3375
 9122TIP3    H148857   2.896   6.652   5.857 -1.0398  0.0316  0.0132
 9122TIP3    H248858   2.920   6.507   5.819 -1.0469 -0.3653  1.4503
 9123TIP3   OH248859   1.723   3.889  13.445 -0.0496  0.1567  0.3752
 9123TIP3    H148860   1.703   3.829  13.373 -0.1008 -0.8139  1.1735
 9123TIP3    H248861   1.818   3.897  13.443  0.0143 -0.4492  0.6355
 9124TIP3   OH248862   2.735   0.455   2.213  0.3858  0.1921  0.4156
 9124TIP3    H148863   2.700   0.473   2.301 -3.0272 -0.4832 -0.6438
 9124TIP3    H248864   2.716   0.362   2.199 -1.2823  0.7910 -1.8111
 9125TIP3   OH248865   1.395   5.068  11.325 -0.4928  0.1112 -0.1998
 9125TIP3    H148866   1.469   5.129  11.323 -0.9074  0.6340 -0.0236
 9125TIP3    H248867   1.405   5.016  11.245  1.4308 -1.5240  1.0270
 9126TIP3   OH248868   5.638   1.142   1.401  0.4359 -0.2356  0.4142
 9126TIP3    H148869   5.647   1.236   1.384 -1.9714 -0.0589 -0.2721
 9126TIP3    H248870   5.587   1.109   1.327 -0.1546 -1.7959  1.4599
 9127TIP3   OH248871   6.471   5.146   3.260 -0.1862  0.2156  0.2839
 9127TIP3    H148872   6.545   5.205   3.276  0.3272 -0.5702  0.9200
 9127TIP3    H248873   6.495   5.066   3.306 -0.6823 -0.6342 -0.8965
 9128TIP3   OH248874   0.640   3.767  12.912 -0.7093  0.2512 -0.1106
 9128TIP3    H148875   0.660   3.708  12.984  1.8619  0.1843 -0.8100
 9128TIP3    H248876   0.571   3.824  12.946 -0.1601 -0.3379  2.0994
 9129TIP3   OH248877   4.869   4.123  12.169 -0.0786  0.2123 -0.4083
 9129TIP3    H148878   4.796   4.133  12.108  0.7020 -3.2067 -2.1424
 9129TIP3    H248879   4.838   4.061  12.235  0.4494  0.6499  0.2673
 9130TIP3   OH248880   0.943   2.467   5.245 -0.2405  0.4399  0.3015
 9130TIP3    H148881   0.851   2.485   5.265 -0.2416 -0.5260  1.2466
 9130TIP3    H248882   0.977   2.551   5.214 -1.2423  1.0163  0.7045
 9131TIP3   OH248883   1.772   4.356  12.770 -0.4627 -0.0373 -0.2992
 9131TIP3    H148884   1.786   4.423  12.836 -0.2229 -2.0709  1.8754
 9131TIP3    H248885   1.798   4.397  12.687  0.5280  2.1975  1.0312
 9132TIP3   OH248886   3.637   2.287   1.758 -0.3347  0.0725 -0.3906
 9132TIP3    H148887   3.685   2.363   1.726  1.5855 -1.5548 -1.5899
 9132TIP3    H248888   3.646   2.292   1.854  0.8562  0.6707 -0.5192
 9133TIP3   OH248889   6.167   6.276   3.553  0.6224  0.2659  0.2046
 9133TIP3    H148890   6.228   6.202   3.549 -0.1110 -0.3116 -0.6653
 9133TIP3    H248891   6.099   6.255   3.490 -0.0372  1.3108  0.5325
 9134TIP3   OH248892   0.688   0.779   5.466  0.1044 -0.0953  0.7307
 9134TIP3    H148893   0.688   0.721   5.390  0.4697  1.8227 -0.8162
 9134TIP3    H248894   0.674   0.866   5.430 -0.2782  0.8284  2.9445
 9135TIP3   OH248895   3.546   2.663   1.751 -0.2095  0.6896 -0.1850
 9135TIP3    H148896   3.577   2.602   1.683  0.1050  0.6183  0.0228
 9135TIP3    H248897   3.489   2.724   1.704 -1.5725 -0.5237 -0.1896
 9136TIP3   OH248898   2.873   4.710  11.526  0.0840 -0.4761  0.0878
 9136TIP3    H148899   2.923   4.631  11.506 -0.4519 -0.8019 -0.0015
 9136TIP3    H248900   2.900   4.773  11.460  0.1792 -0.7365 -0.1247
 9137TIP3   OH248901   0.691   5.614  11.901 -0.2553  0.2352 -0.1146
 9137TIP3    H148902   0.602   5.612  11.936 -0.4872 -1.9023 -0.6569
 9137TIP3    H248903   0.712   5.522  11.883  0.9641  0.9165 -2.7583
 9138TIP3   OH248904   1.556   6.295  14.564  0.3008 -0.2057 -0.0782
 9138TIP3    H148905   1.479   6.329  14.609  0.3039 -1.2383  0.7415
 9138TIP3    H248906   1.545   6.199  14.566  1.4322 -0.3594 -0.2434
 9139TIP3   OH248907   6.803   3.266  12.656 -0.1594  0.1424 -0.1800
 9139TIP3    H148908   6.847   3.218  12.726  2.0545  1.3201 -0.6738
 9139TIP3    H248909   6.717   3.289  12.693  0.2236 -0.8420  1.4364
 9140TIP3   OH248910   1.724   0.112  11.622 -0.2297 -0.0025  0.0963
 9140TIP3    H148911   1.646   0.111  11.678 -1.2860  1.1089 -1.2916
 9140TIP3    H248912   1.708   0.045  11.556 -1.5628  2.2677 -2.0828
 9141TIP3   OH248913   4.808   3.558  15.395 -0.0745  0.0462  0.0805
 9141TIP3    H148914   4.812   3.501  15.318  0.4275  0.0730  0.0869
 9141TIP3    H248915   4.886   3.613  15.389 -0.6983  0.9380 -0.0803
 9142TIP3   OH248916   3.790   6.579   4.552  0.1932  0.1415  0.2773
 9142TIP3    H148917   3.708   6.623   4.572 -0.2085 -0.6997  0.5340
 9142TIP3    H248918   3.827   6.627   4.478 -0.1337  1.0135  0.6788
 9143TIP3   OH248919   5.045   1.819   2.956  0.0651 -0.2286 -0.0679
 9143TIP3    H148920   5.002   1.847   3.037 -0.8255 -0.4398 -0.4494
 9143TIP3    H248921   4.988   1.853   2.887  0.2126 -0.9916 -0.5757
 9144TIP3   OH248922   4.776   4.666  16.978  0.0066  0.3239  0.1244
 9144TIP3    H148923   4.700   4.616  16.948  1.8201 -2.1810 -0.6383
 9144TIP3    H248924   4.804   4.621  17.058  1.1305  0.7151 -0.0298
 9145TIP3   OH248925   6.087   4.832   5.528 -0.2745 -0.2558 -0.0599
 9145TIP3    H148926   6.082   4.918   5.569  0.1454 -0.9867  1.5864
 9145TIP3    H248927   6.180   4.819   5.510 -0.6111  1.0385 -3.5780
 9146TIP3   OH248928   3.008   3.418  16.536 -0.0586 -0.5783 -0.4043
 9146TIP3    H148929   2.996   3.345  16.475  0.9581  2.0992 -4.1839
 9146TIP3    H248930   2.920   3.439  16.566 -0.7789 -1.3429 -1.8865
 9147TIP3   OH248931   0.518   5.989  15.751 -0.2494 -0.5820 -0.5815
 9147TIP3    H148932   0.528   5.902  15.788  0.7878 -0.6591 -1.0330
 9147TIP3    H248933   0.461   5.976  15.675 -0.2120 -0.8456 -0.5661
 9148TIP3   OH248934   2.421   0.227   5.180  0.3583 -0.4452  0.5917
 9148TIP3    H148935   2.514   0.246   5.167  0.5472 -0.2597  2.0727
 9148TIP3    H248936   2.417   0.186   5.266 -0.8366 -1.3092  0.1441
 9149TIP3   OH248937   4.791   0.149  11.369 -0.7620 -0.1589  0.1547
 9149TIP3    H148938   4.882   0.119  11.367 -1.2202 -1.6497  0.5663
 9149TIP3    H248939   4.751   0.101  11.441 -1.7194  1.0163  0.4447
 9150TIP3   OH248940   3.948   6.261  13.145 -0.1820 -0.4537  0.1443
 9150TIP3    H148941   4.004   6.258  13.222 -1.5329  2.6926  1.4311
 9150TIP3    H248942   3.973   6.184  13.094  2.1450 -1.5913  2.7345
 9151TIP3   OH248943   3.752   0.308   2.424  0.3372 -0.3586  0.0309
 9151TIP3    H148944   3.739   0.340   2.513 -1.6003  1.9329 -0.9725
 9151TIP3    H248945   3.678   0.249   2.408  0.5204 -0.5351 -0.1842
 9152TIP3   OH248946   5.280   3.520   3.912 -0.2000 -0.3295  0.5720
 9152TIP3    H148947   5.274   3.614   3.925  0.4550 -0.0463 -1.0188
 9152TIP3    H248948   5.358   3.507   3.858 -1.6942 -1.5346 -1.4426
 9153TIP3   OH248949   2.744   3.643  16.000  0.3275 -0.3501  0.0705
 9153TIP3    H148950   2.821   3.587  15.990  0.1261 -0.8164  1.0201
 9153TIP3    H248951   2.746   3.701  15.924  1.1541 -0.9120 -0.3462
 9154TIP3   OH248952   0.780   4.806   2.553  0.4114  0.0036 -0.9375
 9154TIP3    H148953   0.830   4.790   2.473 -0.2959  0.8201 -1.5599
 9154TIP3    H248954   0.785   4.901   2.566  1.6935 -0.2480  0.7899
 9155TIP3   OH248955   5.066   4.371  13.795 -0.6193 -0.3238  0.3320
 9155TIP3    H148956   5.015   4.444  13.830 -0.2267 -0.0083  0.2547
 9155TIP3    H248957   5.157   4.400  13.801 -0.4537 -0.8448  0.3864
 9156TIP3   OH248958   5.378   0.162  16.650 -0.0696 -0.0100 -0.6979
 9156TIP3    H148959   5.310   0.137  16.713  0.9581 -1.1613 -0.0081
 9156TIP3    H248960   5.459   0.128  16.687  0.9924  1.8017 -1.2440
 9157TIP3   OH248961   2.601   2.170  14.201 -0.1818  0.4150 -0.4923
 9157TIP3    H148962   2.686   2.126  14.208  0.0810  0.8620 -0.8145
 9157TIP3    H248963   2.619   2.260  14.226 -1.0605  0.0065  1.8052
 9158TIP3   OH248964   5.391   6.539   2.561 -0.0376  0.5985  0.1899
 9158TIP3    H148965   5.484   6.522   2.576 -0.0455  1.8628  2.0430
 9158TIP3    H248966   5.369   6.485   2.486  2.4485  1.0867 -1.0228
 9159TIP3   OH248967   2.626   5.576   0.019 -0.4333  0.0933 -0.2200
 9159TIP3    H148968   2.535   5.598   0.033 -0.3015  1.8462 -1.8296
 9159TIP3    H248969   2.675   5.647   0.059  0.1762 -0.0122 -0.7542
 9160TIP3   OH248970   6.536   3.853  14.152  0.7876  0.1300 -0.0295
 9160TIP3    H148971   6.475   3.865  14.224  1.3205 -0.4888  0.5512
 9160TIP3    H248972   6.597   3.785  14.184  1.8629  0.8354 -0.5113
 9161TIP3   OH248973   5.784   0.949  15.268 -0.2220  0.7245  0.5338
 9161TIP3    H148974   5.720   0.977  15.334 -1.2713  0.4360 -0.3346
 9161TIP3    H248975   5.757   0.994  15.188  0.1963 -0.0048 -0.0279
 9162TIP3   OH248976   2.271   4.544  14.266 -0.2169  0.0681 -0.7317
 9162TIP3    H148977   2.242   4.632  14.241  0.4111  0.3014 -0.6680
 9162TIP3    H248978   2.341   4.523  14.204  0.3827  0.0695 -0.0668
 9163TIP3   OH248979   1.562   6.356   1.738  0.6687  0.8321  0.2750
 9163TIP3    H148980   1.631   6.378   1.801  0.3755 -0.5133  1.1347
 9163TIP3    H248981   1.559   6.260   1.740  0.3961  0.7755 -1.5520
 9164TIP3   OH248982   4.831   2.755   5.664 -0.0916  0.2520  0.2774
 9164TIP3    H148983   4.849   2.809   5.741  1.4695 -0.0432  0.1502
 9164TIP3    H248984   4.883   2.794   5.594 -0.9769  0.1190 -0.4768
 9165TIP3   OH248985   6.018   3.132  15.115  0.2726  0.2160  0.3558
 9165TIP3    H148986   5.971   3.050  15.131  2.0439 -0.7369  0.8596
 9165TIP3    H248987   6.012   3.180  15.198  0.7348 -0.1847  0.6200
 9166TIP3   OH248988   6.167   2.093   5.217  0.1427  0.1476 -0.4504
 9166TIP3    H148989   6.157   2.006   5.178  0.4702 -0.4444  0.7597
 9166TIP3    H248990   6.078   2.129   5.217 -0.3660 -1.0424  0.9634
 9167TIP3   OH248991   6.793   1.872  12.264  0.3055 -0.5671  0.3409
 9167TIP3    H148992   6.818   1.958  12.298 -3.0636 -0.1579  2.1558
 9167TIP3    H248993   6.723   1.891  12.202 -0.3976 -1.9922  0.6654
 9168TIP3   OH248994   5.071   1.358  13.881 -0.0417  0.0405  0.1415
 9168TIP3    H148995   5.079   1.429  13.818  0.7058 -1.1928 -1.1992
 9168TIP3    H248996   5.087   1.400  13.966  0.2779  1.4809 -0.5962
 9169TIP3   OH248997   0.184   4.216   4.105 -0.0581  0.6121  0.1922
 9169TIP3    H148998   0.152   4.151   4.168 -0.2833  0.4632 -0.0733
 9169TIP3    H248999   0.276   4.192   4.092 -0.3290 -0.1271 -0.4731
 9170TIP3   OH249000   5.296   2.900  11.614 -0.2300 -0.6180  0.0797
 9170TIP3    H149001   5.311   2.991  11.588  1.9551 -1.1096 -0.5865
 9170TIP3    H249002   5.290   2.903  11.710 -1.7040  0.3724 -0.0080
 9171TIP3   OH249003   1.922   6.632   1.452  0.2315  0.2450  0.1725
 9171TIP3    H149004   1.869   6.560   1.418  1.8792  0.2193 -2.7282
 9171TIP3    H249005   1.868   6.710   1.442 -0.3282 -0.1495  0.1028
 9172TIP3   OH249006   0.103   0.179  15.700 -0.2212  0.1673  0.1265
 9172TIP3    H149007   0.148   0.261  15.722 -0.8644  0.3591  0.7387
 9172TIP3    H249008   0.172   0.113  15.702  0.2708  0.6575 -0.2002
 9173TIP3   OH249009   6.428   4.046  13.939 -1.0173 -0.6820  0.3547
 9173TIP3    H149010   6.464   4.000  14.014 -1.4266 -0.1624  0.8842
 9173TIP3    H249011   6.432   4.139  13.963  4.3004  0.2112 -2.5693
 9174TIP3   OH249012   6.009   1.246  11.145 -0.8901  0.0164 -0.6564
 9174TIP3    H149013   6.036   1.161  11.180 -1.2850  0.2535  0.2609
 9174TIP3    H249014   5.923   1.229  11.105 -1.1150  0.0376 -0.1935
 9175TIP3   OH249015   3.596   2.092   3.946  0.1866  0.0680 -0.2684
 9175TIP3    H149016   3.685   2.057   3.941  0.3913  0.3190  1.2076
 9175TIP3    H249017   3.604   2.183   3.920  0.3860  0.1217 -0.0209
 9176TIP3   OH249018   5.925   2.853  12.535  0.1884 -0.2706  0.2595
 9176TIP3    H149019   5.864   2.786  12.503  0.0279  0.3918 -0.9100
 9176TIP3    H249020   5.947   2.903  12.456  0.5041  0.8846  1.0709
 9177TIP3   OH249021   3.071   5.218  15.267 -0.3147  0.0478 -0.0507
 9177TIP3    H149022   3.106   5.129  15.264  0.7109  0.4520 -0.4675
 9177TIP3    H249023   3.063   5.238  15.361  2.5693  0.6806  0.1428
 9178TIP3   OH249024   3.581   3.504   5.459 -0.1975  0.5363  0.0444
 9178TIP3    H149025   3.523   3.460   5.522 -1.4268  1.2487 -0.5613
 9178TIP3    H249026   3.646   3.437   5.437  0.2111  0.2478  1.9903
 9179TIP3   OH249027   4.636   2.728   1.064  0.3186 -0.2595 -0.4863
 9179TIP3    H149028   4.702   2.673   1.023  2.3843  1.9802 -0.3444
 9179TIP3    H249029   4.628   2.694   1.153 -0.9897 -2.3864 -1.3284
 9180TIP3   OH249030   0.540   5.487   6.230  0.4718 -0.4771 -0.3561
 9180TIP3    H149031   0.584   5.438   6.299 -1.6126 -1.2115  0.5127
 9180TIP3    H249032   0.581   5.573   6.232  1.1037 -0.7881  1.1427
 9181TIP3   OH249033   4.357   5.546   4.277 -0.7542  0.1557  0.2782
 9181TIP3    H149034   4.285   5.546   4.214 -0.6221  0.1554  0.1253
 9181TIP3    H249035   4.383   5.455   4.285  0.8723  0.3966 -1.5779
 9182TIP3   OH249036   6.292   2.185  11.982 -0.5561  0.1186 -0.1816
 9182TIP3    H149037   6.242   2.258  12.018 -1.2053 -1.5868  2.7447
 9182TIP3    H249038   6.236   2.148  11.914 -0.9243  1.3651 -0.5672
 9183TIP3   OH249039   6.154   4.236  15.466 -0.7085 -0.3927 -0.0003
 9183TIP3    H149040   6.073   4.189  15.486  0.0379 -1.9040 -0.4281
 9183TIP3    H249041   6.224   4.173  15.484  0.3311  0.5333 -0.6676
 9184TIP3   OH249042   5.771   4.660  14.488 -0.0333 -0.6732 -0.6281
 9184TIP3    H149043   5.805   4.607  14.417 -2.8647 -2.0239 -1.1158
 9184TIP3    H249044   5.680   4.679  14.463 -0.7134 -0.0270  1.9856
 9185TIP3   OH249045   1.465   4.263   0.631  0.0406  0.3119  0.0828
 9185TIP3    H149046   1.409   4.247   0.707  1.5730  0.5472  1.3153
 9185TIP3    H249047   1.549   4.288   0.669  1.2528 -0.8873 -1.6857
 9186TIP3   OH249048   6.395   1.305  12.437  0.0870 -0.0662  0.3320
 9186TIP3    H149049   6.404   1.399  12.424 -0.1349 -0.3360 -2.3199
 9186TIP3    H249050   6.307   1.285  12.404  0.2578 -1.2427  0.5528
 9187TIP3   OH249051   5.340   3.892  11.653 -0.1834  0.6354 -0.1363
 9187TIP3    H149052   5.338   3.843  11.570 -5.8325 -0.8564  0.4364
 9187TIP3    H249053   5.249   3.918  11.667  0.6361  1.8062  5.0755
 9188TIP3   OH249054   1.672   5.337   2.968  0.1897 -0.3595  0.0470
 9188TIP3    H149055   1.711   5.287   3.039  1.9115  2.1791  1.0388
 9188TIP3    H249056   1.578   5.329   2.981  0.4523  0.0053  2.6320
 9189TIP3   OH249057   1.208   5.569  14.818  0.4309  0.0032  0.4566
 9189TIP3    H149058   1.240   5.481  14.838 -1.2885  0.0319  4.0489
 9189TIP3    H249059   1.284   5.615  14.785  2.3834 -1.7973  2.1557
 9190TIP3   OH249060   1.462   0.457  15.108  0.0806  0.3672  0.6795
 9190TIP3    H149061   1.520   0.384  15.131  0.6615  0.2581 -1.0000
 9190TIP3    H249062   1.508   0.535  15.141  1.1216  0.2616 -0.4548
 9191TIP3   OH249063   0.428   5.828   4.531 -0.6986 -0.1589  0.4381
 9191TIP3    H149064   0.376   5.849   4.454 -0.1982 -0.0193  0.1282
 9191TIP3    H249065   0.413   5.900   4.592 -1.2388 -0.3608  0.5465
 9192TIP3   OH249066   1.574   2.330   4.861  0.0482  0.0440  0.5226
 9192TIP3    H149067   1.521   2.288   4.794  1.0147  0.1092 -0.3108
 9192TIP3    H249068   1.645   2.268   4.878  1.2246  1.0947 -0.3697
 9193TIP3   OH249069   5.009   1.367   0.603  0.1468  0.2780 -0.2261
 9193TIP3    H149070   5.038   1.276   0.598  0.5621  0.4248 -0.5729
 9193TIP3    H249071   4.971   1.385   0.517 -2.8704 -0.5114  0.8252
 9194TIP3   OH249072   6.447   5.499   0.354  0.0582 -0.1802  0.2255
 9194TIP3    H149073   6.508   5.524   0.423  1.8343  0.1190 -1.4026
 9194TIP3    H249074   6.433   5.579   0.304  0.4552 -0.8611 -0.9987
 9195TIP3   OH249075   2.535   1.937  14.320 -0.0305  0.1105  0.4894
 9195TIP3    H149076   2.580   2.009  14.276  0.9791 -0.0627  1.2036
 9195TIP3    H249077   2.536   1.865  14.257  0.9519  0.0219  0.5963
 9196TIP3   OH249078   4.641   2.313  16.231 -0.1667 -0.3096  0.4569
 9196TIP3    H149079   4.699   2.241  16.207  1.0007  0.6485  0.3219
 9196TIP3    H249080   4.621   2.357  16.148  1.2186  1.0397  0.7986
 9197TIP3   OH249081   5.749   0.837   0.545 -0.1045 -0.1915 -0.3345
 9197TIP3    H149082   5.714   0.880   0.467 -0.1519  0.1852 -0.1104
 9197TIP3    H249083   5.843   0.848   0.538 -0.1569  0.6297  0.1009
 9198TIP3   OH249084   3.233   3.327  17.276 -0.3531  0.1862  0.1044
 9198TIP3    H149085   3.155   3.358  17.230 -1.6070 -1.1420  1.2042
 9198TIP3    H249086   3.245   3.237  17.245  1.5181  0.7484 -0.9532
 9199TIP3   OH249087   6.181   2.044  11.415  0.1585  0.3112  0.5520
 9199TIP3    H149088   6.177   2.010  11.504 -0.3000  0.8034  0.7248
 9199TIP3    H249089   6.214   1.971  11.363 -1.7679 -0.7642  0.7568
 9200TIP3   OH249090   5.480   0.432   1.239 -0.3920 -0.0732 -0.1172
 9200TIP3    H149091   5.453   0.342   1.259 -2.9537  0.9805  1.6453
 9200TIP3    H249092   5.439   0.451   1.154 -1.0781 -0.1250  0.1943
 9201TIP3   OH249093   6.436   2.939  13.931  0.0358  0.2467 -0.0144
 9201TIP3    H149094   6.345   2.918  13.909 -0.2192  0.3566  0.8944
 9201TIP3    H249095   6.434   3.034  13.948  0.1714  0.1316  0.6736
 9202TIP3   OH249096   3.506   5.088   1.982 -0.3834 -0.3097 -0.3026
 9202TIP3    H149097   3.440   5.155   1.994 -0.7981 -0.4599 -1.5613
 9202TIP3    H249098   3.589   5.136   1.976 -0.5325 -0.0144  0.0081
 9203TIP3   OH249099   5.742   4.736  12.782 -0.0109 -0.4601 -0.3109
 9203TIP3    H149100   5.718   4.826  12.803  0.2387 -0.5048  0.1801
 9203TIP3    H249101   5.663   4.686  12.798  0.0811 -0.4439  0.2057
 9204TIP3   OH249102   0.964   3.645  14.822  0.1668 -0.0228 -0.7851
 9204TIP3    H149103   1.017   3.701  14.765  0.4937  0.8864  0.3723
 9204TIP3    H249104   1.011   3.562  14.825  1.7753  0.8890  0.5215
 9205TIP3   OH249105   2.847   5.031  12.554  0.2762 -0.3513  0.2958
 9205TIP3    H149106   2.941   5.033  12.571  0.0393  1.3254  1.6567
 9205TIP3    H249107   2.833   5.101  12.490 -0.1252 -0.0780  0.6748
 9206TIP3   OH249108   5.782   2.268   3.922 -0.1151  0.1877 -0.3312
 9206TIP3    H149109   5.727   2.323   3.977 -0.1163 -0.6611  0.5543
 9206TIP3    H249110   5.793   2.317   3.841 -1.7596  0.5875 -0.3352
 9207TIP3   OH249111   1.132   1.008  14.299  0.1732 -0.0060 -0.2041
 9207TIP3    H149112   1.202   0.944  14.286 -0.9324 -1.6074  1.3771
 9207TIP3    H249113   1.052   0.956  14.304 -1.0361  1.6882 -0.8556
 9208TIP3   OH249114   2.454   1.617  13.279  0.2525 -0.5403  0.3814
 9208TIP3    H149115   2.381   1.589  13.335 -0.0743 -0.3841  0.0447
 9208TIP3    H249116   2.469   1.543  13.220 -0.1588 -0.2852 -0.0605
 9209TIP3   OH249117   1.976   0.102   3.025 -0.1880  0.2069  1.2597
 9209TIP3    H149118   2.063   0.066   3.008 -0.0774  0.5165  1.1570
 9209TIP3    H249119   1.974   0.117   3.119  0.1351  0.8629  1.1682
 9210TIP3   OH249120   4.026   5.735  12.742 -0.6900 -0.4162 -0.0182
 9210TIP3    H149121   3.958   5.699  12.685 -0.4066 -0.7313 -0.1571
 9210TIP3    H249122   4.105   5.689  12.717 -0.4018  0.0247  0.0752
 9211TIP3   OH249123   4.918   1.754  16.609 -0.3188  0.6523 -0.0592
 9211TIP3    H149124   4.924   1.761  16.704  1.3041  1.5366 -0.1870
 9211TIP3    H249125   4.834   1.796  16.587 -0.9097  0.0631  0.9895
 9212TIP3   OH249126   0.431   2.389   1.393 -0.5805  0.0730 -0.0050
 9212TIP3    H149127   0.448   2.481   1.374 -4.0725  0.6759 -0.9387
 9212TIP3    H249128   0.431   2.383   1.488 -0.2057  0.9884  0.0566
 9213TIP3   OH249129   6.027   6.052   4.290 -0.1578  0.7301  0.5423
 9213TIP3    H149130   6.111   6.007   4.294 -1.0036 -0.9185  0.5750
 9213TIP3    H249131   6.029   6.100   4.208  0.8080  0.7048  0.5414
 9214TIP3   OH249132   1.698   2.721   3.973 -0.4674  0.1574  0.2063
 9214TIP3    H149133   1.693   2.705   3.878 -0.3696  0.1383  0.2036
 9214TIP3    H249134   1.686   2.815   3.982 -0.7691  0.1211  0.1989
 9215TIP3   OH249135   1.590   0.329  11.881  0.1792  0.0391  0.4769
 9215TIP3    H149136   1.558   0.251  11.836  2.4340 -0.5562 -0.1883
 9215TIP3    H249137   1.593   0.396  11.813  0.7032 -0.0208  0.4373
 9216TIP3   OH249138   4.505   4.139  10.477 -0.1485  0.8115  0.0260
 9216TIP3    H149139   4.550   4.221  10.454 -1.0764  1.4993  0.5766
 9216TIP3    H249140   4.418   4.148  10.437 -0.3057  0.1451  0.2118
 9217TIP3   OH249141   2.517   2.396   3.596 -0.5422 -0.6489  0.1871
 9217TIP3    H149142   2.485   2.451   3.525 -1.6520 -1.6178 -0.0921
 9217TIP3    H249143   2.527   2.456   3.670 -0.1154  0.2238 -0.5698
 9218TIP3   OH249144   3.163   4.420   2.173  0.6094  0.4862  0.2258
 9218TIP3    H149145   3.175   4.490   2.109  0.1936  0.5678  0.2336
 9218TIP3    H249146   3.134   4.345   2.121 -2.3420  1.2547  0.5479
 9219TIP3   OH249147   5.469   0.923   5.449 -0.0205  0.2214  0.2640
 9219TIP3    H149148   5.493   0.993   5.510 -0.1633  0.2812  0.2535
 9219TIP3    H249149   5.464   0.845   5.504  0.0654  0.2331  0.2895
 9220TIP3   OH249150   5.142   0.024   3.467  0.5107 -0.5523  0.4079
 9220TIP3    H149151   5.051  -0.004   3.456  0.5352 -0.1365 -1.0335
 9220TIP3    H249152   5.177   0.030   3.378  1.3337  1.2767  0.7890
 9221TIP3   OH249153   6.486   5.698  14.292  0.1597 -0.2896  0.2955
 9221TIP3    H149154   6.520   5.771  14.240 -1.9915  1.0355  0.6242
 9221TIP3    H249155   6.565   5.656  14.328  1.5001  2.4138  0.8172
 9222TIP3   OH249156   0.540   0.598   2.229 -0.0015 -0.1191 -0.3299
 9222TIP3    H149157   0.622   0.599   2.277 -0.7504  1.2584  0.9954
 9222TIP3    H249158   0.526   0.689   2.203 -0.7403 -0.4689 -1.2135
 9223TIP3   OH249159   3.391   6.220   1.604 -0.4686 -0.0609  0.4968
 9223TIP3    H149160   3.476   6.175   1.604  0.8278  2.2452  0.5146
 9223TIP3    H249161   3.344   6.181   1.530  0.6146 -1.3385  0.4400
 9224TIP3   OH249162   0.632   1.381  15.111 -0.0161  0.4177 -0.2846
 9224TIP3    H149163   0.590   1.304  15.150 -0.0920  0.2969 -0.6000
 9224TIP3    H249164   0.725   1.360  15.110  0.1954  1.1381  1.4379
 9225TIP3   OH249165   5.171   4.199   5.941  0.0363 -0.1442 -0.6701
 9225TIP3    H149166   5.250   4.217   5.992 -0.2352  0.9665 -0.6323
 9225TIP3    H249167   5.107   4.263   5.971 -0.9148 -1.0563 -0.6715
 9226TIP3   OH249168   1.719   2.377  16.468  0.3245 -0.3001  0.0015
 9226TIP3    H149169   1.636   2.376  16.421 -0.4527 -1.1214  1.3483
 9226TIP3    H249170   1.779   2.422  16.408 -0.7420 -0.8456 -1.5496
 9227TIP3   OH249171   0.781   1.744   5.749  0.1651 -0.2247 -0.5702
 9227TIP3    H149172   0.741   1.793   5.677  0.8392  2.2226  0.6042
 9227TIP3    H249173   0.868   1.782   5.758  0.6494 -1.5292  0.5770
 9228TIP3   OH249174   5.019   5.711  11.947  0.0862  0.5812 -0.4854
 9228TIP3    H149175   4.975   5.779  11.998 -3.5179 -0.7885 -1.4173
 9228TIP3    H249176   5.022   5.746  11.858  0.8420  0.6131 -0.4521
 9229TIP3   OH249177   4.013   5.231   0.936 -0.3130 -0.4691  0.2897
 9229TIP3    H149178   4.097   5.185   0.935  1.0815  1.8715  0.2383
 9229TIP3    H249179   3.975   5.213   0.850  1.0155 -0.1692 -0.3979
 9230TIP3   OH249180   0.437   4.945   0.256  0.8219 -0.0169 -0.3456
 9230TIP3    H149181   0.452   5.024   0.203 -0.2339  2.2447  2.4524
 9230TIP3    H249182   0.478   4.965   0.341 -1.0615 -1.7055  1.0587
 9231TIP3   OH249183   2.455   1.619  12.246  0.3682 -0.0334  0.0838
 9231TIP3    H149184   2.398   1.564  12.192  1.8145 -1.5246 -0.0156
 9231TIP3    H249185   2.541   1.613  12.204  0.7782  1.6342  0.5831
 9232TIP3   OH249186   3.596   3.797   0.885 -0.2155 -0.1272  0.0266
 9232TIP3    H149187   3.586   3.791   0.790 -1.2422 -0.1151  0.1213
 9232TIP3    H249188   3.666   3.734   0.905 -0.4589 -0.6428 -0.6649
 9233TIP3   OH249189   5.525   1.800  11.906  0.7239 -0.0411  0.1812
 9233TIP3    H149190   5.452   1.741  11.890  1.3612 -1.1277  1.1123
 9233TIP3    H249191   5.602   1.751  11.877  1.1344  0.9544 -0.4749
 9234TIP3   OH249192   4.284   2.974   2.721 -0.4138  0.1766 -0.1520
 9234TIP3    H149193   4.218   2.960   2.788  0.9256 -1.9964  0.7987
 9234TIP3    H249194   4.326   3.057   2.745 -1.7766  0.8382  0.0434
 9235TIP3   OH249195   4.123   4.054  13.352 -0.6008  0.3433  0.6040
 9235TIP3    H149196   4.094   4.075  13.263 -0.1437  0.6358  0.5180
 9235TIP3    H249197   4.184   3.981  13.341 -1.2538 -0.2311  0.7753
 9236TIP3   OH249198   4.247   3.168  16.034 -0.1272  0.3784  0.1702
 9236TIP3    H149199   4.331   3.210  16.015 -0.2964  0.8810  0.5097
 9236TIP3    H249200   4.252   3.083  15.991  1.5854 -0.6739  2.2749
 9237TIP3   OH249201   1.265   3.522   2.680  0.1622 -0.1145 -0.0452
 9237TIP3    H149202   1.331   3.584   2.649  1.6479 -1.0520  1.0788
 9237TIP3    H249203   1.298   3.494   2.766 -1.4316 -1.0446  0.2882
 9238TIP3   OH249204   5.852   0.505  11.184 -0.5050 -0.3782  0.1248
 9238TIP3    H149205   5.862   0.413  11.210 -0.2771 -0.9753 -1.9295
 9238TIP3    H249206   5.915   0.517  11.113 -2.0993  0.7303 -1.1737
 9239TIP3   OH249207   4.993   0.572  16.000 -0.8143 -0.2262 -0.1519
 9239TIP3    H149208   4.945   0.502  15.956 -2.6033  1.5448 -1.1582
 9239TIP3    H249209   5.075   0.579  15.951 -0.0174 -2.4003  0.7569
 9240TIP3   OH249210   3.230   2.126  14.986  0.0611  0.4211 -0.2148
 9240TIP3    H149211   3.180   2.048  14.962  2.3731 -1.4360  0.5509
 9240TIP3    H249212   3.302   2.128  14.923 -0.8330  3.0017 -1.2857
 9241TIP3   OH249213   5.619   4.288  16.948  0.0241  0.4881 -0.7001
 9241TIP3    H149214   5.637   4.380  16.929 -1.1237  1.2501  1.5421
 9241TIP3    H249215   5.653   4.274  17.036 -1.1900 -0.7981 -0.3882
 9242TIP3   OH249216   1.473   5.358   6.217  0.0945  0.1359 -0.2528
 9242TIP3    H149217   1.415   5.301   6.166  1.6849 -1.4471 -0.3804
 9242TIP3    H249218   1.507   5.301   6.286  0.3291  1.4476  0.7348
 9243TIP3   OH249219   4.763   3.092  12.695  0.2281  0.2186 -0.4032
 9243TIP3    H149220   4.710   3.034  12.640  1.4261 -0.0538 -1.3297
 9243TIP3    H249221   4.811   3.146  12.632  0.1989  1.2351  0.4283
 9244TIP3   OH249222   4.120   6.471  16.554  0.7117  0.0398 -0.3380
 9244TIP3    H149223   4.094   6.411  16.624 -1.2601  2.4336  1.1427
 9244TIP3    H249224   4.071   6.442  16.477  0.3663 -0.6584  0.1379
 9245TIP3   OH249225   2.761   4.580   1.493 -0.1855 -0.0161  0.2417
 9245TIP3    H149226   2.702   4.651   1.518  1.8555  1.9055 -0.0492
 9245TIP3    H249227   2.839   4.594   1.547  2.9193  2.0404 -4.1271
 9246TIP3   OH249228   2.585   2.472  14.889 -0.8656  0.0682  0.2548
 9246TIP3    H149229   2.568   2.546  14.947 -3.3474 -1.6461  1.9166
 9246TIP3    H249230   2.502   2.425  14.884  0.6356 -2.7789 -0.4577
 9247TIP3   OH249231   0.279   5.323  12.236  0.3321 -0.2445 -0.9369
 9247TIP3    H149232   0.365   5.283  12.220  0.1030 -1.1785  0.0651
 9247TIP3    H249233   0.270   5.324  12.331  0.1311  1.8411 -0.9253
 9248TIP3   OH249234   0.175   5.876   4.672  0.1168  0.1644 -0.1572
 9248TIP3    H149235   0.241   5.945   4.675  1.3944 -0.9943 -1.0648
 9248TIP3    H249236   0.127   5.886   4.755  2.4815  0.0154  1.3167
 9249TIP3   OH249237   6.656   5.184   0.685 -0.3735 -0.0209  0.3703
 9249TIP3    H149238   6.634   5.107   0.633  1.8072 -1.0507  0.8600
 9249TIP3    H249239   6.578   5.239   0.680 -0.4739 -0.2284 -3.6225
 9250TIP3   OH249240   2.278   1.276  17.089 -0.2402 -0.1439 -0.0425
 9250TIP3    H149241   2.233   1.192  17.077 -1.9706  0.5993  0.8708
 9250TIP3    H249242   2.241   1.333  17.022 -0.5453  0.4227  0.5919
 9251TIP3   OH249243   5.067   3.941   5.350  0.4026 -0.9455  0.0535
 9251TIP3    H149244   5.096   3.873   5.290 -0.4194 -0.5260 -0.8516
 9251TIP3    H249245   5.035   4.011   5.294  0.7840 -0.0055  0.9742
 9252TIP3   OH249246   3.779   2.544   2.082 -0.4552 -0.5215 -0.5835
 9252TIP3    H149247   3.704   2.599   2.059  0.1238 -0.0313 -1.3332
 9252TIP3    H249248   3.851   2.577   2.028  0.1766 -1.3190 -0.2526
 9253TIP3   OH249249   3.592   6.014   3.104  0.0355 -0.0459 -0.1692
 9253TIP3    H149250   3.573   6.047   3.192  1.2048 -1.5028  0.6626
 9253TIP3    H249251   3.505   6.002   3.064 -0.4824  1.8554  0.2709
 9254TIP3   OH249252   3.234   3.260  12.499  0.3584  0.1670  0.0580
 9254TIP3    H149253   3.169   3.193  12.480 -0.1923  0.4889  0.7441
 9254TIP3    H249254   3.298   3.216  12.555  0.9787 -0.2703 -0.9776
 9255TIP3   OH249255   6.703   0.282  15.507 -0.2330 -0.1072  0.0508
 9255TIP3    H149256   6.765   0.331  15.560 -2.1137  0.4378  1.8884
 9255TIP3    H249257   6.716   0.190  15.533 -1.4481  0.1971  1.9202
 9256TIP3   OH249258   5.601   2.513  15.017 -0.5897 -0.1507 -0.3108
 9256TIP3    H149259   5.597   2.424  15.054 -0.2930 -0.4961 -1.0892
 9256TIP3    H249260   5.592   2.500  14.923 -1.5986  0.7431 -0.3514
 9257TIP3   OH249261   3.431   4.771   4.217 -0.1329  0.0520 -0.0576
 9257TIP3    H149262   3.501   4.792   4.154 -0.7975  0.7875 -0.5730
 9257TIP3    H249263   3.354   4.756   4.162 -0.7843  0.9553  0.5774
 9258TIP3   OH249264   5.707   5.221  12.360 -0.1157 -0.2914  0.2013
 9258TIP3    H149265   5.650   5.257  12.429  0.2703 -2.5897  1.8117
 9258TIP3    H249266   5.770   5.167  12.407  0.6165 -1.3664 -1.9212
 9259TIP3   OH249267   5.042   0.625   2.821 -0.2660 -0.1948  0.2329
 9259TIP3    H149268   5.122   0.660   2.783 -0.5388  0.1278 -0.0530
 9259TIP3    H249269   4.994   0.703   2.850 -0.0660 -0.4297  1.2344
 9260TIP3   OH249270   0.266   0.198  14.518  0.2166 -0.6919  0.1287
 9260TIP3    H149271   0.230   0.167  14.601  0.3276 -0.9789  0.0696
 9260TIP3    H249272   0.269   0.120  14.463  0.3279 -0.5398 -0.0798
 9261TIP3   OH249273   3.527   5.853  14.301 -0.1605 -0.0111  0.4469
 9261TIP3    H149274   3.470   5.806  14.362 -0.1961  0.2264  0.5965
 9261TIP3    H249275   3.553   5.932  14.348 -0.7796  0.5407 -0.1126
 9262TIP3   OH249276   4.337   1.523   1.091 -0.3625 -0.5872  0.4024
 9262TIP3    H149277   4.431   1.519   1.107 -0.5561 -1.9579  1.2936
 9262TIP3    H249278   4.298   1.537   1.177 -1.0038 -0.4115  0.0919
 9263TIP3   OH249279   4.601   2.390  17.238  0.7516 -0.3192 -0.4685
 9263TIP3    H149280   4.570   2.352  17.320  2.8728 -0.8522  0.1205
 9263TIP3    H249281   4.642   2.473  17.263  1.9722 -0.7788 -0.8817
 9264TIP3   OH249282   4.312   2.630   4.310  0.6187  0.1647 -0.6009
 9264TIP3    H149283   4.252   2.705   4.309 -0.8573 -0.9636 -1.7080
 9264TIP3    H249284   4.330   2.615   4.403 -2.0678 -0.3424 -0.0801
 9265TIP3   OH249285   3.420   2.941  13.093 -0.0784  0.3855  0.4499
 9265TIP3    H149286   3.494   2.911  13.040  1.2214  2.6324  0.8845
 9265TIP3    H249287   3.404   2.870  13.155  0.6885 -0.7760 -0.6458
 9266TIP3   OH249288   5.452   5.183  13.927 -0.9728 -0.1771  0.0279
 9266TIP3    H149289   5.530   5.238  13.928 -1.7022  0.9181 -0.9206
 9266TIP3    H249290   5.486   5.093  13.922  0.2389  0.0928  2.2997
 9267TIP3   OH249291   0.737   1.563  15.368 -0.5350 -0.3903 -0.2562
 9267TIP3    H149292   0.717   1.609  15.286 -1.3651 -0.9107 -0.3564
 9267TIP3    H249293   0.707   1.623  15.436  1.0428  0.4761 -0.2711
 9268TIP3   OH249294   3.461   4.614  11.515 -1.2653  0.6041 -0.7153
 9268TIP3    H149295   3.438   4.706  11.528  2.1597  1.4233  0.3562
 9268TIP3    H249296   3.499   4.612  11.427 -1.2371  0.2274 -0.6945
 9269TIP3   OH249297   1.424   5.764   1.086  0.2767  0.8265 -0.9162
 9269TIP3    H149298   1.340   5.732   1.121  0.1637  3.3916  1.5254
 9269TIP3    H249299   1.474   5.790   1.164  2.1199  2.2162 -2.4700
 9270TIP3   OH249300   3.620   0.086   5.998 -0.1645 -0.2864  0.1321
 9270TIP3    H149301   3.585  -0.003   6.001  0.7945 -0.6691  0.1838
 9270TIP3    H249302   3.623   0.113   6.090  0.6396 -0.6428  0.2164
 9271TIP3   OH249303   0.643   2.559   1.963 -0.3950 -0.6007 -0.1567
 9271TIP3    H149304   0.716   2.574   2.023 -1.3743 -1.6541  1.3984
 9271TIP3    H249305   0.645   2.465   1.945 -2.2049 -0.9559  1.1730
 9272TIP3   OH249306   3.180   5.759   2.090  1.0473 -0.5537  0.3398
 9272TIP3    H149307   3.088   5.784   2.079  0.6136 -1.4472  1.6854
 9272TIP3    H249308   3.220   5.776   2.005 -0.9424 -2.5602 -1.1120
 9273TIP3   OH249309   3.971   2.380  11.875  0.0914  0.4835  0.3351
 9273TIP3    H149310   4.023   2.314  11.828  0.4322  1.4958 -0.7609
 9273TIP3    H249311   4.003   2.376  11.965  0.0111 -0.9294  0.3288
 9274TIP3   OH249312   5.714   4.111   5.043 -0.5506  0.3048  0.0161
 9274TIP3    H149313   5.709   4.122   5.138 -1.8984 -1.2938  0.1748
 9274TIP3    H249314   5.784   4.170   5.016 -0.1804  0.8497  1.9911
 9275TIP3   OH249315   3.882   4.479  12.041 -0.0753 -0.2147  0.1605
 9275TIP3    H149316   3.832   4.423  12.101 -0.5758  0.7649  0.6792
 9275TIP3    H249317   3.830   4.478  11.960 -1.0567  0.9013  0.7365
 9276TIP3   OH249318   3.586   4.536   1.898 -0.1763  0.5123  0.6404
 9276TIP3    H149319   3.655   4.496   1.846  1.8864  2.1311  1.9621
 9276TIP3    H249320   3.541   4.463   1.938  0.9399 -0.5986 -0.0584
 9277TIP3   OH249321   6.146   4.074  13.897  0.4804  0.3881  0.1930
 9277TIP3    H149322   6.239   4.098  13.898  0.7567 -0.6169 -0.3556
 9277TIP3    H249323   6.143   3.987  13.936 -0.5332  1.2788  2.2876
 9278TIP3   OH249324   2.669   2.625   3.478 -0.3158 -0.5348 -0.2716
 9278TIP3    H149325   2.708   2.548   3.520  0.9198  0.0326 -0.3321
 9278TIP3    H249326   2.740   2.689   3.476 -1.1709  0.4162 -0.7228
 9279TIP3   OH249327   5.444   0.515  14.972  0.1086 -0.0372  0.0436
 9279TIP3    H149328   5.523   0.480  15.012 -0.3655 -0.5399  0.5593
 9279TIP3    H249329   5.473   0.595  14.927  1.0811 -0.7502 -0.6210
 9280TIP3   OH249330   5.005   4.913  14.560 -0.1761 -0.1841 -0.4695
 9280TIP3    H149331   5.076   4.856  14.590 -1.7696 -0.9662  2.1459
 9280TIP3    H249332   4.996   4.978  14.630 -2.4168 -0.4905 -0.4067
 9281TIP3   OH249333   0.635   3.061   0.360 -0.5719 -0.2024 -0.1090
 9281TIP3    H149334   0.555   3.010   0.368 -0.4721 -0.3309  0.0924
 9281TIP3    H249335   0.702   2.997   0.335 -0.8599  0.1787 -1.9787
 9282TIP3   OH249336   2.870   3.542   4.240  0.3334 -0.0948  0.3237
 9282TIP3    H149337   2.790   3.491   4.248  0.1290  0.1463 -0.1831
 9282TIP3    H249338   2.840   3.632   4.229  0.6621 -0.0676 -0.3670
 9283TIP3   OH249339   0.875   5.768   3.418  0.3931 -0.1220  0.3969
 9283TIP3    H149340   0.831   5.849   3.392 -1.6347 -0.5142  2.2772
 9283TIP3    H249341   0.914   5.788   3.503  2.4652 -0.3276 -0.4342
 9284TIP3   OH249342   0.352   0.644  16.009 -0.3246  0.5901 -0.1735
 9284TIP3    H149343   0.287   0.574  16.009 -0.1786  0.4478  0.5502
 9284TIP3    H249344   0.349   0.680  16.098  0.6049  0.5512 -0.1097
 9285TIP3   OH249345   2.475   3.865  14.907 -0.0783 -0.4409  0.3297
 9285TIP3    H149346   2.539   3.914  14.959 -0.1110 -1.0761  0.9888
 9285TIP3    H249347   2.457   3.921  14.832 -0.5701  0.8556  1.3638
 9286TIP3   OH249348   1.257   3.156   2.560  0.1389  0.1027 -0.1559
 9286TIP3    H149349   1.319   3.089   2.586  0.2250  0.7186  1.3099
 9286TIP3    H249350   1.183   3.108   2.523  1.7929 -0.6163 -2.8105
 9287TIP3   OH249351   5.017   6.463  16.072  0.0400 -0.7924 -0.0053
 9287TIP3    H149352   5.104   6.426  16.086  0.4571 -0.1489 -0.7945
 9287TIP3    H249353   4.957   6.389  16.082  0.4638 -0.8624  2.6220
 9288TIP3   OH249354   3.865   2.822   3.025 -0.0919  0.6678 -0.2966
 9288TIP3    H149355   3.805   2.792   2.957  1.1806  1.0334 -1.6270
 9288TIP3    H249356   3.850   2.763   3.099 -1.9226  0.6370 -0.6538
 9289TIP3   OH249357   3.562   0.620  15.034 -0.0574 -0.0185 -0.1803
 9289TIP3    H149358   3.641   0.593  15.081  0.3756 -2.7153 -2.1877
 9289TIP3    H249359   3.497   0.636  15.103  1.2853 -1.1226  1.4272
 9290TIP3   OH249360   6.385   3.143   4.656 -0.1262 -0.4970  0.8145
 9290TIP3    H149361   6.442   3.067   4.644  0.5824  0.0752  0.4528
 9290TIP3    H249362   6.325   3.141   4.581  1.2319  0.4285 -0.3598
 9291TIP3   OH249363   0.988   6.614   5.546 -0.3541  0.0703  0.5872
 9291TIP3    H149364   0.900   6.650   5.539 -1.3398 -1.7557  2.3621
 9291TIP3    H249365   0.974   6.520   5.556  1.9062 -0.4592 -0.5580
 9292TIP3   OH249366   5.190   2.699   6.143 -0.6118 -0.4701 -0.0298
 9292TIP3    H149367   5.207   2.605   6.154  1.1718 -0.0174  1.7902
 9292TIP3    H249368   5.207   2.736   6.230 -3.3005  1.3099 -0.1482
 9293TIP3   OH249369   1.718   5.286  17.114 -0.5255  0.4950  0.0809
 9293TIP3    H149370   1.631   5.274  17.076 -1.4646  0.4487  2.0912
 9293TIP3    H249371   1.707   5.358  17.176  0.9507  0.6569  0.1855
 9294TIP3   OH249372   3.819   1.675   5.852 -0.0543  0.3436  0.3691
 9294TIP3    H149373   3.735   1.716   5.873 -0.0300  3.5167 -4.3301
 9294TIP3    H249374   3.796   1.596   5.804 -0.3951  1.0080 -0.5794
 9295TIP3   OH249375   3.724   1.114   0.973 -0.9709  0.2945 -0.1742
 9295TIP3    H149376   3.801   1.142   0.923 -0.5903  0.3341  0.4313
 9295TIP3    H249377   3.673   1.194   0.985 -0.1290  0.6573  1.1260
 9296TIP3   OH249378   4.923   3.552   0.084  0.5939 -0.1868 -0.1896
 9296TIP3    H149379   4.949   3.460   0.089  0.0025 -0.3009  1.3052
 9296TIP3    H249380   4.889   3.572   0.171 -1.4227  0.8115 -1.1391
 9297TIP3   OH249381   2.182   1.779   5.142  0.7546  0.4422  0.1272
 9297TIP3    H149382   2.094   1.801   5.173 -0.0851  1.3772 -2.6723
 9297TIP3    H249383   2.169   1.744   5.054  3.2992  2.7619 -1.3224
 9298TIP3   OH249384   5.026   2.426   0.253  0.0290 -0.0440 -0.1694
 9298TIP3    H149385   5.075   2.344   0.256  0.2874  0.1072  1.9976
 9298TIP3    H249386   4.935   2.401   0.270  0.3549  0.1691  2.4333
 9299TIP3   OH249387   0.144   0.025  11.068 -0.2685  0.0005  0.0735
 9299TIP3    H149388   0.192   0.094  11.022 -0.2470  0.1909  0.3801
 9299TIP3    H249389   0.168   0.036  11.160 -2.8168  1.7252  0.6386
 9300TIP3   OH249390   1.993   0.403   2.120  0.0640 -0.2894  0.0784
 9300TIP3    H149391   2.036   0.331   2.166  1.8624 -1.9553 -3.8140
 9300TIP3    H249392   1.905   0.369   2.099  0.0653 -0.4178  0.2782
 9301TIP3   OH249393   3.915   1.350  11.219  0.2248 -0.0641  0.7737
 9301TIP3    H149394   3.936   1.270  11.266 -0.4069 -1.0624 -0.5750
 9301TIP3    H249395   3.989   1.364  11.160 -0.1445 -0.2773  0.2446
 9302TIP3   OH249396   3.064   0.215   4.738  0.1451 -0.3230 -0.4917
 9302TIP3    H149397   3.029   0.129   4.758  1.7232 -0.9726 -0.4167
 9302TIP3    H249398   3.128   0.200   4.668  0.3445  0.8018 -0.5754
 9303TIP3   OH249399   4.190   0.257  12.085  0.8240  0.2364 -0.7440
 9303TIP3    H149400   4.169   0.307  12.006 -0.2382  1.3514  0.2012
 9303TIP3    H249401   4.255   0.310  12.131 -0.2831  0.7696  0.2481
 9304TIP3   OH249402   2.503   2.878   3.582  0.0662 -0.0114 -0.2562
 9304TIP3    H149403   2.586   2.910   3.547  1.0416 -0.8568  1.1922
 9304TIP3    H249404   2.479   2.805   3.524  1.7290 -1.4811  0.8125
 9305TIP3   OH249405   2.227   6.637  15.844  0.4560 -0.3869  0.8888
 9305TIP3    H149406   2.210   6.687  15.924 -1.6381 -0.1071  0.3433
 9305TIP3    H249407   2.318   6.656  15.822  0.6130  0.7504  2.3569
 9306TIP3   OH249408   1.841   3.672   0.168  0.0508 -0.4689  0.4416
 9306TIP3    H149409   1.872   3.651   0.256  0.0179  0.6484  0.7344
 9306TIP3    H249410   1.862   3.594   0.116  0.6800 -0.8781  1.2841
 9307TIP3   OH249411   1.100   1.526   3.497 -0.0008 -0.0467  0.5493
 9307TIP3    H149412   1.077   1.433   3.498 -1.3058  0.2665  0.9520
 9307TIP3    H249413   1.145   1.538   3.414  0.3682 -1.0733  0.5809
 9308TIP3   OH249414   2.746   2.421   4.754 -0.1791  0.3394 -0.0768
 9308TIP3    H149415   2.806   2.353   4.785  0.0795  1.1950  1.3872
 9308TIP3    H249416   2.667   2.409   4.806 -0.7602  0.1536 -0.9654
 9309TIP3   OH249417   0.992   2.536   0.870 -0.1280 -0.5258 -1.0373
 9309TIP3    H149418   0.975   2.451   0.829 -1.8519 -0.9005  0.3756
 9309TIP3    H249419   1.036   2.515   0.952 -1.8276 -0.1811 -0.0071
 9310TIP3   OH249420   1.231   0.231  14.016  0.2743  0.0138 -0.3007
 9310TIP3    H149421   1.243   0.248  14.109 -2.3979 -0.4709  0.2060
 9310TIP3    H249422   1.315   0.194  13.987  0.8620 -0.6865  2.1189
 9311TIP3   OH249423   4.868   4.191   1.458  0.1907 -0.0854 -0.6384
 9311TIP3    H149424   4.840   4.170   1.369  0.2360  0.3910 -0.7685
 9311TIP3    H249425   4.875   4.106   1.502  3.2189 -0.6770 -1.9927
 9312TIP3   OH249426   3.923   4.751   3.763 -0.1881 -0.2702 -0.1077
 9312TIP3    H149427   3.833   4.721   3.773 -0.4324  0.5321  0.2547
 9312TIP3    H249428   3.965   4.686   3.706 -1.1389 -0.3653 -0.7206
 9313TIP3   OH249429   0.204   2.685  13.926  0.8290 -0.0931  0.3645
 9313TIP3    H149430   0.110   2.666  13.919  0.8115 -0.3238  1.0969
 9313TIP3    H249431   0.217   2.710  14.018  1.2427  1.3769 -0.0736
 9314TIP3   OH249432   2.259   2.286   1.391  0.0829 -0.4808  0.6853
 9314TIP3    H149433   2.294   2.247   1.471 -0.5029 -0.8736  0.7617
 9314TIP3    H249434   2.333   2.289   1.331 -0.0434 -2.6437  0.3295
 9315TIP3   OH249435   4.013   0.559  11.683  0.2782 -0.0290  0.3890
 9315TIP3    H149436   3.985   0.500  11.613  1.3787  0.8844 -0.8770
 9315TIP3    H249437   4.107   0.568  11.671  0.8317 -1.1068  3.0288
 9316TIP3   OH249438   0.940   1.912  16.243 -0.2702  0.1487 -0.1023
 9316TIP3    H149439   0.890   1.992  16.255  0.4642  0.3300  2.2073
 9316TIP3    H249440   1.009   1.915  16.310 -0.4426 -2.5635  0.3386
 9317TIP3   OH249441   6.384   3.747  12.479  0.1515  0.5274  0.0116
 9317TIP3    H149442   6.340   3.793  12.407 -0.0784 -0.7492 -0.7006
 9317TIP3    H249443   6.314   3.732  12.543 -0.4336 -1.1535 -0.9476
 9318TIP3   OH249444   4.255   4.518   2.984 -0.4817  0.6850 -0.0531
 9318TIP3    H149445   4.241   4.595   3.040 -0.5919  1.3208 -0.9203
 9318TIP3    H249446   4.176   4.514   2.929 -0.3369  0.1386 -0.2273
 9319TIP3   OH249447   4.436   2.190  10.442 -0.3566 -0.4741 -0.5084
 9319TIP3    H149448   4.452   2.099  10.465 -0.8730 -0.5280 -0.3483
 9319TIP3    H249449   4.489   2.205  10.363  2.4022  0.0529  1.3017
 9320TIP3   OH249450   5.588   3.022   2.131 -0.4566  0.2269  0.1285
 9320TIP3    H149451   5.639   3.007   2.051  0.0482 -2.8711  0.8705
 9320TIP3    H249452   5.525   2.950   2.133 -0.9383  0.6418  2.1437
 9321TIP3   OH249453   4.652   1.145  11.334 -0.2699  0.1453 -0.3024
 9321TIP3    H149454   4.626   1.221  11.282 -1.8068 -0.4730 -0.4925
 9321TIP3    H249455   4.716   1.099  11.280  1.7401  1.9791  0.3842
 9322TIP3   OH249456   0.700   3.181  16.128 -0.4331  0.2217 -0.2763
 9322TIP3    H149457   0.615   3.139  16.117 -0.3765  0.6799 -3.2194
 9322TIP3    H249458   0.709   3.238  16.051  2.2919  0.6249  0.2413
 9323TIP3   OH249459   5.300   2.548  14.867  0.0234 -0.1602 -0.1115
 9323TIP3    H149460   5.309   2.453  14.858 -0.2732 -0.4061  1.7518
 9323TIP3    H249461   5.206   2.561  14.880  0.2280  0.2309  1.0452
 9324TIP3   OH249462   6.629   4.004   3.192  0.3195  0.5121 -0.6861
 9324TIP3    H149463   6.708   3.957   3.164  0.9759  1.4416 -0.4436
 9324TIP3    H249464   6.571   4.002   3.116  0.5064 -0.2940 -0.8243
 9325TIP3   OH249465   2.989   1.682  11.805 -0.0848  0.3535 -0.1373
 9325TIP3    H149466   2.972   1.649  11.717  0.1439  1.7603 -0.7372
 9325TIP3    H249467   3.024   1.770  11.792 -1.1624  1.0721  1.3870
 9326TIP3   OH249468   1.160   0.332   2.504 -0.0693 -0.3935  0.3916
 9326TIP3    H149469   1.177   0.333   2.410  0.5028 -0.4180  0.4905
 9326TIP3    H249470   1.150   0.239   2.525 -1.0489 -0.3402  0.2147
 9327TIP3   OH249471   5.917   5.704  15.774 -0.4521  0.0856  0.6306
 9327TIP3    H149472   5.836   5.672  15.736  0.6400 -2.1539 -0.0305
 9327TIP3    H249473   5.977   5.711  15.700  1.1341 -2.4505  1.5375
 9328TIP3   OH249474   3.885   2.413   4.067  0.1949  0.1891 -0.2118
 9328TIP3    H149475   3.861   2.469   4.140  1.8213 -0.0540  0.5672
 9328TIP3    H249476   3.981   2.410   4.069  0.3324  0.4803 -2.6004
 9329TIP3   OH249477   4.680   6.193  14.705  0.3317 -0.0089  0.1049
 9329TIP3    H149478   4.692   6.149  14.621 -0.5751  0.5645 -0.3462
 9329TIP3    H249479   4.729   6.275  14.696  0.2816  0.0255  0.1459
 9330TIP3   OH249480   5.618   2.252  10.444  0.2375 -0.4966 -0.0971
 9330TIP3    H149481   5.665   2.185  10.495 -1.0172 -0.9389  0.5138
 9330TIP3    H249482   5.526   2.227  10.451 -0.0361 -0.2308 -2.1173
 9331TIP3   OH249483   5.607   6.466   1.527 -0.7598 -0.6608 -0.0452
 9331TIP3    H149484   5.692   6.450   1.486 -0.4211 -1.2472  0.8319
 9331TIP3    H249485   5.555   6.509   1.460 -0.2795 -1.7167 -1.1241
 9332TIP3   OH249486   5.851   2.207   1.010  0.2077  0.8931 -0.0110
 9332TIP3    H149487   5.821   2.243   1.093  0.0439  3.9358 -1.2785
 9332TIP3    H249488   5.932   2.254   0.991 -0.7244  1.6804 -2.4200
 9333TIP3   OH249489   4.500   1.512  15.763  0.8043  0.3241  0.0632
 9333TIP3    H149490   4.507   1.492  15.856 -2.3295  0.8753  0.5469
 9333TIP3    H249491   4.500   1.427  15.720  2.3811  0.0668  0.5371
 9334TIP3   OH249492   2.747   4.601   4.077 -0.2288  0.7167  0.1594
 9334TIP3    H149493   2.732   4.692   4.049 -2.8512  0.7534  1.4328
 9334TIP3    H249494   2.718   4.599   4.168 -1.8035 -1.7716 -0.3379
 9335TIP3   OH249495   3.947   5.592   1.187 -0.0429  0.3545 -0.3016
 9335TIP3    H149496   3.908   5.674   1.157 -0.0832  0.0835 -1.0157
 9335TIP3    H249497   4.037   5.615   1.211  0.0256  0.5549 -0.7493
 9336TIP3   OH249498   3.189   6.332   3.881 -0.1333 -0.1767  0.0351
 9336TIP3    H149499   3.254   6.265   3.902  1.2676  1.0627 -0.2117
 9336TIP3    H249500   3.239   6.413   3.875 -1.7814  0.9076  0.3017
 9337TIP3   OH249501   3.695   6.287  11.909  0.3494 -0.3311  0.0770
 9337TIP3    H149502   3.607   6.310  11.940  0.2578  0.4817 -0.7469
 9337TIP3    H249503   3.709   6.197  11.940 -0.0175  0.1797  1.8273
 9338TIP3   OH249504   5.613   6.049   1.623 -0.4100  0.0774  0.4265
 9338TIP3    H149505   5.685   5.994   1.592 -1.1840 -1.8244  1.8103
 9338TIP3    H249506   5.571   6.082   1.544 -0.4413 -2.0644 -0.5084
 9339TIP3   OH249507   6.122   6.165  16.508  0.3936  0.4798  0.0096
 9339TIP3    H149508   6.135   6.187  16.415 -1.5594  0.4431 -0.3169
 9339TIP3    H249509   6.134   6.071  16.512  0.6573  0.5032 -0.1708
 9340TIP3   OH249510   6.101   3.755   3.900 -0.0363 -0.1095  0.0336
 9340TIP3    H149511   6.102   3.837   3.851  2.2372  1.8039  2.9937
 9340TIP3    H249512   6.103   3.687   3.832  1.7882  2.2908 -2.5314
 9341TIP3   OH249513   3.327   2.995  11.444 -0.2013 -0.1611 -0.3264
 9341TIP3    H149514   3.256   2.987  11.508  0.7774 -1.9848  0.6224
 9341TIP3    H249515   3.364   3.082  11.460 -0.4337 -0.3043  1.1034
 9342TIP3   OH249516   2.924   5.990   2.403 -0.0299  0.4221 -0.3320
 9342TIP3    H149517   2.979   6.029   2.336  1.1783  0.8245  0.8510
 9342TIP3    H249518   2.882   6.065   2.446  1.0606  0.3693  0.8964
 9343TIP3   OH249519   5.750   6.662  14.691  0.0657  0.1224 -0.9706
 9343TIP3    H149520   5.792   6.745  14.668  1.8891 -0.6127 -0.4430
 9343TIP3    H249521   5.764   6.653  14.785 -0.2237 -0.7292 -1.0009
 9344TIP3   OH249522   0.948   3.864   6.497 -0.6872  0.0616 -0.7133
 9344TIP3    H149523   0.990   3.880   6.581  1.9117 -1.5353 -1.5753
 9344TIP3    H249524   0.870   3.813   6.518  0.0902 -0.5861  0.7271
 9345TIP3   OH249525   5.698   0.890   5.928  0.6892 -0.2575  0.2366
 9345TIP3    H149526   5.604   0.883   5.911  0.6463 -0.1181  0.4065
 9345TIP3    H249527   5.709   0.977   5.967  1.0996  0.3331 -1.1399
 9346TIP3   OH249528   2.778   4.246   3.567  0.5367 -0.1307 -0.6307
 9346TIP3    H149529   2.752   4.173   3.624 -0.7638  0.7750 -0.0174
 9346TIP3    H249530   2.853   4.212   3.518 -0.8162 -2.3549 -1.3391
 9347TIP3   OH249531   2.389   1.792   4.569 -0.2855  0.0634 -0.1079
 9347TIP3    H149532   2.348   1.732   4.506 -0.4970  1.6399 -1.5624
 9347TIP3    H249533   2.324   1.801   4.639 -0.4290 -1.0561 -0.0857
 9348TIP3   OH249534   0.474   2.482   3.549 -0.2697  0.6901  0.7324
 9348TIP3    H149535   0.468   2.578   3.551 -2.5326  0.6303  0.0997
 9348TIP3    H249536   0.409   2.453   3.613  0.0131 -0.4337  0.5391
 9349TIP3   OH249537   0.260   5.590  11.001 -0.0099  0.3320 -0.3124
 9349TIP3    H149538   0.285   5.679  10.979  0.2528  0.1448 -0.7968
 9349TIP3    H249539   0.329   5.559  11.059  0.8922 -0.1685 -1.6105
 9350TIP3   OH249540   1.737   1.175   2.760 -0.2276  0.4696  0.3301
 9350TIP3    H149541   1.822   1.216   2.745 -0.3606  0.5886 -0.1310
 9350TIP3    H249542   1.674   1.237   2.722 -0.5983  0.8209  1.4734
 9351TIP3   OH249543   4.760   6.247   6.231  0.1298  0.1159  0.5827
 9351TIP3    H149544   4.773   6.152   6.229 -0.9586 -0.0573  1.0321
 9351TIP3    H249545   4.666   6.258   6.247  0.4038  1.2606  1.5485
 9352TIP3   OH249546   3.978   2.529  11.278 -0.3503 -0.7547 -0.1385
 9352TIP3    H149547   4.058   2.582  11.281 -0.2355 -0.9264 -0.1334
 9352TIP3    H249548   3.974   2.497  11.188 -0.8683 -0.0567 -0.3709
 9353TIP3   OH249549   3.096   5.794   5.088 -0.1799 -0.3626 -0.5207
 9353TIP3    H149550   3.191   5.787   5.100 -0.2471 -1.8698 -0.6643
 9353TIP3    H249551   3.070   5.710   5.050 -1.8947 -0.9691  1.7388
 9354TIP3   OH249552   2.120   1.401  16.417  0.0101  0.3589  0.5575
 9354TIP3    H149553   2.199   1.433  16.373  0.7830 -1.0990  0.7967
 9354TIP3    H249554   2.153   1.357  16.496 -0.9052 -1.4001  0.0109
 9355TIP3   OH249555   1.653   2.103   4.446  0.0475  0.4360 -0.3160
 9355TIP3    H149556   1.730   2.056   4.479  1.0644  1.5634 -1.0205
 9355TIP3    H249557   1.684   2.192   4.431 -1.9222  1.4821  1.3258
 9356TIP3   OH249558   3.605   0.239   3.272 -0.5137 -0.0175 -0.1336
 9356TIP3    H149559   3.529   0.184   3.292  1.5876 -2.7781  0.8814
 9356TIP3    H249560   3.680   0.186   3.296  1.8439  2.1343 -2.1646
 9357TIP3   OH249561   0.630   4.883  16.288  0.0146  0.3541 -0.0491
 9357TIP3    H149562   0.540   4.856  16.310  0.0229  0.8591  0.6376
 9357TIP3    H249563   0.670   4.902  16.372  0.1462  2.0842 -0.4667
 9358TIP3   OH249564   1.950   3.307   3.841  0.2480 -0.3454 -0.3112
 9358TIP3    H149565   1.963   3.401   3.857 -0.4287 -0.4854  1.1908
 9358TIP3    H249566   1.978   3.265   3.922  1.4057 -1.5466 -1.2932
 9359TIP3   OH249567   1.122   0.411  11.919  0.5612  0.0428 -0.5275
 9359TIP3    H149568   1.213   0.396  11.946  0.9112  0.6522 -1.3195
 9359TIP3    H249569   1.082   0.324  11.920  1.3243 -0.3261 -0.7618
 9360TIP3   OH249570   3.388   6.782   0.808  0.0213 -0.2854  0.7082
 9360TIP3    H149571   3.430   6.858   0.768  2.1641 -1.1655  1.1370
 9360TIP3    H249572   3.299   6.812   0.829  0.8263  2.1461  0.9968
 9361TIP3   OH249573   6.816   1.125  11.989 -0.4819 -0.2609 -0.5116
 9361TIP3    H149574   6.751   1.152  12.054 -0.4779  0.6603 -0.8704
 9361TIP3    H249575   6.881   1.196  11.990 -0.3898 -0.3243 -1.3849
 9362TIP3   OH249576   4.798   3.215  15.747  0.5231 -0.6256 -0.2485
 9362TIP3    H149577   4.767   3.304  15.729 -2.9217 -1.5707  0.2931
 9362TIP3    H249578   4.863   3.225  15.817 -0.0818  1.4199  0.0767
 9363TIP3   OH249579   5.879   3.983   1.019  0.0229 -0.6268 -0.5059
 9363TIP3    H149580   5.954   4.041   1.010 -1.0517  0.9581  0.2825
 9363TIP3    H249581   5.803   4.041   1.015 -1.1820 -2.1714 -1.2376
 9364TIP3   OH249582   4.997   2.931   4.689 -0.7264  0.2263 -0.0001
 9364TIP3    H149583   5.049   2.891   4.619 -2.0561  0.7256 -1.3305
 9364TIP3    H249584   4.960   2.856   4.736  0.7983 -0.1278  0.6948
 9365TIP3   OH249585   3.078   4.914  11.742  0.4218  0.1977 -0.3074
 9365TIP3    H149586   3.099   4.923  11.649 -0.9293 -0.6756 -0.7224
 9365TIP3    H249587   3.078   4.819  11.757  1.3923  0.3509  0.7810
 9366TIP3   OH249588   0.967   0.979  11.736 -0.6928 -0.0845 -0.5650
 9366TIP3    H149589   1.042   0.923  11.714 -0.5469 -0.3478  0.5332
 9366TIP3    H249590   0.897   0.917  11.759 -0.8974  0.1695 -0.4966
 9367TIP3   OH249591   1.510   5.051  16.752  0.2664  0.4994 -0.1853
 9367TIP3    H149592   1.417   5.066  16.771  0.0306 -0.4542 -0.5424
 9367TIP3    H249593   1.528   5.109  16.678 -0.1395  0.4194 -0.3505
 9368TIP3   OH249594   2.607   6.428   3.187  0.0358 -0.5835 -0.1259
 9368TIP3    H149595   2.686   6.408   3.137  1.3471  0.7561  1.3091
 9368TIP3    H249596   2.590   6.347   3.236  0.7006 -0.7975 -0.2327
 9369TIP3   OH249597   6.350   6.529  15.491  0.0974 -1.1542 -0.0964
 9369TIP3    H149598   6.289   6.585  15.539 -0.7768 -1.6698 -0.5796
 9369TIP3    H249599   6.378   6.463  15.554 -0.0055 -1.0330  0.0744
 9370TIP3   OH249600   5.692   5.124   0.078  0.4996 -0.3429  0.2413
 9370TIP3    H149601   5.609   5.166   0.053  0.1182 -1.2646 -0.1069
 9370TIP3    H249602   5.668   5.065   0.149  1.0813  0.2375  0.9247
 9371TIP3   OH249603   4.718   5.108   4.892  0.1826 -0.2701 -0.1542
 9371TIP3    H149604   4.683   5.056   4.964  0.2021  1.0082  0.8196
 9371TIP3    H249605   4.646   5.166   4.868  0.3559 -0.3256 -0.8111
 9372TIP3   OH249606   2.790   2.769  12.855  0.5139  0.1327 -0.9338
 9372TIP3    H149607   2.798   2.863  12.871 -0.3790  0.2929 -1.3919
 9372TIP3    H249608   2.767   2.732  12.940 -3.3826  0.8767 -1.4954
 9373TIP3   OH249609   2.987   6.650   0.186  0.2561 -0.2963  0.2856
 9373TIP3    H149610   2.995   6.638   0.281  0.0977 -0.4175  0.2853
 9373TIP3    H249611   3.069   6.616   0.150  1.2738  1.7798  0.5371
 9374TIP3   OH249612   0.102   0.660  17.216 -0.3763 -0.1950 -0.2916
 9374TIP3    H149613   0.083   0.742  17.262  0.4572 -0.3297  0.3106
 9374TIP3    H249614   0.197   0.657  17.210 -0.4088 -1.0121 -0.5180
 9375TIP3   OH249615   2.546   5.891   5.580 -0.6364  0.4321  0.3377
 9375TIP3    H149616   2.566   5.812   5.630 -0.2280  0.4160  0.1486
 9375TIP3    H249617   2.490   5.861   5.508 -0.1915  0.2579  0.0612
 9376TIP3   OH249618   6.771   1.061   4.554 -0.6760 -0.0768  0.2304
 9376TIP3    H149619   6.803   1.022   4.636 -0.8182  1.6501  1.1560
 9376TIP3    H249620   6.843   1.048   4.492 -1.0261 -2.4767  0.2204
 9377TIP3   OH249621   5.021   4.902   0.349 -0.3376  0.8944  0.0004
 9377TIP3    H149622   4.993   4.990   0.374 -1.6612  0.7262 -0.7952
 9377TIP3    H249623   5.022   4.903   0.254 -2.9136 -0.6354 -0.1445
 9378TIP3   OH249624   4.982   4.103  16.228 -0.6132 -0.1258 -0.2091
 9378TIP3    H149625   4.943   4.114  16.141  1.1726 -1.8846 -1.3295
 9378TIP3    H249626   5.069   4.142  16.221 -0.8781  0.7891  1.2051
 9379TIP3   OH249627   5.576   4.879  16.193  0.0772  0.0800  0.3524
 9379TIP3    H149628   5.661   4.899  16.154 -0.1359  0.0995 -0.1173
 9379TIP3    H249629   5.590   4.799  16.243  0.1741 -0.3953 -0.4229
 9380TIP3   OH249630   5.157   4.505  11.206 -0.7478 -0.2565  0.1032
 9380TIP3    H149631   5.132   4.467  11.122 -0.6545  0.6036 -0.3245
 9380TIP3    H249632   5.154   4.600  11.191  0.2206 -0.1089  0.7942
 9381TIP3   OH249633   2.322   0.854   4.544 -0.6042 -0.4103  0.2545
 9381TIP3    H149634   2.247   0.797   4.560 -0.4671 -0.0520  2.5527
 9381TIP3    H249635   2.345   0.888   4.631  0.8706  1.1862 -0.6926
 9382TIP3   OH249636   2.295   4.524   1.123  0.5200  0.0321 -0.0227
 9382TIP3    H149637   2.370   4.549   1.178  1.3039  1.6174 -1.6949
 9382TIP3    H249638   2.333   4.475   1.051 -0.2303 -0.3276 -0.1785
 9383TIP3   OH249639   1.588   1.615   1.249 -0.1270 -0.4164 -0.1182
 9383TIP3    H149640   1.636   1.680   1.301 -0.3859 -1.8286  1.9920
 9383TIP3    H249641   1.646   1.597   1.175  1.4903 -0.2648  1.0516
 9384TIP3   OH249642   1.406   4.803   2.526 -0.1530 -0.5617  0.6432
 9384TIP3    H149643   1.475   4.867   2.505  0.6076 -0.8990  2.0158
 9384TIP3    H249644   1.441   4.754   2.601 -2.2023 -0.2224  1.8857
 9385TIP3   OH249645   2.052   4.124  14.634  0.3497  0.7247 -0.2875
 9385TIP3    H149646   2.128   4.075  14.605 -0.4839 -1.1045  0.4522
 9385TIP3    H249647   2.031   4.182  14.561  1.4539  0.0806 -1.1462
 9386TIP3   OH249648   1.710   0.239  16.795  0.0937  0.7144 -0.1550
 9386TIP3    H149649   1.672   0.292  16.865 -0.7038  0.6670 -0.5440
 9386TIP3    H249650   1.738   0.301  16.729 -0.1804  0.6925 -0.2912
 9387TIP3   OH249651   1.026   2.107   2.626 -0.3409 -0.2971 -0.1796
 9387TIP3    H149652   0.969   2.035   2.654  0.1980 -0.7891 -0.3369
 9387TIP3    H249653   1.094   2.111   2.692  0.4634 -0.9143 -0.9498
 9388TIP3   OH249654   4.265   2.942  15.283 -0.0431 -0.1109 -0.8520
 9388TIP3    H149655   4.209   2.976  15.214  1.1198  1.3567 -1.1185
 9388TIP3    H249656   4.306   2.864  15.245 -2.0117 -1.3674 -0.5664
 9389TIP3   OH249657   6.790   2.956  12.180  0.3103 -0.0631  0.3427
 9389TIP3    H149658   6.781   3.050  12.196 -1.6544 -0.1627  0.1086
 9389TIP3    H249659   6.733   2.938  12.105 -0.6811 -1.6652  1.3895
 9390TIP3   OH249660   5.919   6.521   3.448 -0.7664  0.5657 -0.3879
 9390TIP3    H149661   5.972   6.568   3.384 -0.6929  0.0621 -0.7055
 9390TIP3    H249662   5.938   6.428   3.431 -1.0299  0.4160  0.1183
 9391TIP3   OH249663   3.749   2.374  12.826  0.0926 -0.0240  0.1194
 9391TIP3    H149664   3.784   2.329  12.749  1.1115  1.5528 -0.4057
 9391TIP3    H249665   3.705   2.306  12.877  0.0237 -1.2421 -1.4906
 9392TIP3   OH249666   3.822   5.806  17.142 -0.0824  0.1808  0.0008
 9392TIP3    H149667   3.897   5.794  17.200  0.4516  2.0698 -0.2322
 9392TIP3    H249668   3.746   5.791  17.199  0.4481  0.7770  0.8975
 9393TIP3   OH249669   3.314   5.332   3.054 -0.3408  0.1073  0.2940
 9393TIP3    H149670   3.372   5.313   3.128 -0.3598  1.2031  0.6076
 9393TIP3    H249671   3.372   5.370   2.988 -0.3067 -0.9654 -0.3109
 9394TIP3   OH249672   2.717   3.053   3.562 -0.0172  0.0841 -0.2632
 9394TIP3    H149673   2.784   3.116   3.535 -0.9994  0.2766 -2.5845
 9394TIP3    H249674   2.727   3.045   3.656  2.8382  0.5594 -0.4390
 9395TIP3   OH249675   4.164   1.232  12.709 -0.0954  0.2226  0.0804
 9395TIP3    H149676   4.091   1.244  12.649  0.6435  1.6157 -0.5719
 9395TIP3    H249677   4.219   1.309  12.696  1.2477 -0.5637  0.9067
 9396TIP3   OH249678   3.569   0.916  12.944 -0.0714 -0.3312  0.1931
 9396TIP3    H149679   3.520   0.949  13.019 -1.1640  1.2052 -1.1170
 9396TIP3    H249680   3.637   0.981  12.928  1.2901 -1.5440  0.8950
 9397TIP3   OH249681   5.955   0.166   0.486 -0.2636 -0.3571 -0.8509
 9397TIP3    H149682   6.004   0.086   0.467  0.4469  0.2233 -1.5510
 9397TIP3    H249683   5.910   0.186   0.404  0.2141  0.3903 -0.9426
 9398TIP3   OH249684   4.369   6.791  13.559  0.1303  0.3811  0.7268
 9398TIP3    H149685   4.378   6.750  13.473 -1.0730  1.3689  0.0958
 9398TIP3    H249686   4.459   6.811  13.585  0.5016  0.3410 -0.4520
 9399TIP3   OH249687   2.228   2.723   5.530 -0.0005 -0.3481 -0.1836
 9399TIP3    H149688   2.319   2.752   5.528 -0.3259  0.6829 -0.8004
 9399TIP3    H249689   2.179   2.794   5.489 -1.4634  0.4461  2.6292
 9400TIP3   OH249690   4.093   0.002  13.270 -0.1011  0.1380 -0.5485
 9400TIP3    H149691   4.060  -0.087  13.254  0.2484 -0.2416  0.7488
 9400TIP3    H249692   4.062   0.052  13.194 -1.3377 -0.8095 -0.7193
 9401TIP3   OH249693   2.881   3.912   1.550  0.5160  0.2113  0.3800
 9401TIP3    H149694   2.903   3.940   1.462 -2.1982 -0.2388 -0.5237
 9401TIP3    H249695   2.798   3.955   1.570  0.1039 -1.1874  1.9582
 9402TIP3   OH249696   0.408   3.587   4.898  0.7068 -0.2090  0.3639
 9402TIP3    H149697   0.444   3.655   4.840 -2.9698  3.7093  2.1406
 9402TIP3    H249698   0.458   3.596   4.979 -0.9516  1.9818  1.2525
 9403TIP3   OH249699   0.983   2.415  12.278 -0.4564  0.2044  0.0319
 9403TIP3    H149700   0.913   2.480  12.270 -1.1029 -0.2041  1.8486
 9403TIP3    H249701   0.982   2.367  12.195 -1.8300  0.6891 -0.2503
 9404TIP3   OH249702   0.451   1.944   6.961  0.3489  0.6943 -0.1099
 9404TIP3    H149703   0.452   2.001   6.884 -0.4461  1.2036  0.2438
 9404TIP3    H249704   0.386   1.877   6.940  0.6669  0.4026 -0.1763
 9405TIP3   OH249705   1.695   4.662   2.339 -0.3911  0.0202 -0.0500
 9405TIP3    H149706   1.678   4.627   2.252 -0.6873 -0.1571  0.0768
 9405TIP3    H249707   1.727   4.751   2.324  1.3148 -0.6153 -0.4360
 9406TIP3   OH249708   0.953   0.654  17.186  0.1384  0.2059 -0.3916
 9406TIP3    H149709   0.889   0.611  17.242  0.8370 -0.5182 -0.1448
 9406TIP3    H249710   0.955   0.745  17.216 -0.2646  0.0678  0.0505
 9407TIP3   OH249711   3.067   5.275   6.662 -0.0550  0.5551 -0.3436
 9407TIP3    H149712   3.026   5.200   6.706  0.2427  0.1447 -0.7546
 9407TIP3    H249713   3.100   5.239   6.579 -1.1259  1.4445 -1.1854
 9408TIP3   OH249714   4.819   6.201  13.460 -0.1576  0.2769 -0.0729
 9408TIP3    H149715   4.849   6.224  13.372 -1.5540 -1.0325 -0.9619
 9408TIP3    H249716   4.769   6.277  13.489 -1.1685  0.0798 -1.1869
 9409TIP3   OH249717   2.345   4.205   6.111 -0.0517  0.4102  0.3323
 9409TIP3    H149718   2.391   4.263   6.051 -0.2562 -0.0741 -0.3064
 9409TIP3    H249719   2.414   4.166   6.164  0.2451  0.0144 -0.3276
 9410TIP3   OH249720   0.004   0.413   6.620 -0.0906  0.8526  0.3566
 9410TIP3    H149721  -0.064   0.418   6.687  0.2704 -0.8564  0.8867
 9410TIP3    H249722  -0.043   0.390   6.540 -0.1430 -0.3862  0.7358
 9411TIP3   OH249723   5.373   5.930  14.620 -0.2127 -0.2379 -0.6690
 9411TIP3    H149724   5.339   5.964  14.703 -0.5893 -1.9543 -0.0631
 9411TIP3    H249725   5.373   6.005  14.561  0.9898  1.2842  1.1382
 9412TIP3   OH249726   6.540   2.172  12.859 -0.2035  0.4784  0.0484
 9412TIP3    H149727   6.470   2.119  12.822 -0.1404 -0.6614  1.4418
 9412TIP3    H249728   6.513   2.262  12.845 -1.7694  0.0609  0.2048
 9413TIP3   OH249729   0.376   6.436  14.247 -0.2220 -0.3859 -0.2569
 9413TIP3    H149730   0.439   6.458  14.316  0.4101 -0.1464 -0.8956
 9413TIP3    H249731   0.424   6.378  14.188 -0.0947  0.9691 -1.5460
 9414TIP3   OH249732   1.816   5.670   6.036 -0.1240 -0.1524 -0.4069
 9414TIP3    H149733   1.748   5.738   6.031 -1.4657 -1.5020 -2.5265
 9414TIP3    H249734   1.768   5.590   6.059  1.3403 -0.5451  1.5321
 9415TIP3   OH249735   1.237   0.980   5.662 -0.0617 -0.1374  0.3068
 9415TIP3    H149736   1.241   0.886   5.681  1.8059 -0.0049  0.8479
 9415TIP3    H249737   1.222   1.021   5.747  1.2924  0.1251  0.4469
 9416TIP3   OH249738   0.692   2.155  11.550  0.1483 -0.0891  0.3728
 9416TIP3    H149739   0.770   2.105  11.525  1.5684  1.0417  2.2479
 9416TIP3    H249740   0.712   2.245  11.523 -0.4440  0.2429  1.0119
 9417TIP3   OH249741   4.765   6.205  11.270 -0.0534  0.0003  0.3212
 9417TIP3    H149742   4.723   6.285  11.302  1.8720  1.2358 -0.0601
 9417TIP3    H249743   4.700   6.137  11.284 -1.7628  1.6153  0.6874
 9418TIP3   OH249744   6.076   4.369  10.628  0.4065  0.2513  0.8180
 9418TIP3    H149745   6.067   4.284  10.671  0.1890  0.3070  0.8861
 9418TIP3    H249746   5.993   4.414  10.647 -0.5447 -0.4632 -1.3175
 9419TIP3   OH249747   0.760   5.671  16.776 -0.0360  0.2119  0.6267
 9419TIP3    H149748   0.851   5.683  16.801  0.1099  0.2279  0.1097
 9419TIP3    H249749   0.727   5.760  16.761 -0.6832  0.3480  2.6237
 9420TIP3   OH249750   0.702   5.726  15.668  0.2198  0.2284  0.1948
 9420TIP3    H149751   0.658   5.647  15.638  2.6390 -1.0943 -0.1869
 9420TIP3    H249752   0.679   5.793  15.604  1.3003 -1.2632 -1.8616
 9421TIP3   OH249753   6.244   0.065   1.237 -0.5549  0.6304  0.4121
 9421TIP3    H149754   6.293   0.135   1.193 -1.6466  2.0212  1.3480
 9421TIP3    H249755   6.302  -0.011   1.232  1.7718  2.2069  1.5256
 9422TIP3   OH249756   3.369   0.073  17.254 -0.3849 -0.4394  0.0482
 9422TIP3    H149757   3.314   0.147  17.227 -0.2680 -0.5330 -0.4657
 9422TIP3    H249758   3.444   0.077  17.196  0.4430  0.0287  1.1243
 9423TIP3   OH249759   1.549   4.300  17.165 -0.4363  0.4414  0.0732
 9423TIP3    H149760   1.534   4.221  17.217  0.0256 -0.2599 -0.8354
 9423TIP3    H249761   1.468   4.313  17.117 -0.0585 -0.2562 -0.7766
 9424TIP3   OH249762   0.672   6.038  13.530  0.2335 -0.1336  0.1229
 9424TIP3    H149763   0.703   5.968  13.588 -0.1846  0.4008  1.0025
 9424TIP3    H249764   0.740   6.105  13.536 -0.5868  0.6249  1.3018
 9425TIP3   OH249765   0.410   2.026  15.350 -0.4411 -0.0598  0.0441
 9425TIP3    H149766   0.473   1.978  15.405 -0.5952 -0.1540  0.1387
 9425TIP3    H249767   0.439   2.008  15.260  0.1442  0.5465  0.0994
 9426TIP3   OH249768   4.343   2.004  14.305 -0.5915  0.2584  0.3134
 9426TIP3    H149769   4.300   2.066  14.245 -0.1357  1.1778  0.9083
 9426TIP3    H249770   4.355   2.054  14.386  2.8130  0.5206 -0.2276
 9427TIP3   OH249771   5.445   0.736  11.053 -0.5244  0.4623 -0.1302
 9427TIP3    H149772   5.412   0.686  10.979 -0.2571  0.5744 -0.3284
 9427TIP3    H249773   5.455   0.826  11.020 -0.5263  0.5410  0.0765
 9428TIP3   OH249774   6.007   4.727  14.168  0.3992  0.2057 -0.1231
 9428TIP3    H149775   6.035   4.770  14.088 -0.5223  1.1774  0.0408
 9428TIP3    H249776   6.081   4.673  14.194  1.5273  1.5170 -0.4828
 9429TIP3   OH249777   2.443   3.424   2.796 -1.0406  0.7413  0.2315
 9429TIP3    H149778   2.434   3.414   2.702 -2.5411  0.8570  0.3294
 9429TIP3    H249779   2.367   3.379   2.832  0.0333 -0.1533  1.4475
 9430TIP3   OH249780   4.753   5.097  13.366 -0.0129  0.9135 -0.4249
 9430TIP3    H149781   4.777   5.187  13.345  2.2672  1.2340  2.7966
 9430TIP3    H249782   4.809   5.043  13.311 -0.0927  1.4818 -1.0695
 9431TIP3   OH249783   6.729   5.085   1.601  0.3223 -0.2090 -0.0981
 9431TIP3    H149784   6.727   5.008   1.658  0.9836  0.0573  0.2905
 9431TIP3    H249785   6.818   5.119   1.608 -0.5962  2.0916  1.7652
 9432TIP3   OH249786   1.375   0.085  12.246 -0.1678 -0.7262  0.1247
 9432TIP3    H149787   1.299   0.134  12.276  0.0204 -0.9081  0.9448
 9432TIP3    H249788   1.349  -0.007  12.255 -0.9178 -0.8255 -2.4456
 9433TIP3   OH249789   5.304   3.709  12.197 -0.1904 -0.0343 -0.4779
 9433TIP3    H149790   5.300   3.804  12.206 -0.5509 -0.1275  0.5141
 9433TIP3    H249791   5.298   3.677  12.287 -2.7496 -1.0683 -0.9345
 9434TIP3   OH249792   0.016   6.097  12.713 -0.2966  0.1875  0.4658
 9434TIP3    H149793  -0.038   6.124  12.639 -0.0874 -3.2669 -1.1535
 9434TIP3    H249794   0.072   6.172  12.732 -0.4529  1.2454 -2.7963
 9435TIP3   OH249795   3.548   0.493  13.847 -0.4399 -0.3531  0.1310
 9435TIP3    H149796   3.624   0.521  13.897 -0.8846  1.8081 -0.2772
 9435TIP3    H249797   3.543   0.556  13.775 -2.6881 -0.3277  0.2470
 9436TIP3   OH249798   5.716   1.938   4.694 -0.6084 -0.0161  1.0244
 9436TIP3    H149799   5.677   1.857   4.725 -0.9155 -0.3391 -0.1377
 9436TIP3    H249800   5.809   1.930   4.714 -0.8317 -0.0817  2.0779
 9437TIP3   OH249801   0.679   1.795  11.904 -0.0155  0.6355 -0.2366
 9437TIP3    H149802   0.714   1.725  11.959 -0.9026  1.1574  1.0482
 9437TIP3    H249803   0.689   1.763  11.814  0.2571 -0.8246  0.2904
 9438TIP3   OH249804   5.938   0.819   1.372 -0.6366  0.0464 -0.0990
 9438TIP3    H149805   5.935   0.726   1.351 -0.3334  0.1919 -0.8127
 9438TIP3    H249806   6.000   0.826   1.445  0.3059 -0.1677 -0.8612
 9439TIP3   OH249807   1.200   6.022   6.073 -0.0550  0.1667  0.5859
 9439TIP3    H149808   1.270   6.087   6.084  1.9516 -1.4799 -1.4352
 9439TIP3    H249809   1.140   6.064   6.011  0.2300  0.8211  0.7341
 9440TIP3   OH249810   5.224   3.341   3.111 -0.0620 -0.3022  0.0662
 9440TIP3    H149811   5.313   3.333   3.148  1.5568  1.6449 -3.0298
 9440TIP3    H249812   5.200   3.432   3.125 -1.5726 -0.7622  0.6771
 9441TIP3   OH249813   2.189   1.959  15.018 -0.0282 -0.4879  0.1763
 9441TIP3    H149814   2.175   1.878  14.969  0.0411  1.3040 -3.1279
 9441TIP3    H249815   2.102   1.984  15.048 -0.2613 -1.1206  0.0457
 9442TIP3   OH249816   6.484   3.872   5.550  0.9374 -0.3057  0.1396
 9442TIP3    H149817   6.554   3.936   5.562  0.0795  0.5921  0.5048
 9442TIP3    H249818   6.494   3.811   5.623  0.2896  0.8285  1.2012
 9443TIP3   OH249819   5.013   0.168  11.044 -0.4584  0.1960  0.1922
 9443TIP3    H149820   4.941   0.177  10.981 -0.4991 -0.5585  0.1205
 9443TIP3    H249821   5.071   0.241  11.025 -1.9839  1.7725  1.2961
 9444TIP3   OH249822   3.761   4.943  12.648 -0.2732  0.0022 -0.0778
 9444TIP3    H149823   3.740   5.034  12.667 -2.2829 -0.4826  0.2022
 9444TIP3    H249824   3.736   4.931  12.556  0.4930 -0.1522 -0.2799
 9445TIP3   OH249825   1.078   4.393  14.369  0.5160 -0.0218 -0.0762
 9445TIP3    H149826   1.116   4.310  14.398 -1.3248 -0.9803 -0.2414
 9445TIP3    H249827   1.034   4.373  14.287  0.9685  1.3950 -0.7004
 9446TIP3   OH249828   1.314   0.535   1.724  0.0226 -0.3909  0.0040
 9446TIP3    H149829   1.360   0.617   1.745 -0.6444  0.1732 -0.6951
 9446TIP3    H249830   1.254   0.522   1.798 -0.0345 -0.1195  0.0078
 9447TIP3   OH249831   0.676   1.240   2.171  0.5337  0.8321 -0.6850
 9447TIP3    H149832   0.702   1.312   2.228 -0.3712  0.6494 -0.0067
 9447TIP3    H249833   0.732   1.248   2.094  2.2671  0.7048  0.5045
 9448TIP3   OH249834   1.058   3.539  11.700 -0.5740 -0.2093  0.4127
 9448TIP3    H149835   1.116   3.479  11.746 -0.3072 -0.0324  0.3110
 9448TIP3    H249836   1.108   3.567  11.623 -0.3402  0.8373  0.9244
 9449TIP3   OH249837   2.349   0.357  14.262  0.0823 -0.5536 -0.4242
 9449TIP3    H149838   2.399   0.276  14.258 -0.5720 -1.1477  2.0288
 9449TIP3    H249839   2.412   0.422  14.292 -0.1120 -0.8387  0.6128
 9450TIP3   OH249840   4.849   4.431   5.232 -0.0032  0.0875  0.0621
 9450TIP3    H149841   4.791   4.481   5.290 -1.8064 -0.8209 -0.8699
 9450TIP3    H249842   4.807   4.436   5.146  0.7743 -1.4510 -0.4442
 9451TIP3   OH249843   4.941   2.590   3.025 -0.5407  0.8885  0.0711
 9451TIP3    H149844   4.905   2.673   2.995 -0.4600  1.4215  1.4068
 9451TIP3    H249845   4.920   2.586   3.118  0.1300 -0.2372  0.1986
 9452TIP3   OH249846   1.425   0.937   3.385  0.5279  0.3705 -0.1713
 9452TIP3    H149847   1.355   0.977   3.334 -0.5171 -0.6303  0.4227
 9452TIP3    H249848   1.494   1.003   3.387  0.6256  0.4442 -2.8397
 9453TIP3   OH249849   0.971   4.078   0.732  1.1528 -0.3125 -0.0416
 9453TIP3    H149850   1.005   4.104   0.818 -0.7327  1.5338  0.2112
 9453TIP3    H249851   0.967   4.159   0.682 -0.5416 -0.8548 -0.8639
 9454TIP3   OH249852   1.403   2.827   3.812  0.6315 -0.3092  0.2696
 9454TIP3    H149853   1.480   2.799   3.763 -0.8002 -1.3114 -1.5963
 9454TIP3    H249854   1.347   2.869   3.746 -1.2041 -1.3016  1.1161
 9455TIP3   OH249855   5.635   4.864   4.122  0.0859 -0.0140 -0.4548
 9455TIP3    H149856   5.691   4.791   4.149  0.1903  0.6946  1.4320
 9455TIP3    H249857   5.645   4.870   4.027  1.1180 -1.5861 -0.4642
 9456TIP3   OH249858   0.859   5.397  11.618 -0.5063 -0.3782 -0.2352
 9456TIP3    H149859   0.946   5.377  11.583 -1.0931 -0.6867 -1.6086
 9456TIP3    H249860   0.860   5.491  11.635  0.1757 -0.4261 -0.0012
 9457TIP3   OH249861   6.256   4.932   0.577 -0.1695 -0.1282 -0.2757
 9457TIP3    H149862   6.307   4.922   0.657 -0.7410 -1.0090 -0.0184
 9457TIP3    H249863   6.220   4.845   0.559  0.5799 -0.1386 -1.9228
 9458TIP3   OH249864   4.136   2.214  16.180 -0.5942  0.3862 -0.2628
 9458TIP3    H149865   4.060   2.155  16.175 -0.0720 -0.3089 -0.0418
 9458TIP3    H249866   4.212   2.156  16.182 -0.0157  1.0923 -1.0919
 9459TIP3   OH249867   1.874   3.470  12.961  0.5370  0.3900  0.2469
 9459TIP3    H149868   1.947   3.424  12.919  1.5870  2.1980  0.0044
 9459TIP3    H249869   1.915   3.528  13.024 -0.6942  1.4147  0.1441
 9460TIP3   OH249870   0.223   2.070  17.235  0.0487 -0.0714 -0.5171
 9460TIP3    H149871   0.258   2.031  17.316  0.2950  0.3209 -0.4319
 9460TIP3    H249872   0.253   2.161  17.238  2.0633 -0.6012 -2.1886
 9461TIP3   OH249873   6.232   4.880  16.772  0.2571 -0.0777  0.3883
 9461TIP3    H149874   6.201   4.817  16.838  2.5229 -1.8744 -0.1502
 9461TIP3    H249875   6.189   4.962  16.796 -1.1866 -1.3179  2.3956
 9462TIP3   OH249876   5.667   6.277   3.754  0.1814 -0.4089 -0.2377
 9462TIP3    H149877   5.650   6.274   3.659 -0.9776  3.3027 -0.2959
 9462TIP3    H249878   5.758   6.304   3.761  0.4878 -1.4017 -0.2381
 9463TIP3   OH249879   6.000   2.988   3.699 -0.0046 -0.1489 -0.6228
 9463TIP3    H149880   6.019   2.905   3.656  2.1474 -0.3159  0.5341
 9463TIP3    H249881   6.057   3.051   3.656 -0.2557  0.3457 -0.2368
 9464TIP3   OH249882   5.176   4.097   4.793 -0.2314  0.2555  0.8840
 9464TIP3    H149883   5.246   4.066   4.735 -2.0274  1.2144 -2.0236
 9464TIP3    H249884   5.202   4.187   4.814 -0.4037  0.5096  0.0551
 9465TIP3   OH249885   4.245   3.397  12.867 -0.1016  0.1794  0.2661
 9465TIP3    H149886   4.177   3.419  12.804 -1.6945 -0.3536  1.7332
 9465TIP3    H249887   4.216   3.314  12.906  2.0591 -0.7654  0.0174
 9466TIP3   OH249888   1.653   3.739  15.866 -0.6983 -0.1616 -0.1947
 9466TIP3    H149889   1.667   3.826  15.827  1.3825 -0.0339  0.7019
 9466TIP3    H249890   1.741   3.704  15.877 -1.5157 -2.7875 -1.3206
 9467TIP3   OH249891   5.139   3.549  13.536  0.1858 -0.6983 -0.1107
 9467TIP3    H149892   5.216   3.605  13.546 -0.6753  0.3779  0.8645
 9467TIP3    H249893   5.174   3.463  13.515  1.7193 -0.4308  1.1574
 9468TIP3   OH249894   0.909   3.867   3.110 -0.5372  0.0759 -0.1341
 9468TIP3    H149895   0.823   3.826   3.101 -0.0443 -0.4910 -3.0045
 9468TIP3    H249896   0.962   3.801   3.156 -0.9208 -0.7528 -0.8429
 9469TIP3   OH249897   2.773   5.765   2.445 -0.5149 -0.3248  0.4424
 9469TIP3    H149898   2.814   5.839   2.401  0.4239  0.1598  2.0324
 9469TIP3    H249899   2.792   5.690   2.390  0.4818  0.2762 -0.0476
 9470TIP3   OH249900   0.866   0.464   1.807 -0.4967 -0.3088  0.4033
 9470TIP3    H149901   0.799   0.501   1.865 -0.6712  0.9288 -0.5390
 9470TIP3    H249902   0.877   0.374   1.837 -0.9479  0.1440  2.0185
 9471TIP3   OH249903   5.153   1.480   0.833  0.1276  0.0632 -0.3691
 9471TIP3    H149904   5.118   1.394   0.853 -0.8397  0.9345  2.0161
 9471TIP3    H249905   5.091   1.518   0.771 -2.1646  0.7815  2.1923
 9472TIP3   OH249906   0.598   1.204   4.704 -0.3382 -0.3112 -0.3046
 9472TIP3    H149907   0.692   1.186   4.698 -0.5091 -1.1880 -0.4998
 9472TIP3    H249908   0.564   1.187   4.617 -0.8144 -0.8623 -0.0207
 9473TIP3   OH249909   1.231   0.682   0.416 -0.1786  0.6417 -0.2898
 9473TIP3    H149910   1.204   0.766   0.380  1.9188  0.8330 -1.6304
 9473TIP3    H249911   1.289   0.704   0.489  1.2263  0.4496 -1.2989
 9474TIP3   OH249912   0.390   3.936   4.812 -0.4417  0.1977 -0.4800
 9474TIP3    H149913   0.345   3.912   4.893 -1.2084 -1.0155 -1.2363
 9474TIP3    H249914   0.323   3.929   4.744  0.9775 -2.3320 -1.7584
 9475TIP3   OH249915   4.712   2.611  11.196 -0.9625  0.2470 -0.0794
 9475TIP3    H149916   4.659   2.532  11.193 -1.6018  0.6726 -0.1561
 9475TIP3    H249917   4.791   2.585  11.243 -1.4553 -0.2666  0.4823
 9476TIP3   OH249918   1.867   2.566   0.530 -0.4634 -0.2618  0.2490
 9476TIP3    H149919   1.848   2.626   0.459 -0.9084  0.7069  1.1538
 9476TIP3    H249920   1.841   2.480   0.497  0.7097 -0.0693 -1.2728
 9477TIP3   OH249921   3.608   3.132   3.982  0.0064 -0.4282 -0.0997
 9477TIP3    H149922   3.620   3.079   3.903 -0.9581  0.7250 -1.0616
 9477TIP3    H249923   3.688   3.117   4.033 -0.1799 -2.7042 -0.3467
 9478TIP3   OH249924   2.371   6.805   0.244 -0.1949  0.2271  0.0006
 9478TIP3    H149925   2.446   6.855   0.277 -0.3865  0.6854 -0.2340
 9478TIP3    H249926   2.390   6.791   0.152  0.3630 -1.0954  0.3068
 9479TIP3   OH249927   5.977   3.054  14.652  0.5529  0.0690  0.6022
 9479TIP3    H149928   5.923   3.122  14.612  0.7083 -0.3975 -0.4286
 9479TIP3    H249929   6.008   3.093  14.734 -0.9814  0.5098  1.0188
 9480TIP3   OH249930   4.627   2.847  14.747  0.1612  0.7245 -0.0094
 9480TIP3    H149931   4.631   2.921  14.807  0.5687 -0.8097  1.9545
 9480TIP3    H249932   4.639   2.770  14.803 -2.9666 -1.0361 -1.5377
 9481TIP3   OH249933   6.036   1.157  10.837  0.1811  0.1924  0.8887
 9481TIP3    H149934   5.983   1.223  10.882  0.0709  0.0281  1.0018
 9481TIP3    H249935   6.126   1.188  10.849  0.1230  0.3802  0.8456
 9482TIP3   OH249936   3.880   4.612   3.145  0.4034 -0.5225  0.1892
 9482TIP3    H149937   3.878   4.552   3.220 -0.9184  0.5692  1.0910
 9482TIP3    H249938   3.912   4.559   3.072 -0.1911 -2.1679  1.0708
 9483TIP3   OH249939   1.770   4.943  11.107  0.3179 -0.0252  0.5181
 9483TIP3    H149940   1.689   4.994  11.096 -0.7752 -1.4961  1.3666
 9483TIP3    H249941   1.779   4.934  11.202  1.1861 -0.3400  0.4116
 9484TIP3   OH249942   4.268   1.986  14.959 -0.1252  0.6838 -0.2360
 9484TIP3    H149943   4.211   1.923  14.915  1.0813 -0.2569 -0.4838
 9484TIP3    H249944   4.236   1.987  15.050 -1.2771  1.0621 -0.6261
 9485TIP3   OH249945   0.270   5.119   2.964  0.4734 -0.3312  0.0023
 9485TIP3    H149946   0.216   5.180   3.013  0.9777  0.0797  0.0557
 9485TIP3    H249947   0.229   5.114   2.877  0.2504 -0.1592  0.0983
 9486TIP3   OH249948   0.465   0.218   5.714  0.0081  0.3253 -0.6376
 9486TIP3    H149949   0.503   0.145   5.663  1.6262 -0.1960  1.1735
 9486TIP3    H249950   0.540   0.275   5.731 -0.2316 -0.0308  1.9199
 9487TIP3   OH249951   4.715   4.753   5.906 -0.5010 -0.4022  0.4438
 9487TIP3    H149952   4.706   4.848   5.899  1.4804 -0.2638 -0.9775
 9487TIP3    H249953   4.808   4.737   5.889 -1.3340 -2.8413 -2.5317
 9488TIP3   OH249954   5.288   2.698   4.252  0.2652 -0.1783 -0.2297
 9488TIP3    H149955   5.224   2.645   4.204 -1.2063  1.2028  0.1218
 9488TIP3    H249956   5.326   2.638   4.316 -0.2045 -1.1891 -0.8636
 9489TIP3   OH249957   6.516   2.792  12.270  0.1016 -0.4046 -0.5073
 9489TIP3    H149958   6.599   2.827  12.236  0.7959 -0.5465  0.9524
 9489TIP3    H249959   6.474   2.867  12.311 -0.4992 -0.3452 -1.2038
 9490TIP3   OH249960   1.618   0.463   3.009  0.4965 -0.1124  0.0045
 9490TIP3    H149961   1.533   0.464   3.052  0.6924  1.5849  0.4377
 9490TIP3    H249962   1.656   0.379   3.033 -0.3651 -0.1797  1.2136
 9491TIP3   OH249963   0.617   4.079  14.110  0.6216 -0.0095  0.8176
 9491TIP3    H149964   0.706   4.107  14.088 -0.7020  2.4955 -2.0543
 9491TIP3    H249965   0.586   4.034  14.032 -0.9375 -0.0286  1.4107
 9492TIP3   OH249966   1.849   5.079  16.992  0.0016  0.2997 -0.5507
 9492TIP3    H149967   1.942   5.087  16.972  0.2024 -1.4668 -0.4652
 9492TIP3    H249968   1.823   5.167  17.021  1.6725  0.7828 -0.4118
 9493TIP3   OH249969   6.227   3.946  16.178  0.5390  0.2763 -0.3083
 9493TIP3    H149970   6.274   3.903  16.107  0.2375  1.0700 -1.0039
 9493TIP3    H249971   6.226   4.038  16.154 -0.4834  0.4143  0.2012
 9494TIP3   OH249972   2.173   5.158  13.894 -0.2085 -0.7286  0.4104
 9494TIP3    H149973   2.225   5.197  13.964  1.0178 -1.3058 -0.1440
 9494TIP3    H249974   2.223   5.080  13.868 -0.6439 -0.5426 -1.0636
 9495TIP3   OH249975   3.618   6.718   0.502 -0.0538 -0.1278 -0.2351
 9495TIP3    H149976   3.525   6.694   0.501 -0.2623  0.5060  1.4096
 9495TIP3    H249977   3.642   6.715   0.594  1.0512  1.6586 -0.4346
 9496TIP3   OH249978   0.888   2.750   3.215  0.0153  0.1426 -0.0595
 9496TIP3    H149979   0.871   2.728   3.307 -3.7623  0.2060 -0.5847
 9496TIP3    H249980   0.904   2.666   3.172 -0.0920 -0.0712  0.3174
 9497TIP3   OH249981   0.088   3.260   3.899 -0.4961 -0.5417  0.6082
 9497TIP3    H149982   0.138   3.340   3.884  2.4730 -2.0655  1.5127
 9497TIP3    H249983   0.031   3.281   3.973 -0.7921  1.1006 -0.0432
 9498TIP3   OH249984   1.952   3.023  12.976  0.2231  0.0092  0.3792
 9498TIP3    H149985   1.990   2.947  13.021  2.7443  1.6340  1.2394
 9498TIP3    H249986   1.961   3.002  12.883  0.3371 -0.9837  0.5984
 9499TIP3   OH249987   2.839   0.047   0.156 -0.1297 -0.3158  0.2884
 9499TIP3    H149988   2.824   0.030   0.063  0.0526  0.2792  0.1440
 9499TIP3    H249989   2.914  -0.008   0.179  0.5526  0.3724 -0.2080
 9500TIP3   OH249990   0.412   6.756  15.364  0.4355 -0.0642  0.3882
 9500TIP3    H149991   0.342   6.694  15.384  0.0190  1.0933  2.9645
 9500TIP3    H249992   0.486   6.701  15.337  0.3373 -1.8588  3.2976
 9501TIP3   OH249993   3.933   1.927  15.822  0.1643 -0.4938 -0.0375
 9501TIP3    H149994   4.001   1.993  15.808 -0.7527  0.6171  0.6148
 9501TIP3    H249995   3.856   1.977  15.849 -0.2913 -1.8966  1.4238
 9502TIP3   OH249996   4.388   6.206  12.214 -0.1824 -0.5097 -0.2110
 9502TIP3    H149997   4.363   6.266  12.285  0.6548 -0.4545  0.0430
 9502TIP3    H249998   4.389   6.261  12.136 -1.9149 -0.7385 -0.4376
 9503TIP3   OH249999   4.837   5.125  16.006 -0.6636  0.4669  0.5277
 9503TIP3    H150000   4.921   5.159  16.033  0.0113 -0.2290 -0.5767
 9503TIP3    H250001   4.772   5.178  16.053  0.3783  1.0095  1.3855
 9504TIP3   OH250002   2.955   3.933  16.454 -0.3051  0.0220  0.4516
 9504TIP3    H150003   2.904   3.984  16.391  0.3780  0.2832  0.0926
 9504TIP3    H250004   2.938   3.841  16.431 -0.4331  0.1105  0.1942
 9505TIP3   OH250005   6.527   6.325   4.395 -0.0135 -0.0557  0.2535
 9505TIP3    H150006   6.528   6.323   4.491  0.0122 -0.2069  0.2500
 9505TIP3    H250007   6.452   6.381   4.373 -0.1066 -0.1377  0.3595
 9506TIP3   OH250008   0.751   6.460   5.863 -0.8116  0.2886 -0.3141
 9506TIP3    H150009   0.826   6.475   5.920 -1.0864  0.9103 -0.1027
 9506TIP3    H250010   0.738   6.543   5.818 -1.2056  0.1039 -0.5482
 9507TIP3   OH250011   4.516   6.522   3.255  0.0629 -0.5692  1.2878
 9507TIP3    H150012   4.606   6.517   3.285  0.7378 -0.4240 -0.6258
 9507TIP3    H250013   4.517   6.483   3.168 -1.2364  1.6463  0.2138
 9508TIP3   OH250014   1.212   2.618  11.024  0.9752  0.4927  0.0857
 9508TIP3    H150015   1.248   2.537  11.059  0.7367  0.1587 -0.4320
 9508TIP3    H250016   1.273   2.643  10.954 -0.4228 -0.7502 -1.6571
 9509TIP3   OH250017   4.726   3.467  15.650 -0.7411  0.0836 -0.1891
 9509TIP3    H150018   4.757   3.497  15.565  0.3756 -1.5915 -0.4155
 9509TIP3    H250019   4.650   3.522  15.669  0.8579  2.6552 -0.7697
 9510TIP3   OH250020   1.787   1.482  15.802  0.2763  0.1102 -0.4077
 9510TIP3    H150021   1.729   1.500  15.728  0.3686 -1.5640 -0.9230
 9510TIP3    H250022   1.861   1.542  15.790 -0.8619  1.5972 -0.2712
 9511TIP3   OH250023   6.660   4.388   5.562  0.5699 -0.1132  0.0763
 9511TIP3    H150024   6.567   4.367   5.570  0.2959  0.5807 -1.0676
 9511TIP3    H250025   6.662   4.483   5.548  1.3082 -0.3318 -1.5773
 9512TIP3   OH250026   1.274   1.385  11.816  0.1327 -0.4483  0.0212
 9512TIP3    H150027   1.261   1.464  11.869 -0.4020 -0.6848  0.2474
 9512TIP3    H250028   1.359   1.398  11.774  0.7470 -0.4280  1.2296
 9513TIP3   OH250029   4.984   6.460  17.174  0.2956 -0.0718  0.9006
 9513TIP3    H150030   4.900   6.430  17.211  0.8431 -1.0187  1.4241
 9513TIP3    H250031   5.017   6.523  17.238  1.1956 -1.6364  2.0697
 9514TIP3   OH250032   0.488   2.578   4.068  0.7555 -0.3579  0.3268
 9514TIP3    H150033   0.495   2.674   4.060  0.2041 -0.2321  1.2251
 9514TIP3    H250034   0.579   2.549   4.077  0.8401  0.4405  3.3601
 9515TIP3   OH250035   6.343   5.341   2.961 -0.2580  0.6541 -0.1432
 9515TIP3    H150036   6.361   5.247   2.964 -1.9118  0.3253  2.0416
 9515TIP3    H250037   6.333   5.361   2.868 -0.0030 -1.3571 -0.6352
 9516TIP3   OH250038   4.499   2.487   5.294 -0.2733 -0.1206  0.4854
 9516TIP3    H150039   4.549   2.569   5.285 -1.0875  0.3395  0.0020
 9516TIP3    H250040   4.482   2.460   5.204 -0.4548 -0.5508  0.6459
 9517TIP3   OH250041   1.385   3.107  16.355 -0.0126 -0.1871 -0.7793
 9517TIP3    H150042   1.334   3.172  16.402 -0.2052  0.0769 -1.3386
 9517TIP3    H250043   1.375   3.131  16.263  1.7590  0.3352 -0.8638
 9518TIP3   OH250044   6.597   1.381  15.313  0.2246 -0.3984 -0.4845
 9518TIP3    H150045   6.516   1.349  15.351  0.7956  0.4284  1.5528
 9518TIP3    H250046   6.576   1.469  15.281  0.0259 -0.6554 -1.0696
 9519TIP3   OH250047   0.020   3.107   5.615 -0.3998 -0.0833 -0.1446
 9519TIP3    H150048  -0.050   3.068   5.563 -1.0612 -0.1928  0.8147
 9519TIP3    H250049  -0.021   3.178   5.663  0.4741  0.8139 -0.6896
 9520TIP3   OH250050   0.355   0.403   3.024  0.4654  0.1227  0.5227
 9520TIP3    H150051   0.305   0.445   2.954  0.3180 -0.5254  0.2336
 9520TIP3    H250052   0.314   0.317   3.035  1.3004 -0.2829  0.5198
 9521TIP3   OH250053   1.127   3.199   3.049  0.0289 -0.2740  0.4013
 9521TIP3    H150054   1.130   3.281   3.099 -2.5276 -0.7231  1.4516
 9521TIP3    H250055   1.054   3.212   2.988  0.7630 -1.1257 -0.6916
 9522TIP3   OH250056   3.817   4.455   1.744  0.2460 -0.0431 -0.3653
 9522TIP3    H150057   3.901   4.445   1.789  0.8129 -0.1056 -1.4095
 9522TIP3    H250058   3.839   4.450   1.651 -0.7485  1.2360 -0.6882
 9523TIP3   OH250059   2.889   2.341   5.199  0.5843  0.3309  0.5386
 9523TIP3    H150060   2.927   2.328   5.113 -1.1584  0.2966 -0.2710
 9523TIP3    H250061   2.888   2.436   5.211  0.4839  0.3552  0.3438
 9524TIP3   OH250062   1.309   6.000   4.270 -0.2291  0.3870  0.2398
 9524TIP3    H150063   1.298   5.927   4.209 -1.1164  1.8478 -1.4545
 9524TIP3    H250064   1.274   5.968   4.353 -2.0374 -0.6276 -0.8419
 9525TIP3   OH250065   0.477   1.935   2.163 -0.3808 -0.2501 -0.0138
 9525TIP3    H150066   0.561   1.888   2.162 -0.8983 -1.1915 -0.4685
 9525TIP3    H250067   0.434   1.908   2.081 -1.8084 -1.0529  0.9641
 9526TIP3   OH250068   6.618   3.878  13.546  0.4092  0.9893 -0.3825
 9526TIP3    H150069   6.673   3.817  13.596 -0.6398 -0.2727 -0.6965
 9526TIP3    H250070   6.539   3.888  13.598  0.0564  1.0918 -0.9327
 9527TIP3   OH250071   6.584   2.923  11.982 -0.1245 -0.0362 -0.0308
 9527TIP3    H150072   6.503   2.966  12.010 -0.2223 -0.0758 -0.2482
 9527TIP3    H250073   6.594   2.949  11.890  0.8062  1.0460  0.3469
 9528TIP3   OH250074   2.590   6.656   2.610  0.1020 -0.0268 -0.1056
 9528TIP3    H150075   2.674   6.640   2.566 -0.1543 -0.2733 -0.5116
 9528TIP3    H250076   2.524   6.633   2.545 -0.2845  0.2075  0.1977
 9529TIP3   OH250077   6.139   1.574  13.867  0.1379 -0.6042  0.5711
 9529TIP3    H150078   6.171   1.485  13.884 -1.3466 -0.9401  1.9174
 9529TIP3    H250079   6.053   1.561  13.826 -1.8410  0.0112  4.1015
 9530TIP3   OH250080   1.338   5.525   4.750 -0.0773 -0.1927  0.0089
 9530TIP3    H150081   1.314   5.511   4.841 -0.7910  1.5272  0.1226
 9530TIP3    H250082   1.427   5.490   4.743  0.1562  0.0580  1.4673
 9531TIP3   OH250083   6.522   2.623  14.586 -0.7825 -0.3500  0.1090
 9531TIP3    H150084   6.587   2.657  14.526 -0.3574 -1.8194 -0.3212
 9531TIP3    H250085   6.440   2.623  14.536 -0.7584 -0.0852  0.0707
 9532TIP3   OH250086   2.481   0.462  11.314 -0.1660  0.2938  0.5920
 9532TIP3    H150087   2.505   0.411  11.236 -1.1674  2.6390 -1.4110
 9532TIP3    H250088   2.552   0.526  11.323 -0.0128 -0.0135  1.7132
 9533TIP3   OH250089   4.565   1.399   2.391  0.1404  0.4092  1.2661
 9533TIP3    H150090   4.554   1.363   2.304 -1.5817  1.5621  0.9468
 9533TIP3    H250091   4.550   1.325   2.450  0.2067 -0.1442  0.6002
 9534TIP3   OH250092   3.213   0.788   4.409  0.0826 -0.2761  0.2105
 9534TIP3    H150093   3.229   0.737   4.330 -2.2606  0.0015 -0.5039
 9534TIP3    H250094   3.167   0.727   4.467  0.4901 -0.0306  0.8012
 9535TIP3   OH250095   5.906   5.482   4.085 -0.1393 -0.4263 -0.0768
 9535TIP3    H150096   5.997   5.511   4.089  0.0846 -0.9607 -1.0727
 9535TIP3    H250097   5.855   5.563   4.095  0.4610  0.1344 -1.3437
 9536TIP3   OH250098   4.228   0.103  17.255 -0.2320  0.0120 -0.1545
 9536TIP3    H150099   4.226   0.042  17.329  0.2712 -0.3587 -0.4363
 9536TIP3    H250100   4.152   0.079  17.202  1.3152 -2.0725 -1.5715
 9537TIP3   OH250101   0.704   2.328  12.228 -0.1386 -0.0470  0.2823
 9537TIP3    H150102   0.704   2.338  12.133  0.4858 -0.3411  0.2458
 9537TIP3    H250103   0.730   2.415  12.261 -1.9519  0.5478  0.2658
 9538TIP3   OH250104   1.963   1.226   0.179 -0.4692 -0.0234 -0.2869
 9538TIP3    H150105   1.956   1.130   0.181 -1.4709  0.0256 -1.1071
 9538TIP3    H250106   1.938   1.250   0.090 -0.1606  1.0103 -0.1054
 9539TIP3   OH250107   5.721   6.435  13.427  0.7370 -0.2619 -0.1839
 9539TIP3    H150108   5.669   6.475  13.497 -0.1344  0.4321 -1.1887
 9539TIP3    H250109   5.788   6.385  13.473  0.1896  0.1638  1.1460
 9540TIP3   OH250110   0.146   6.551  14.788 -0.2631  0.2745  0.6960
 9540TIP3    H150111   0.061   6.565  14.830 -0.3593 -2.2168  1.4571
 9540TIP3    H250112   0.197   6.504  14.853  1.6421  1.4528  0.1262
 9541TIP3   OH250113   4.494   4.899   1.670 -0.3209  1.0476 -0.2981
 9541TIP3    H150114   4.429   4.932   1.608  2.0931  1.7922 -2.6606
 9541TIP3    H250115   4.541   4.831   1.620 -0.8482 -1.3080  2.1872
 9542TIP3   OH250116   4.674   2.498  11.765 -0.2738  0.1228  0.1399
 9542TIP3    H150117   4.718   2.434  11.708 -0.3129  0.6224 -0.4667
 9542TIP3    H250118   4.705   2.583  11.734 -3.3273  0.6875 -1.8815
 9543TIP3   OH250119   6.486   1.317   4.724  0.2307 -0.4034 -0.5160
 9543TIP3    H150120   6.542   1.361   4.788  0.9900 -1.3652 -0.4995
 9543TIP3    H250121   6.496   1.224   4.743 -0.8101 -0.6240 -0.9933
 9544TIP3   OH250122   2.134   1.265   4.944 -0.4127 -0.3415 -0.6608
 9544TIP3    H150123   2.169   1.281   4.856 -1.1452 -0.1265 -0.9242
 9544TIP3    H250124   2.204   1.291   5.003  1.6873 -4.0989 -1.1486
 9545TIP3   OH250125   4.945   6.152  16.063  0.4122 -0.1024 -0.1999
 9545TIP3    H150126   4.946   6.056  16.062  0.7691 -0.1181  0.9454
 9545TIP3    H250127   4.916   6.176  16.151 -1.2856  0.8633 -0.9618
 9546TIP3   OH250128   4.022   5.341   1.976 -0.5602 -0.3877  0.1932
 9546TIP3    H150129   4.026   5.377   1.887  0.1080  0.0576  0.3975
 9546TIP3    H250130   4.052   5.251   1.967 -1.0937 -0.5380 -0.1297
 9547TIP3   OH250131   1.783   0.517  11.991  0.6251 -0.4915 -0.1889
 9547TIP3    H150132   1.720   0.465  11.942  0.8183  0.4720 -1.4941
 9547TIP3    H250133   1.857   0.457  12.005  0.3079 -0.9657 -0.5039
 9548TIP3   OH250134   3.078   5.059  12.265 -0.4584  0.3048 -0.3507
 9548TIP3    H150135   3.117   5.083  12.181 -1.1552  1.0725 -0.4755
 9548TIP3    H250136   3.120   4.977  12.289 -0.1705  0.1304 -1.3975
 9549TIP3   OH250137   0.736   0.247  15.072 -0.1481  0.0196 -0.5972
 9549TIP3    H150138   0.670   0.315  15.065  1.1039  1.2279 -1.1612
 9549TIP3    H250139   0.711   0.196  15.149 -1.4933  0.6800 -0.5827
 9550TIP3   OH250140   1.805   4.565   4.832  0.1142  0.3315 -0.5920
 9550TIP3    H150141   1.883   4.559   4.776  1.1134  0.1650  0.7652
 9550TIP3    H250142   1.802   4.481   4.877 -1.1187  0.1765 -0.9366
 9551TIP3   OH250143   3.576   6.580  12.122  0.1999  0.3641 -0.3752
 9551TIP3    H150144   3.613   6.521  12.189  0.6495 -0.8012 -1.6085
 9551TIP3    H250145   3.650   6.631  12.092 -0.1831  1.5802  0.6596
 9552TIP3   OH250146   1.219   6.732   0.735  0.1479  0.1098  0.5059
 9552TIP3    H150147   1.153   6.795   0.763  0.3314  0.4364  0.2130
 9552TIP3    H250148   1.234   6.752   0.642  3.2980  2.5306  1.3486
 9553TIP3   OH250149   2.577   5.652   0.785  0.1094  0.0292 -0.4862
 9553TIP3    H150150   2.568   5.591   0.859 -1.2570  0.6434 -0.0971
 9553TIP3    H250151   2.560   5.598   0.708 -1.3068 -0.0801 -0.1323
 9554TIP3   OH250152   5.606   6.424   1.010  0.3488 -0.3906 -0.1625
 9554TIP3    H150153   5.603   6.441   0.916  0.5365  1.4429  0.1308
 9554TIP3    H250154   5.528   6.372   1.027  0.7315 -1.4575 -1.4301
 9555TIP3   OH250155   3.461   4.738   2.814  0.2054 -0.0085 -0.4116
 9555TIP3    H150156   3.528   4.792   2.856  1.8584 -1.4670 -1.0875
 9555TIP3    H250157   3.411   4.701   2.887 -0.1714  1.4012  0.0842
 9556TIP3   OH250158   6.571   4.648  17.026 -0.3261  0.0734 -0.0985
 9556TIP3    H150159   6.548   4.579  16.964  1.2483 -2.5230  1.9867
 9556TIP3    H250160   6.494   4.655  17.082  0.0235 -1.1045  0.5640
 9557TIP3   OH250161   5.936   1.769   2.939 -0.1492 -0.3616  0.1214
 9557TIP3    H150162   5.963   1.833   2.873  1.6863 -1.8928 -0.6944
 9557TIP3    H250163   5.844   1.752   2.920 -0.8880  2.3907  0.7211
 9558TIP3   OH250164   2.448   6.431   3.661 -0.4820  0.2517  0.0586
 9558TIP3    H150165   2.421   6.519   3.633 -0.5730  0.0435 -0.5218
 9558TIP3    H250166   2.380   6.373   3.625  0.3480 -0.2061 -0.8133
 9559TIP3   OH250167   6.761   0.445  12.686  0.0024  1.0090  0.3249
 9559TIP3    H150168   6.679   0.402  12.660  0.6680 -1.4469  1.9402
 9559TIP3    H250169   6.800   0.473  12.603  0.6492 -3.8259 -1.3602
 9560TIP3   OH250170   3.174   3.981  14.107 -0.0589 -0.5578 -0.0304
 9560TIP3    H150171   3.259   4.005  14.069  1.6910 -1.6556  2.8029
 9560TIP3    H250172   3.179   3.886  14.118 -1.2508 -0.5225  1.0712
 9561TIP3   OH250173   6.811   4.707   4.053  0.2749  0.4507 -0.2488
 9561TIP3    H150174   6.854   4.645   4.111 -0.9391 -0.4373 -0.2744
 9561TIP3    H250175   6.883   4.752   4.008  1.1833 -0.1250  0.5994
 9562TIP3   OH250176   2.196   3.684  16.068 -0.4654 -0.1644 -0.6046
 9562TIP3    H150177   2.282   3.644  16.059  0.8666  2.1188  1.1233
 9562TIP3    H250178   2.188   3.741  15.992  0.2718  0.7948  0.0124
 9563TIP3   OH250179   3.743   0.830   4.713 -0.5540  0.1407  0.1250
 9563TIP3    H150180   3.650   0.839   4.694 -1.2198  0.7078  3.0814
 9563TIP3    H250181   3.780   0.916   4.692 -0.5654 -0.1872 -1.3728
 9564TIP3   OH250182   5.002   4.939  16.293 -0.4095 -0.0925 -0.0895
 9564TIP3    H150183   5.011   4.964  16.385  0.0952  0.0043 -0.1636
 9564TIP3    H250184   5.045   4.854  16.286 -0.8302 -0.3057 -0.1489
 9565TIP3   OH250185   4.450   3.572  14.130 -0.1296  0.6875 -0.7896
 9565TIP3    H150186   4.400   3.622  14.195  0.6547  0.9471 -0.3683
 9565TIP3    H250187   4.417   3.602  14.045 -1.6236 -0.1282 -0.5290
 9566TIP3   OH250188   1.687   0.780   2.353 -0.1844 -0.2292  0.3719
 9566TIP3    H150189   1.758   0.837   2.324 -0.3855  0.7404  1.6803
 9566TIP3    H250190   1.691   0.783   2.448 -1.6243 -0.6078  0.4666
 9567TIP3   OH250191   1.833   5.349   4.836 -0.3245 -0.3682 -0.4711
 9567TIP3    H150192   1.901   5.308   4.783 -0.2068 -2.9158  1.4444
 9567TIP3    H250193   1.869   5.434   4.861  1.9108 -1.3739 -0.0460
 9568TIP3   OH250194   6.807   0.607   1.641 -0.3454  0.4342 -0.1160
 9568TIP3    H150195   6.821   0.522   1.600  0.4525  1.2132 -1.5692
 9568TIP3    H250196   6.762   0.659   1.574 -2.0998  0.7657  1.2521
 9569TIP3   OH250197   2.883   1.612   2.210  0.0758  0.3898 -0.0266
 9569TIP3    H150198   2.829   1.656   2.145  0.8495  0.0588 -0.9114
 9569TIP3    H250199   2.820   1.562   2.263 -0.4236 -0.9104 -1.7411
 9570TIP3   OH250200   5.012   0.811   4.472 -0.1255 -0.0745  0.3432
 9570TIP3    H150201   4.976   0.737   4.521 -0.6710 -0.9140 -1.2633
 9570TIP3    H250202   5.101   0.820   4.506  0.1079 -1.7530  0.2865
 9571TIP3   OH250203   6.212   2.355  16.298 -0.1270 -0.0006 -0.9658
 9571TIP3    H150204   6.240   2.382  16.385  0.1688 -1.7339 -0.4814
 9571TIP3    H250205   6.291   2.319  16.257 -0.9058 -2.0936 -0.7362
 9572TIP3   OH250206   5.361   4.810  16.564 -0.3167 -0.1559 -0.2558
 9572TIP3    H150207   5.294   4.742  16.571 -0.8801  0.4898  1.2322
 9572TIP3    H250208   5.339   4.871  16.635  1.7241  0.1781  0.1490
 9573TIP3   OH250209   1.313   0.886   2.892  0.3842 -0.0176  0.4949
 9573TIP3    H150210   1.328   0.976   2.864  1.2605 -1.2448 -3.7085
 9573TIP3    H250211   1.400   0.853   2.914  0.5146 -0.5626 -0.7530
 9574TIP3   OH250212   4.110   4.715  11.966 -0.2064  0.6642 -0.0828
 9574TIP3    H150213   4.064   4.654  12.023  0.2829  1.7172  1.5116
 9574TIP3    H250214   4.042   4.773  11.932 -0.4583  0.2388 -0.3018
 9575TIP3   OH250215   6.203   1.350  14.841 -0.6270  0.0205  0.3244
 9575TIP3    H150216   6.108   1.360  14.835 -0.4287  1.0422 -2.5700
 9575TIP3    H250217   6.229   1.320  14.754  1.6176 -1.4315  1.4052
 9576TIP3   OH250218   4.704   5.459   3.077 -0.4191  0.6393  0.6797
 9576TIP3    H150219   4.659   5.518   3.017 -0.3964 -0.0256 -0.0070
 9576TIP3    H250220   4.644   5.449   3.151 -1.5576 -0.4592 -0.3427
 9577TIP3   OH250221   5.230   2.946   3.276 -0.1542 -0.6849  0.6891
 9577TIP3    H150222   5.266   2.999   3.346  0.1717 -0.6317  0.4860
 9577TIP3    H250223   5.213   3.008   3.204  0.8367 -0.9394  0.2186
 9578TIP3   OH250224   2.495   1.512  13.989  0.6588 -0.4653  0.0117
 9578TIP3    H150225   2.435   1.540  13.920  1.0997 -0.8519 -0.5332
 9578TIP3    H250226   2.440   1.458  14.047  0.2184  0.1057  0.1388
 9579TIP3   OH250227   4.373   2.651  15.039 -0.2780 -0.6015 -0.1622
 9579TIP3    H150228   4.337   2.597  14.969  0.5691  0.5195 -1.5152
 9579TIP3    H250229   4.347   2.740  15.016  1.3345 -0.0358  0.0967
 9580TIP3   OH250230   6.481   6.090   6.405 -0.4895 -0.1150  0.4203
 9580TIP3    H150231   6.514   6.009   6.366  0.6401  0.0884  0.9233
 9580TIP3    H250232   6.524   6.160   6.355  0.0686  0.1521  1.2518
 9581TIP3   OH250233   4.970   3.332   3.659 -0.4256  0.6197 -0.0945
 9581TIP3    H150234   5.056   3.291   3.667 -0.6214 -0.7027 -3.3282
 9581TIP3    H250235   4.908   3.259   3.666 -1.0456  0.9756 -1.5294
 9582TIP3   OH250236   2.177   6.326   6.287  0.2138 -1.1060 -0.1840
 9582TIP3    H150237   2.090   6.366   6.283  0.8601  0.4379  0.2374
 9582TIP3    H250238   2.228   6.375   6.222  1.2157 -0.7940  0.8103
 9583TIP3   OH250239   5.854   5.751  15.234 -0.8593 -0.6874 -0.0701
 9583TIP3    H150240   5.921   5.684  15.222  0.6926  0.2601  2.6184
 9583TIP3    H250241   5.799   5.718  15.305 -1.2866 -0.0025 -0.0717
 9584TIP3   OH250242   4.845   1.557  17.106 -0.3893 -0.2292  0.5225
 9584TIP3    H150243   4.805   1.622  17.164  0.4723  0.5319  0.2831
 9584TIP3    H250244   4.871   1.486  17.165  0.0202  0.3117  1.0042
 9585TIP3   OH250245   5.028   1.273  12.097  0.5752  0.3500 -0.8063
 9585TIP3    H150246   4.949   1.255  12.047  0.0375  1.6493 -0.4562
 9585TIP3    H250247   5.004   1.345  12.155  1.7381  0.1208 -0.0135
 9586TIP3   OH250248   5.496   5.350   3.767 -0.4474  0.6617 -0.8322
 9586TIP3    H150249   5.409   5.367   3.730 -0.8410  0.9003  0.1915
 9586TIP3    H250250   5.521   5.433   3.807 -0.4817  0.1203  0.3424
 9587TIP3   OH250251   6.041   4.126   2.832 -0.5212 -0.3192 -0.0423
 9587TIP3    H150252   6.015   4.093   2.746  0.4680 -1.9784  0.2369
 9587TIP3    H250253   5.963   4.119   2.886 -1.1856  0.8613 -0.8105
 9588TIP3   OH250254   5.292   6.480  11.857  0.1004 -0.1623 -0.9074
 9588TIP3    H150255   5.270   6.538  11.784 -2.0980 -2.0158 -1.8472
 9588TIP3    H250256   5.215   6.424  11.867  0.2195  0.0905  3.0027
 9589TIP3   OH250257   6.460   4.484  11.220 -0.1368  0.2179 -0.3334
 9589TIP3    H150258   6.431   4.565  11.261  0.9450 -0.4418  1.8794
 9589TIP3    H250259   6.531   4.510  11.162 -0.7328  1.0104 -0.7144
 9590TIP3   OH250260   5.516   1.055   5.677 -0.7050 -1.1072  0.3528
 9590TIP3    H150261   5.447   1.120   5.689 -1.3213 -1.8204  0.7907
 9590TIP3    H250262   5.503   0.993   5.749  1.2798 -0.4950  1.2905
 9591TIP3   OH250263   6.597   5.694  14.008  0.2604 -0.2128 -0.5981
 9591TIP3    H150264   6.661   5.722  14.074 -0.8310  0.5170  0.2007
 9591TIP3    H250265   6.568   5.609  14.038 -1.7453  0.9764  1.0994
 9592TIP3   OH250266   1.587   2.058  12.694  0.2509  0.4408  0.0041
 9592TIP3    H150267   1.682   2.048  12.684  0.7076  2.1037  2.0698
 9592TIP3    H250268   1.550   2.000  12.628  2.6872 -1.3352  0.0781
 9593TIP3   OH250269   3.064   5.533   1.093 -0.5838 -0.1602 -0.6835
 9593TIP3    H150270   3.070   5.552   1.187 -0.1757 -1.7738 -0.3508
 9593TIP3    H250271   2.983   5.482   1.085 -0.9826  0.5456 -1.3398
 9594TIP3   OH250272   3.467   0.702  15.481 -0.1922  0.0367  0.4708
 9594TIP3    H150273   3.449   0.633  15.546 -0.3421  2.4046  3.1208
 9594TIP3    H250274   3.562   0.716  15.489 -0.4056  1.1922  1.1495
 9595TIP3   OH250275   4.246   2.697  14.380  0.0983 -0.0720  0.2943
 9595TIP3    H150276   4.202   2.781  14.391 -1.3580 -0.2230 -3.0075
 9595TIP3    H250277   4.175   2.633  14.374  0.9912 -1.0275 -0.6318
 9596TIP3   OH250278   4.404   1.462  13.085 -0.4385  0.3629 -0.1391
 9596TIP3    H150279   4.326   1.409  13.102 -0.7959  0.5587 -1.1257
 9596TIP3    H250280   4.465   1.438  13.155 -1.2246 -0.0991  0.3997
 9597TIP3   OH250281   1.000   6.446  11.679  0.3977 -0.2034  0.9671
 9597TIP3    H150282   0.952   6.369  11.648 -0.0705 -0.1198  1.4762
 9597TIP3    H250283   0.937   6.518  11.676  1.5321  0.8278 -2.1490
 9598TIP3   OH250284   5.663   5.960   1.165  0.6655 -0.1318 -0.3534
 9598TIP3    H150285   5.600   5.900   1.205 -1.0907 -0.4996 -3.3949
 9598TIP3    H250286   5.748   5.930   1.197 -0.4665 -1.2032  1.9215
 9599TIP3   OH250287   1.512   5.573   0.862 -0.2013 -0.5557  0.1191
 9599TIP3    H150288   1.495   5.623   0.941  0.5333  0.5560 -0.4084
 9599TIP3    H250289   1.595   5.529   0.878 -1.0392 -2.0189  0.7471
 9600TIP3   OH250290   0.764   0.264   6.287 -0.4638  0.2427  0.0364
 9600TIP3    H150291   0.691   0.237   6.342 -0.2019  1.1860  0.8507
 9600TIP3    H250292   0.796   0.345   6.326  0.7595  0.0628 -0.5498
 9601TIP3   OH250293   2.092   3.069   2.122 -0.1916 -0.1081  0.0010
 9601TIP3    H150294   2.113   2.994   2.066 -1.1747  0.5879 -1.3300
 9601TIP3    H250295   2.137   3.049   2.205 -0.2834 -2.0780 -0.3686
 9602TIP3   OH250296   1.325   1.294   0.802 -0.1468 -0.2102 -0.0824
 9602TIP3    H150297   1.381   1.311   0.878  2.2309  0.1005 -1.7870
 9602TIP3    H250298   1.268   1.222   0.829  1.6062 -1.0723  1.5241
 9603TIP3   OH250299   6.489   5.243   0.088  0.4225  0.0128 -0.3004
 9603TIP3    H150300   6.568   5.292   0.110  0.6487  0.2338 -1.5431
 9603TIP3    H250301   6.506   5.208   0.000 -0.1795 -1.3692  0.1041
 9604TIP3   OH250302   3.408   5.582   1.345 -0.0008 -0.2606  0.9040
 9604TIP3    H150303   3.481   5.640   1.367 -0.3466 -0.9461  4.4493
 9604TIP3    H250304   3.448   5.495   1.338  0.0865 -0.0794 -1.5364
 9605TIP3   OH250305   4.435   5.364   5.751  0.2075  0.5020 -0.2898
 9605TIP3    H150306   4.394   5.396   5.831  0.0580  0.8450 -0.5014
 9605TIP3    H250307   4.510   5.423   5.737 -0.0980  0.8033 -0.7083
 9606TIP3   OH250308   4.682   3.828  15.874 -0.0815 -0.0324 -0.1358
 9606TIP3    H150309   4.775   3.808  15.866  0.0376  0.4524 -0.0545
 9606TIP3    H250310   4.637   3.744  15.863  0.3233 -0.1597 -0.8883
 9607TIP3   OH250311   3.145   1.844  12.915 -0.3008 -0.2667 -0.1185
 9607TIP3    H150312   3.118   1.812  13.001 -0.4107 -0.1190 -0.0964
 9607TIP3    H250313   3.200   1.775  12.879 -1.6924 -1.1213 -0.6798
 9608TIP3   OH250314   5.184   1.064  11.327 -0.1040  0.5552 -0.0520
 9608TIP3    H150315   5.195   1.104  11.413  1.0026 -0.0839  0.1402
 9608TIP3    H250316   5.183   0.970  11.345 -2.3198  0.4410 -0.5186
 9609TIP3   OH250317   5.985   5.789   2.366 -0.0045 -0.1094  0.2343
 9609TIP3    H150318   6.007   5.849   2.295  1.6449 -0.9593 -0.0009
 9609TIP3    H250319   5.937   5.718   2.324 -0.4160  0.1673  0.2318
 9610TIP3   OH250320   1.457   5.197  11.717  0.1261  0.2903  0.0919
 9610TIP3    H150321   1.464   5.119  11.662 -0.7104  0.3246 -0.0856
 9610TIP3    H250322   1.399   5.171  11.789 -0.4692  0.8380 -0.1723
 9611TIP3   OH250323   6.206   2.624  15.120  0.1239 -0.3515 -0.7176
 9611TIP3    H150324   6.130   2.611  15.178 -0.3576  1.5036 -0.8898
 9611TIP3    H250325   6.188   2.706  15.074  2.6723  0.6580 -0.0793
 9612TIP3   OH250326   1.911   1.644   4.541  0.2237  0.6363  0.4843
 9612TIP3    H150327   1.964   1.646   4.462 -0.1716  0.1198  0.1987
 9612TIP3    H250328   1.921   1.555   4.575 -0.6066  0.4663  0.3127
 9613TIP3   OH250329   0.895   3.101  15.711  0.4855  0.1030  0.0888
 9613TIP3    H150330   0.817   3.153  15.728 -0.7327 -1.2442 -1.1736
 9613TIP3    H250331   0.907   3.049  15.791  0.6123  0.9068  0.6106
 9614TIP3   OH250332   1.195   1.307   1.497  0.1117 -0.9302  0.2936
 9614TIP3    H150333   1.270   1.273   1.545 -0.5280 -0.2801  1.8352
 9614TIP3    H250334   1.177   1.392   1.539 -0.5068 -0.3491 -1.0918
 9615TIP3   OH250335   2.633   2.831  15.113 -0.3657 -0.7323 -0.1714
 9615TIP3    H150336   2.727   2.827  15.132 -0.1088 -1.1668 -1.4444
 9615TIP3    H250337   2.592   2.787  15.187  0.4326 -0.5537  0.3917
 9616TIP3   OH250338   3.568   6.668   5.751  0.1610  0.2641 -0.2649
 9616TIP3    H150339   3.568   6.681   5.845 -0.3605  0.3465 -0.2742
 9616TIP3    H250340   3.620   6.740   5.716  0.5474  0.1019 -0.0239
 9617TIP3   OH250341   3.261   3.778   2.186  0.4966 -0.6976 -0.4179
 9617TIP3    H150342   3.212   3.695   2.185 -0.6748 -0.0316 -0.0290
 9617TIP3    H250343   3.257   3.808   2.276  2.8085 -1.2617 -0.0635
 9618TIP3   OH250344   6.721   6.241  13.694  0.5358 -0.2982 -0.0277
 9618TIP3    H150345   6.738   6.169  13.755 -1.9500 -1.5493 -0.6743
 9618TIP3    H250346   6.639   6.279  13.725  0.4254  0.5103 -1.2628
 9619TIP3   OH250347   2.905   5.723   6.627  0.3702 -0.2859 -0.1693
 9619TIP3    H150348   2.977   5.680   6.580 -0.3076 -0.3320 -1.1805
 9619TIP3    H250349   2.873   5.655   6.686 -2.2095 -2.1257 -3.3527
 9620TIP3   OH250350   6.549   2.154   5.219 -0.3293 -0.5503  0.6978
 9620TIP3    H150351   6.587   2.196   5.296 -0.2826  1.5513 -0.3834
 9620TIP3    H250352   6.493   2.084   5.254 -1.2847  1.1152  2.7129
 9621TIP3   OH250353   3.383   6.118   2.618 -0.2621  0.1929  0.2259
 9621TIP3    H150354   3.330   6.167   2.555  0.4923  1.2181  0.3585
 9621TIP3    H250355   3.413   6.041   2.570 -0.3236  0.5699 -0.4339
 9622TIP3   OH250356   0.248   4.081  14.443 -0.0323  0.2618 -0.0605
 9622TIP3    H150357   0.197   4.141  14.498 -2.9995 -1.7386 -0.3825
 9622TIP3    H250358   0.202   4.080  14.359  1.8652 -0.0502 -1.1502
 9623TIP3   OH250359   6.391   3.261  13.378 -0.0494  0.1343  0.0764
 9623TIP3    H150360   6.472   3.271  13.427  0.4007 -0.0666 -0.6057
 9623TIP3    H250361   6.420   3.237  13.290 -0.8786 -2.1451  0.3439
 9624TIP3   OH250362   0.631   3.473  11.257 -0.3670 -0.4765 -0.2614
 9624TIP3    H150363   0.655   3.408  11.190 -2.5564 -0.8395 -0.7794
 9624TIP3    H250364   0.679   3.552  11.232  1.0603 -1.4021 -0.5781
 9625TIP3   OH250365   4.765   4.647  14.428  0.2245 -0.1554  0.3636
 9625TIP3    H150366   4.705   4.573  14.418  0.5802 -0.4662  0.4959
 9625TIP3    H250367   4.758   4.696  14.346  1.8856 -1.7525 -0.8181
 9626TIP3   OH250368   5.077   1.551   3.182 -1.4178 -0.0610  0.2018
 9626TIP3    H150369   5.102   1.519   3.269 -0.3025  1.8948  0.6640
 9626TIP3    H250370   5.005   1.613   3.199 -0.7654  0.8216 -0.1640
 9627TIP3   OH250371   3.861   5.051   0.318  0.1990  0.3983  0.3800
 9627TIP3    H150372   3.804   5.069   0.393 -0.0994  1.2973 -0.0458
 9627TIP3    H250373   3.942   5.018   0.357 -0.8285 -1.5699  0.9599
 9628TIP3   OH250374   4.002   2.438   3.325  0.2174 -0.0165 -0.1547
 9628TIP3    H150375   4.096   2.429   3.337  0.1694 -3.8186 -1.3060
 9628TIP3    H250376   3.964   2.399   3.404 -0.2933 -1.9338 -1.2992
 9629TIP3   OH250377   2.392   3.225   3.707  0.5221  0.3669 -0.3680
 9629TIP3    H150378   2.380   3.218   3.802 -0.0854 -1.7397 -0.5614
 9629TIP3    H250379   2.484   3.202   3.693  0.1311 -1.2587 -0.4271
 9630TIP3   OH250380   6.284   3.243  16.618 -0.4483  0.4997  0.5214
 9630TIP3    H150381   6.204   3.291  16.595 -0.0233  0.0095 -2.2845
 9630TIP3    H250382   6.346   3.311  16.643 -1.6163  0.9023  2.5509
 9631TIP3   OH250383   1.512   6.285  15.574 -0.0518  0.4020 -0.4884
 9631TIP3    H150384   1.605   6.276  15.553 -0.5142  2.0388 -3.8395
 9631TIP3    H250385   1.467   6.235  15.505 -1.6856  1.6689 -0.3920
 9632TIP3   OH250386   6.687   2.900   4.983 -0.2988 -0.2920 -0.2067
 9632TIP3    H150387   6.615   2.909   5.045  0.2463  1.7168  0.2123
 9632TIP3    H250388   6.645   2.906   4.897 -0.9565 -2.2635 -0.0719
 9633TIP3   OH250389   3.934   6.588  10.657 -0.0743 -0.6664  0.2577
 9633TIP3    H150390   3.923   6.534  10.579  0.7812 -1.9856  1.0243
 9633TIP3    H250391   3.894   6.538  10.727 -0.1707  0.1701  0.8126
 9634TIP3   OH250392   2.350   0.372   3.147 -0.3833  0.1382  0.2313
 9634TIP3    H150393   2.326   0.412   3.064 -1.7884  0.6268  0.8520
 9634TIP3    H250394   2.445   0.381   3.151 -0.2872  0.0639 -1.3282
 9635TIP3   OH250395   1.777   6.368  12.481 -0.1080 -0.7756  0.0830
 9635TIP3    H150396   1.730   6.400  12.558 -1.3949 -0.1335 -0.9253
 9635TIP3    H250397   1.713   6.374  12.410  1.5091  0.1199 -1.3671
 9636TIP3   OH250398   2.624   1.392   2.162 -1.0608  0.4595  0.4322
 9636TIP3    H150399   2.630   1.363   2.071 -0.4580 -0.7374  0.8353
 9636TIP3    H250400   2.552   1.342   2.200 -1.5611  1.2305  0.5288
 9637TIP3   OH250401   3.651   4.335  15.844 -0.1649  0.1024  0.6510
 9637TIP3    H150402   3.719   4.277  15.811 -1.1084  0.3422 -1.9459
 9637TIP3    H250403   3.697   4.415  15.867  0.6830 -0.4173  0.8112
 9638TIP3   OH250404   2.240   3.912  15.818 -0.3669 -0.6861  0.2813
 9638TIP3    H150405   2.242   3.865  15.735  2.8753  3.1748 -2.1847
 9638TIP3    H250406   2.316   3.878  15.866 -0.1244 -0.4571  0.0637
 9639TIP3   OH250407   6.091   1.595   0.762  0.0309  0.1930 -0.4819
 9639TIP3    H150408   6.085   1.501   0.778 -2.0191  0.3682  0.0835
 9639TIP3    H250409   6.171   1.622   0.807 -0.3627 -0.9889  0.9968
 9640TIP3   OH250410   3.323   1.723  12.774  0.1825 -0.3214 -0.5216
 9640TIP3    H150411   3.398   1.697  12.828 -0.9432 -0.7153  0.9251
 9640TIP3    H250412   3.355   1.718  12.684  2.0887  0.1852  0.0715
 9641TIP3   OH250413   3.241   2.918   1.185 -0.3700  0.4997 -0.0228
 9641TIP3    H150414   3.200   2.838   1.218 -1.7634  0.6055 -1.3609
 9641TIP3    H250415   3.304   2.943   1.252 -0.9961 -0.8771  1.1199
 9642TIP3   OH250416   2.682   1.219  10.885  0.3750  0.4839  0.4789
 9642TIP3    H150417   2.625   1.279  10.837  0.2989 -0.1155 -0.1996
 9642TIP3    H250418   2.745   1.189  10.820  0.7247  0.2167  0.9379
 9643TIP3   OH250419   1.440   2.055   4.262 -0.5982 -0.0095  0.1090
 9643TIP3    H150420   1.369   2.027   4.319 -0.5879  2.2091  1.3080
 9643TIP3    H250421   1.519   2.045   4.314  0.1528 -2.8678 -1.3584
 9644TIP3   OH250422   3.420   0.952  15.150  0.7984  0.0788 -0.4174
 9644TIP3    H150423   3.369   0.876  15.177 -0.1677  0.5445 -0.9036
 9644TIP3    H250424   3.412   1.013  15.224 -0.7053  0.7962 -1.1329
 9645TIP3   OH250425   6.816   3.582  16.384  0.0821  0.1927  0.2502
 9645TIP3    H150426   6.727   3.576  16.349  0.3374  0.9527 -0.5612
 9645TIP3    H250427   6.816   3.664  16.434  0.2813  0.1042  0.3979
 9646TIP3   OH250428   2.208   4.843  14.456 -0.3760 -0.0738  0.2692
 9646TIP3    H150429   2.293   4.886  14.445 -1.2592  1.5637 -0.4512
 9646TIP3    H250430   2.194   4.842  14.550  0.7552 -1.0315  0.4506
 9647TIP3   OH250431   6.254   4.943   4.751  0.1631  0.0169  0.7962
 9647TIP3    H150432   6.223   4.910   4.667 -0.7401 -1.4974  1.6761
 9647TIP3    H250433   6.342   4.976   4.733 -0.4223  0.7422 -0.9507
 9648TIP3   OH250434   3.741   6.732   4.845 -0.3045  0.3891 -0.4544
 9648TIP3    H150435   3.818   6.721   4.901 -1.4949  2.6758  1.8445
 9648TIP3    H250436   3.685   6.658   4.867  0.2064  0.0234 -0.3531
 9649TIP3   OH250437   5.304   5.124  12.629 -0.3868 -0.7082  0.5059
 9649TIP3    H150438   5.273   5.033  12.623 -1.3452 -0.5290  2.2064
 9649TIP3    H250439   5.247   5.165  12.693  0.1383  1.0870 -0.1077
 9650TIP3   OH250440   2.835   2.205  13.235  0.2764  0.1322  0.2950
 9650TIP3    H150441   2.778   2.185  13.309  0.3171 -1.2323 -0.0153
 9650TIP3    H250442   2.774   2.217  13.161  0.3045  0.3408  0.3043
 9651TIP3   OH250443   4.802   6.496   4.341 -0.0834  0.1703  0.3025
 9651TIP3    H150444   4.720   6.545   4.335 -0.1637  0.0194  0.1491
 9651TIP3    H250445   4.778   6.406   4.318  0.3349  0.3495 -0.9067
 9652TIP3   OH250446   6.321   6.515  16.434 -0.0066  0.2672  0.1918
 9652TIP3    H150447   6.404   6.542  16.396  0.4879  0.0641  1.0777
 9652TIP3    H250448   6.255   6.568  16.390  0.4058 -0.6760 -1.6716
 9653TIP3   OH250449   4.643   2.859   4.531 -0.2920 -0.2666 -0.2197
 9653TIP3    H150450   4.624   2.783   4.586 -2.5494  1.7853  2.0739
 9653TIP3    H250451   4.558   2.885   4.496  0.4488  1.1281 -1.0823
 9654TIP3   OH250452   1.912   2.651  15.381 -0.1763 -0.2034 -0.3324
 9654TIP3    H150453   1.953   2.691  15.458 -1.4468  0.3368  0.1047
 9654TIP3    H250454   1.835   2.706  15.364 -1.1783 -1.6335 -0.5881
 9655TIP3   OH250455   0.774   1.824   0.492 -0.0356  0.2476 -0.3107
 9655TIP3    H150456   0.706   1.887   0.514 -0.8287 -0.3808 -0.8973
 9655TIP3    H250457   0.847   1.845   0.551 -0.8103  0.7985  0.4626
 9656TIP3   OH250458   5.374   4.051   6.329 -0.1187 -0.0994  0.3254
 9656TIP3    H150459   5.364   4.140   6.364 -1.5896  0.3307 -1.0638
 9656TIP3    H250460   5.316   4.049   6.253  3.5267 -0.6131 -2.7709
 9657TIP3   OH250461   2.146   0.608   0.890  0.3651  0.0537 -0.1468
 9657TIP3    H150462   2.189   0.555   0.957  0.6436  0.1555 -0.2429
 9657TIP3    H250463   2.059   0.570   0.882 -0.2070  0.9441  1.3203
 9658TIP3   OH250464   4.871   3.266  11.785  0.7260 -0.3079 -0.0420
 9658TIP3    H150465   4.865   3.306  11.872  1.3481 -2.0528  0.8695
 9658TIP3    H250466   4.782   3.269  11.750  0.2565 -0.5090  1.1007
 9659TIP3   OH250467   4.792   2.146  15.440  0.8624  0.3425 -0.0334
 9659TIP3    H150468   4.746   2.184  15.514 -2.1698  1.3068 -2.2305
 9659TIP3    H250469   4.766   2.054  15.440 -0.2128  0.6222 -0.5575
 9660TIP3   OH250470   1.980   6.730   2.528  0.2211  0.1315 -0.1596
 9660TIP3    H150471   1.941   6.685   2.603  2.1942 -1.3462  0.0556
 9660TIP3    H250472   2.021   6.808   2.566  0.9166 -0.4341  0.2905
 9661TIP3   OH250473   2.103   1.525   1.864  0.4613  0.0012 -0.2276
 9661TIP3    H150474   2.014   1.489   1.868  0.6860 -0.5519 -0.1038
 9661TIP3    H250475   2.101   1.600   1.923 -0.0437  0.2628 -0.5676
 9662TIP3   OH250476   3.417   6.283  11.459  0.2677  0.1735 -0.2348
 9662TIP3    H150477   3.331   6.326  11.469  1.4270  2.1160  2.7719
 9662TIP3    H250478   3.454   6.322  11.380 -0.6463  1.1244 -0.2148
 9663TIP3   OH250479   5.592   3.861   4.057 -0.4447 -0.1952  0.3968
 9663TIP3    H150480   5.538   3.884   3.981  2.0162  0.8529 -1.1993
 9663TIP3    H250481   5.630   3.776   4.035  1.1621  0.6192 -0.1640
 9664TIP3   OH250482   0.710   4.943  14.714  0.4741 -0.3399  0.4833
 9664TIP3    H150483   0.680   4.992  14.638  1.1747  0.3900  0.6589
 9664TIP3    H250484   0.670   4.856  14.705 -0.9852  0.3125  0.2751
 9665TIP3   OH250485   3.891   3.317  12.137  0.3287  0.1210 -0.5056
 9665TIP3    H150486   3.944   3.238  12.124  0.7048 -0.4088  3.2404
 9665TIP3    H250487   3.809   3.285  12.174 -0.2235  1.3797 -0.5946
 9666TIP3   OH250488   4.916   5.094   2.765 -0.1158 -0.3723  0.3880
 9666TIP3    H150489   4.903   5.116   2.673  1.2381 -2.7722 -0.4531
 9666TIP3    H250490   4.941   5.002   2.765  2.3000  0.1376  2.9364
 9667TIP3   OH250491   1.148   4.647   2.557 -0.7024  0.7359  0.3759
 9667TIP3    H150492   1.222   4.637   2.497 -0.6675  1.1630  0.3400
 9667TIP3    H250493   1.076   4.676   2.501 -0.9868 -0.0035  0.3587
 9668TIP3   OH250494   3.783   3.937   5.817 -0.1729 -0.2687  0.1615
 9668TIP3    H150495   3.696   3.899   5.831 -0.0485 -0.6647 -0.1386
 9668TIP3    H250496   3.832   3.869   5.772  1.0472 -0.9426  2.3677
 9669TIP3   OH250497   1.647   6.549   5.138  0.1000 -0.2501  0.3619
 9669TIP3    H150498   1.629   6.643   5.127  0.5480 -0.0633  1.2019
 9669TIP3    H250499   1.592   6.522   5.211 -0.5323 -0.8017 -0.3038
 9670TIP3   OH250500   2.519   3.072   4.580  0.0463  0.0860 -0.0754
 9670TIP3    H150501   2.578   3.065   4.656  0.5859 -0.0634 -0.5070
 9670TIP3    H250502   2.544   3.154   4.538  1.7122 -1.1645 -1.7117
 9671TIP3   OH250503   5.760   4.335  14.522  0.1104 -0.5410 -0.0307
 9671TIP3    H150504   5.812   4.255  14.510  0.3665 -0.2626 -0.8469
 9671TIP3    H250505   5.786   4.391  14.449  0.3079  0.4907  0.8052
 9672TIP3   OH250506   1.773   0.633  13.043 -0.1484  0.4692 -0.7370
 9672TIP3    H150507   1.831   0.664  12.973 -0.4292  0.2940 -1.0481
 9672TIP3    H250508   1.775   0.703  13.109 -0.3302  0.8953 -1.1783
 9673TIP3   OH250509   2.230   1.316  16.141 -0.2945 -0.1146  0.3571
 9673TIP3    H150510   2.213   1.251  16.209  0.9393 -1.5860 -0.6395
 9673TIP3    H250511   2.289   1.270  16.080  2.0435  2.5003  0.4599
 9674TIP3   OH250512   2.085   0.864  16.032  0.7231  0.1487 -0.1381
 9674TIP3    H150513   2.057   0.895  16.118  2.1512 -0.1155  0.4518
 9674TIP3    H250514   2.079   0.768  16.038 -0.5732  0.1623 -0.8534
 9675TIP3   OH250515   4.083   3.147  13.223 -0.4349  0.2105 -0.5003
 9675TIP3    H150516   4.068   3.127  13.315 -0.3736 -1.7224 -0.8730
 9675TIP3    H250517   4.178   3.160  13.217 -0.4305  0.2766 -0.3054
 9676TIP3   OH250518   2.209   0.598   5.505 -0.1100  0.3570  0.4677
 9676TIP3    H150519   2.185   0.656   5.433 -3.0128 -2.1409 -0.7851
 9676TIP3    H250520   2.265   0.532   5.466 -0.5457 -0.2193  0.7873
 9677TIP3   OH250521   2.497   5.890   3.000  0.6922 -0.0932  0.4122
 9677TIP3    H150522   2.557   5.964   3.005  1.9861 -1.1159  0.6975
 9677TIP3    H250523   2.549   5.815   3.031 -0.5671 -1.1201  0.1321
 9678TIP3   OH250524   5.396   6.467   3.013  0.5603  0.5874  0.0521
 9678TIP3    H150525   5.463   6.534   3.021  0.3496  0.7540  0.4353
 9678TIP3    H250526   5.363   6.476   2.923  0.2821  1.2323  0.2190
 9679TIP3   OH250527   5.384   1.742   3.210 -0.3015  0.5769 -0.3089
 9679TIP3    H150528   5.344   1.720   3.126 -0.3109  0.0073 -0.1557
 9679TIP3    H250529   5.478   1.730   3.196 -0.4234 -1.4305  0.3049
 9680TIP3   OH250530   3.611   0.035  10.904  0.2874 -0.7523  0.6225
 9680TIP3    H150531   3.653   0.028  10.818  0.2131  1.4009  0.3535
 9680TIP3    H250532   3.680   0.009  10.966  1.9537  2.0546  0.1437
 9681TIP3   OH250533   1.612   3.829   0.636  0.1944  0.4611  0.0278
 9681TIP3    H150534   1.526   3.864   0.659  0.5659  1.7268 -0.4404
 9681TIP3    H250535   1.593   3.762   0.570 -0.4213  0.7798 -0.1293
 9682TIP3   OH250536   4.982   3.742  12.302 -0.1817 -0.2511  0.1269
 9682TIP3    H150537   4.976   3.827  12.346  0.7365  1.0461 -2.0877
 9682TIP3    H250538   5.054   3.697  12.348  1.7034  1.6205 -0.8182
 9683TIP3   OH250539   1.571   5.487  13.544 -0.4848 -0.4200 -0.0998
 9683TIP3    H150540   1.644   5.440  13.505 -1.1898 -0.1236 -1.8516
 9683TIP3    H250541   1.611   5.537  13.616  0.6557 -1.8121  0.2868
 9684TIP3   OH250542   6.027   6.769  12.522  0.4061 -0.2945  0.2068
 9684TIP3    H150543   6.059   6.859  12.508 -0.4334  0.0810  0.6112
 9684TIP3    H250544   5.954   6.760  12.461 -0.5168 -0.1375  1.2575
 9685TIP3   OH250545   0.711   5.190  12.028  0.4818  0.4285  0.4762
 9685TIP3    H150546   0.616   5.193  12.043  0.0478  0.1916 -1.7357
 9685TIP3    H250547   0.727   5.260  11.964  1.3845 -0.9193 -0.8528
 9686TIP3   OH250548   0.999   5.240   1.739 -0.3787  0.1819  0.5007
 9686TIP3    H150549   0.965   5.199   1.818 -0.2545 -0.8876  0.0185
 9686TIP3    H250550   1.071   5.296   1.770 -1.9842  1.8306  1.4305
 9687TIP3   OH250551   2.913   3.420   0.765  0.0389 -0.1360 -0.2694
 9687TIP3    H150552   2.829   3.389   0.732 -0.9010  1.3092  0.6788
 9687TIP3    H250553   2.957   3.457   0.688  0.8908 -3.0172 -1.2795
 9688TIP3   OH250554   1.527   6.349   0.904 -0.6090 -0.0899  0.4724
 9688TIP3    H150555   1.514   6.429   0.854  1.3576  0.7187  1.1177
 9688TIP3    H250556   1.622   6.335   0.902 -0.5516 -0.6197  2.9811
 9689TIP3   OH250557   2.593   1.362   5.446  0.6343 -0.3023  0.7685
 9689TIP3    H150558   2.663   1.426   5.453  3.0425 -2.3752 -1.8483
 9689TIP3    H250559   2.559   1.373   5.357  0.0238 -1.5690  0.8216
 9690TIP3   OH250560   0.379   0.144   0.925 -1.0125  0.7274  0.0270
 9690TIP3    H150561   0.408   0.057   0.897 -1.3560  0.0840  1.5876
 9690TIP3    H250562   0.290   0.131   0.957 -0.3817  1.2365  2.1224
 9691TIP3   OH250563   6.673   4.600  15.776  1.1061 -0.3451  0.1372
 9691TIP3    H150564   6.631   4.664  15.833 -1.5953 -0.5967 -1.4065
 9691TIP3    H250565   6.604   4.574  15.715  2.9013 -2.6511 -1.0438
 9692TIP3   OH250566   2.211   2.207  13.318  0.1542 -0.0384  0.6224
 9692TIP3    H150567   2.170   2.285  13.357 -1.1668 -0.3701 -0.0618
 9692TIP3    H250568   2.232   2.152  13.393 -0.1319  0.3982  1.0312
 9693TIP3   OH250569   4.862   5.657  14.136  0.3885 -0.1106 -0.0058
 9693TIP3    H150570   4.831   5.667  14.226  1.5340  1.7746  0.2401
 9693TIP3    H250571   4.796   5.602  14.093 -2.3107  2.1785  0.9205
 9694TIP3   OH250572   5.525   2.435   3.265  0.3142  0.3179 -0.0398
 9694TIP3    H150573   5.549   2.372   3.333  1.3118  0.0393 -0.6257
 9694TIP3    H250574   5.579   2.511   3.284 -0.4426  0.7806  0.3020
 9695TIP3   OH250575   0.568   6.511  12.608 -0.3812  0.5468 -0.7639
 9695TIP3    H150576   0.516   6.555  12.674 -0.5245 -3.5532  2.2608
 9695TIP3    H250577   0.516   6.434  12.583  1.2518  0.0365 -2.9980
 9696TIP3   OH250578   2.195   4.966  14.184  0.3002 -0.1270  0.4132
 9696TIP3    H150579   2.135   4.907  14.229 -1.6903 -0.0144 -1.8877
 9696TIP3    H250580   2.281   4.924  14.192 -0.6632 -2.1181  0.8472
 9697TIP3   OH250581   6.743   4.209  10.930 -0.1608 -0.0606 -0.3429
 9697TIP3    H150582   6.693   4.172  10.857 -1.8679  1.1525  0.1481
 9697TIP3    H250583   6.781   4.289  10.894  1.5250 -0.9761 -0.7129
 9698TIP3   OH250584   3.291   3.368  16.052  0.5053 -0.2964 -0.3146
 9698TIP3    H150585   3.309   3.418  16.131  2.8312  1.1537 -1.6284
 9698TIP3    H250586   3.330   3.282  16.069  1.6408  0.2354 -0.1000
 9699TIP3   OH250587   6.540   3.627   4.807  0.0056  0.0191 -0.3011
 9699TIP3    H150588   6.447   3.603   4.805  0.1809 -0.6755 -0.8954
 9699TIP3    H250589   6.576   3.585   4.729  0.8070  0.3453 -0.1114
 9700TIP3   OH250590   2.381   3.420  14.856  0.1960  0.3011  0.0917
 9700TIP3    H150591   2.456   3.479  14.853 -1.1779  2.2522  1.4984
 9700TIP3    H250592   2.336   3.435  14.773  1.4544 -1.1134 -0.9007
 9701TIP3   OH250593   2.638   3.672  10.947  0.4280  0.1755 -0.2380
 9701TIP3    H150594   2.710   3.684  11.008  1.0395  0.2435 -0.9600
 9701TIP3    H250595   2.636   3.753  10.896 -1.1007  0.7881  0.7287
 9702TIP3   OH250596   0.387   3.675  16.071 -0.0882 -0.3714 -0.5983
 9702TIP3    H150597   0.337   3.731  16.130 -0.5003 -0.5631 -0.7580
 9702TIP3    H250598   0.348   3.690  15.985  1.3393  0.8809 -1.0760
 9703TIP3   OH250599   1.588   0.589   1.201  0.2892  0.7074 -0.4977
 9703TIP3    H150600   1.577   0.683   1.213  0.0636  0.7625 -1.1185
 9703TIP3    H250601   1.522   0.550   1.259  1.4359  0.8731  0.9911
 9704TIP3   OH250602   0.450   2.466  14.844  0.3112  0.4812 -0.0612
 9704TIP3    H150603   0.421   2.425  14.925 -0.6439  0.4123 -0.4282
 9704TIP3    H250604   0.474   2.393  14.787 -0.8417  0.4378 -0.5102
 9705TIP3   OH250605   2.218   6.379  16.903 -0.1760  0.0518  0.1617
 9705TIP3    H150606   2.130   6.410  16.885 -0.9794 -1.9387  0.4597
 9705TIP3    H250607   2.275   6.441  16.857 -1.6913  1.4945  0.1363
 9706TIP3   OH250608   2.775   0.464  12.076  0.6237  0.0087  0.1398
 9706TIP3    H150609   2.865   0.440  12.052  0.1566 -0.5037 -1.2132
 9706TIP3    H250610   2.754   0.536  12.017  0.0081 -0.1619  0.1502
 9707TIP3   OH250611   1.122   4.653   3.511 -0.2366  0.7354  0.2653
 9707TIP3    H150612   1.103   4.663   3.418 -2.4194  0.6842  0.6574
 9707TIP3    H250613   1.197   4.710   3.526  0.3898  0.4596 -1.5819
 9708TIP3   OH250614   3.492   5.067  13.752 -0.4637  0.3952  0.1076
 9708TIP3    H150615   3.549   5.098  13.823  0.2705  0.1794 -0.3704
 9708TIP3    H250616   3.538   5.092  13.672 -0.1567 -1.3326 -0.2973
 9709TIP3   OH250617   4.465   3.141  16.828 -0.0740  0.1945 -0.7016
 9709TIP3    H150618   4.452   3.232  16.799  1.4738  0.2801 -1.2231
 9709TIP3    H250619   4.396   3.092  16.784 -0.0532  0.9062 -1.5621
 9710TIP3   OH250620   4.770   5.079   0.614 -0.0694  0.5335 -0.1199
 9710TIP3    H150621   4.776   4.987   0.640  0.6606  0.6388  0.1129
 9710TIP3    H250622   4.851   5.094   0.564  0.9212  1.6313  1.7283
 9711TIP3   OH250623   6.009   6.310   2.296 -0.1011 -0.3108 -0.0099
 9711TIP3    H150624   6.046   6.235   2.251  1.2901 -0.4665  1.3101
 9711TIP3    H250625   5.959   6.272   2.368 -0.9798 -0.0158 -0.4489
 9712TIP3   OH250626   1.484   2.817  12.218  0.8041 -0.3972  0.4014
 9712TIP3    H150627   1.444   2.903  12.227  1.3273  0.0970 -1.4922
 9712TIP3    H250628   1.417   2.755  12.247 -0.0763  0.5825  0.4868
 9713TIP3   OH250629   4.906   3.054   2.304 -0.4425  0.2299 -0.3854
 9713TIP3    H150630   4.882   3.106   2.228  0.3835 -1.9457 -2.2665
 9713TIP3    H250631   4.971   3.106   2.350  0.3633  0.8874 -2.1881
 9714TIP3   OH250632   2.658   0.285  11.927  0.6704 -0.5885  0.5939
 9714TIP3    H150633   2.715   0.280  11.850  0.8024  0.9811  0.5575
 9714TIP3    H250634   2.701   0.346  11.985  0.3366 -1.4188  1.7518
 9715TIP3   OH250635   4.587   6.502   2.274 -0.4891 -0.2651  0.2630
 9715TIP3    H150636   4.562   6.581   2.322 -0.9944  0.1334 -0.6390
 9715TIP3    H250637   4.681   6.513   2.257 -0.5943  0.2302 -0.0119
 9716TIP3   OH250638   4.414   0.035  11.142 -0.0306 -0.0130 -0.4349
 9716TIP3    H150639   4.424  -0.017  11.062  1.1737 -0.4952 -0.0002
 9716TIP3    H250640   4.339   0.092  11.125  0.8289  0.6298 -2.3129
 9717TIP3   OH250641   3.423   3.020  14.840  0.1357 -0.1553  0.2473
 9717TIP3    H150642   3.462   2.933  14.834 -0.1275 -0.4251  2.0090
 9717TIP3    H250643   3.433   3.045  14.932 -1.5980  0.8175  0.2085
 9718TIP3   OH250644   4.361   3.046   4.189  0.0419  0.1820  0.0136
 9718TIP3    H150645   4.405   3.032   4.273  1.1184  0.1250 -0.5372
 9718TIP3    H250646   4.361   3.142   4.178 -1.9606  0.3348  1.0164
 9719TIP3   OH250647   1.562   2.381   2.507 -0.6967 -0.3138  0.3029
 9719TIP3    H150648   1.491   2.319   2.492 -0.0933 -1.1693  0.9154
 9719TIP3    H250649   1.558   2.401   2.600 -0.1909 -0.2989  0.3250
 9720TIP3   OH250650   5.143   3.902   2.076 -0.2647  0.4398  0.3036
 9720TIP3    H150651   5.073   3.871   2.133  1.4323 -0.9385  1.7604
 9720TIP3    H250652   5.168   3.825   2.024 -0.1511  1.0571 -0.5906
 9721TIP3   OH250653   4.331   4.722   5.458 -0.1138  0.4013 -0.1146
 9721TIP3    H150654   4.406   4.779   5.478  1.8156 -1.4738 -1.5489
 9721TIP3    H250655   4.336   4.707   5.364 -1.5163 -0.8410 -0.0366
 9722TIP3   OH250656   6.768   3.633   3.780 -0.1275  0.4329 -0.2654
 9722TIP3    H150657   6.680   3.605   3.757  0.1810 -0.2937 -0.6095
 9722TIP3    H250658   6.815   3.635   3.696 -0.0572  1.7245 -0.2151
 9723TIP3   OH250659   1.145   2.176  16.283 -0.3156 -0.1390 -0.0385
 9723TIP3    H150660   1.081   2.151  16.350  1.7514  0.4400  2.3081
 9723TIP3    H250661   1.130   2.269  16.269 -0.4032 -0.1483 -0.0062
 9724TIP3   OH250662   3.784   0.265   3.820 -0.3748  0.0639 -0.7707
 9724TIP3    H150663   3.734   0.327   3.875 -1.9362 -0.3521 -1.6570
 9724TIP3    H250664   3.745   0.273   3.733  1.2683 -0.1669 -1.5656
 9725TIP3   OH250665   0.377   4.769   4.526 -0.4147  0.2508  0.9157
 9725TIP3    H150666   0.334   4.829   4.587  0.3976  2.1021 -0.2412
 9725TIP3    H250667   0.340   4.790   4.440 -0.0108 -0.8214  0.4579
 9726TIP3   OH250668   0.774   5.368  15.536  0.0472 -0.0914  0.0499
 9726TIP3    H150669   0.860   5.332  15.559 -1.5201 -3.1785  1.7470
 9726TIP3    H250670   0.749   5.319  15.457 -0.6781 -0.1613  0.3227
 9727TIP3   OH250671   0.842   2.880  12.945 -0.2086  0.1623  0.2813
 9727TIP3    H150672   0.863   2.803  12.998 -0.6071 -0.7833 -0.9087
 9727TIP3    H250673   0.908   2.945  12.971 -0.2365 -0.3589  1.7351
 9728TIP3   OH250674   0.176   4.220   0.768  0.6827  0.0083  1.3696
 9728TIP3    H150675   0.253   4.217   0.711  0.3630 -2.5801  0.9755
 9728TIP3    H250676   0.203   4.175   0.848 -0.1505 -0.1796  1.5597
 9729TIP3   OH250677   0.471   3.618  14.426  0.0989 -0.2969 -0.1165
 9729TIP3    H150678   0.421   3.700  14.429  1.4592  0.5225  1.1254
 9729TIP3    H250679   0.410   3.553  14.462 -0.2213  0.6123  1.0493
 9730TIP3   OH250680   6.256   0.798   2.240  0.3993  0.2604  0.1043
 9730TIP3    H150681   6.270   0.765   2.151  0.4706  2.3344 -0.6953
 9730TIP3    H250682   6.328   0.760   2.291  0.5287 -0.7077 -0.7582
 9731TIP3   OH250683   0.749   6.366  17.239  0.0461 -0.0067  0.4082
 9731TIP3    H150684   0.705   6.403  17.162  2.3608  3.3788  0.5308
 9731TIP3    H250685   0.787   6.284  17.208 -1.2984 -0.0450 -1.2727
 9732TIP3   OH250686   2.628   3.952  17.212 -0.4357  0.4690 -0.2524
 9732TIP3    H150687   2.548   3.900  17.206  0.6886 -1.6204  1.3797
 9732TIP3    H250688   2.676   3.929  17.132 -0.1026 -0.8086  0.2882
 9733TIP3   OH250689   6.704   3.102   5.322  0.4213  0.4075  0.2715
 9733TIP3    H150690   6.618   3.133   5.350 -0.0147 -0.3658 -0.1929
 9733TIP3    H250691   6.713   3.016   5.362  0.2481 -0.2457 -1.0349
 9734TIP3   OH250692   1.455   6.466   5.595  0.4538  0.0820 -0.7654
 9734TIP3    H150693   1.387   6.399   5.597 -0.0887  0.6552  0.1624
 9734TIP3    H250694   1.459   6.500   5.684  2.4200 -0.3855 -0.6119
 9735TIP3   OH250695   1.851   0.788  14.303 -0.0276  0.5505 -0.7530
 9735TIP3    H150696   1.900   0.801  14.222 -0.5406 -0.3559 -1.2256
 9735TIP3    H250697   1.900   0.721  14.351 -0.5210 -0.0217 -1.0193
 9736TIP3   OH250698   5.701   0.547  17.287 -0.0731  0.7980  0.0327
 9736TIP3    H150699   5.678   0.455  17.297  0.2519  0.8539  1.5103
 9736TIP3    H250700   5.796   0.549  17.297  0.1067  1.1413 -1.4365
 9737TIP3   OH250701   0.388   5.129  15.195  0.0587  0.5869 -0.2370
 9737TIP3    H150702   0.434   5.064  15.248  1.1620  1.0682 -0.5920
 9737TIP3    H250703   0.456   5.172  15.144 -0.4939  2.7034  0.6838
 9738TIP3   OH250704   4.873   4.741  13.610 -0.6495 -0.0819 -0.8070
 9738TIP3    H150705   4.894   4.720  13.520 -1.4122 -2.3890 -0.5042
 9738TIP3    H250706   4.943   4.701  13.662 -1.3009 -0.5506 -0.2707
 9739TIP3   OH250707   1.543   6.465   1.500  0.2687 -0.2802 -0.5547
 9739TIP3    H150708   1.532   6.418   1.583 -1.4598  0.6230 -0.2048
 9739TIP3    H250709   1.565   6.555   1.526  0.3992 -0.1492 -1.1020
 9740TIP3   OH250710   2.364   3.517  14.124 -0.1279  0.5870  0.2009
 9740TIP3    H150711   2.400   3.435  14.159  1.5383  0.4718 -1.5890
 9740TIP3    H250712   2.277   3.523  14.161  0.9192 -0.2963  3.0287
 9741TIP3   OH250713   5.112   6.078   2.416 -0.0005  0.0903  0.7116
 9741TIP3    H150714   5.064   6.007   2.458 -0.0282  0.4391  1.2907
 9741TIP3    H250715   5.053   6.154   2.421 -0.2679 -0.0176 -0.5607
 9742TIP3   OH250716   3.035   4.578   1.176 -0.4712 -0.0069  0.5799
 9742TIP3    H150717   2.981   4.656   1.171  1.4350  1.4073  0.7692
 9742TIP3    H250718   3.069   4.567   1.088 -0.4790 -0.4275  0.6286
 9743TIP3   OH250719   0.200   0.612   4.434  0.3000 -0.2008 -0.5688
 9743TIP3    H150720   0.227   0.562   4.357  0.5069 -0.3471 -0.4048
 9743TIP3    H250721   0.106   0.597   4.440  0.2252  0.0871 -0.9866
 9744TIP3   OH250722   3.091   1.219  10.639 -0.1775  0.3280 -0.2295
 9744TIP3    H150723   3.122   1.170  10.562  1.4632  1.6026 -0.4531
 9744TIP3    H250724   3.113   1.310  10.619  0.8856  0.6270  2.0060
 9745TIP3   OH250725   5.205   6.769   3.961 -0.1598  0.4534  0.2493
 9745TIP3    H150726   5.154   6.751   3.882  0.0610  0.1087  0.1802
 9745TIP3    H250727   5.189   6.861   3.980 -1.1967  0.2469  0.5019
 9746TIP3   OH250728   4.552   0.055   4.367  0.1825  0.3558 -0.4734
 9746TIP3    H150729   4.498   0.134   4.358 -0.8525 -0.3675 -0.7428
 9746TIP3    H250730   4.620   0.079   4.431 -0.2374  1.3925 -0.4042
 9747TIP3   OH250731   4.722   1.778  10.496  0.6432  0.2613  1.0353
 9747TIP3    H150732   4.788   1.846  10.485  1.2102 -0.5740 -1.4508
 9747TIP3    H250733   4.768   1.707  10.542  0.3948  1.0270  2.5264
 9748TIP3   OH250734   1.364   0.253  12.502 -0.0748  0.6310 -0.0771
 9748TIP3    H150735   1.404   0.286  12.583  0.3090 -0.6814  0.2959
 9748TIP3    H250736   1.347   0.160  12.521  0.8021  0.0872 -1.7914
 9749TIP3   OH250737   2.686   5.869  15.788 -0.1114 -0.2501 -0.1063
 9749TIP3    H150738   2.719   5.797  15.843 -1.5069 -1.5030 -0.8328
 9749TIP3    H250739   2.591   5.865  15.799 -0.2167  1.7264  0.0714
 9750TIP3   OH250740   2.011   2.389  13.492  0.1161 -0.4769 -0.4249
 9750TIP3    H150741   2.007   2.431  13.577 -0.0327 -1.7363  0.2181
 9750TIP3    H250742   2.004   2.295  13.511  0.9493 -0.8441 -1.7455
 9751TIP3   OH250743   3.387   4.346  13.462 -0.5542 -0.0514  0.2820
 9751TIP3    H150744   3.459   4.285  13.482  0.2556 -0.0821 -2.3009
 9751TIP3    H250745   3.420   4.432  13.487  0.8294  0.0530 -1.6899
 9752TIP3   OH250746   3.963   0.686   0.882 -0.1215  0.1337 -0.9063
 9752TIP3    H150747   3.951   0.735   0.964  0.3553 -1.6166  0.2717
 9752TIP3    H250748   3.897   0.617   0.886  2.1101 -2.0892 -0.2611
 9753TIP3   OH250749   3.991   4.806  15.749  0.3760 -0.0590 -0.4578
 9753TIP3    H150750   3.913   4.858  15.729 -2.2754 -2.2203  2.9961
 9753TIP3    H250751   4.040   4.858  15.812  0.0969  0.0712 -0.3481
 9754TIP3   OH250752   1.311   1.265   3.487 -0.0959 -0.4731  0.2439
 9754TIP3    H150753   1.317   1.208   3.564  1.7007 -0.6512  0.0214
 9754TIP3    H250754   1.241   1.227   3.434  1.3752 -2.8693 -0.1507
 9755TIP3   OH250755   5.440   4.874   5.747  0.1931  0.3132  0.1811
 9755TIP3    H150756   5.409   4.860   5.836 -0.2907 -0.8078 -0.1555
 9755TIP3    H250757   5.508   4.807   5.734 -1.1082 -0.8489 -0.9426
 9756TIP3   OH250758   0.605   1.886   0.733  0.0603 -0.9962  0.5171
 9756TIP3    H150759   0.598   1.915   0.824 -2.2567  0.1426  0.0363
 9756TIP3    H250760   0.520   1.906   0.694  0.8915 -1.7033 -1.8524
 9757TIP3   OH250761   4.362   3.444   5.461  0.1672  0.2896 -0.2056
 9757TIP3    H150762   4.376   3.520   5.517  0.0234  0.3825 -0.2953
 9757TIP3    H250763   4.419   3.459   5.386  0.7381 -0.0782  0.1471
 9758TIP3   OH250764   5.150   6.212   6.392 -0.3511  0.0237  0.7243
 9758TIP3    H150765   5.135   6.301   6.424  0.4612  0.1395  0.7929
 9758TIP3    H250766   5.224   6.220   6.332 -0.3641 -0.5864  0.6226
 9759TIP3   OH250767   2.631   1.783  16.290 -0.7770  0.2772 -0.1785
 9759TIP3    H150768   2.720   1.790  16.255 -0.1814  4.3058  1.5407
 9759TIP3    H250769   2.642   1.735  16.372 -0.7128 -1.5387 -1.2083
 9760TIP3   OH250770   4.931   4.473   1.403  0.1206 -0.5077  0.2163
 9760TIP3    H150771   4.839   4.494   1.420 -0.2661  0.5527 -2.6238
 9760TIP3    H250772   4.938   4.379   1.418 -1.6665 -0.7644 -0.4181
 9761TIP3   OH250773   5.838   5.708   3.666 -0.5569  0.1528 -0.0215
 9761TIP3    H150774   5.874   5.731   3.752  1.5336 -1.2900 -0.4481
 9761TIP3    H250775   5.839   5.613   3.664  0.6638  0.1542 -2.1023
 9762TIP3   OH250776   6.605   1.274   2.148  0.2084  0.5799 -0.4362
 9762TIP3    H150777   6.609   1.262   2.053 -1.6567 -2.2082 -0.2743
 9762TIP3    H250778   6.659   1.204   2.184  1.2263  1.8480  0.6272
 9763TIP3   OH250779   6.424   4.457  12.200 -0.3713  0.3144  0.2248
 9763TIP3    H150780   6.460   4.387  12.146  0.2049  1.6785 -1.2308
 9763TIP3    H250781   6.443   4.431  12.290  1.3669 -0.5689 -0.3652
 9764TIP3   OH250782   1.011   0.421  10.690  0.2783 -0.4047  0.4346
 9764TIP3    H150783   1.030   0.513  10.710  0.8839 -0.4474  0.0814
 9764TIP3    H250784   1.044   0.372  10.765 -1.5524 -0.2240  1.4160
 9765TIP3   OH250785   0.573   5.861  13.306  0.2744 -1.2607  0.1940
 9765TIP3    H150786   0.618   5.934  13.348 -0.3390 -0.8097  0.0917
 9765TIP3    H250787   0.556   5.799  13.377 -0.9207 -0.4199  0.6842
 9766TIP3   OH250788   4.306   4.049  13.576 -0.1112 -0.2527  0.5959
 9766TIP3    H150789   4.248   4.106  13.526  0.9820 -0.1589 -0.6035
 9766TIP3    H250790   4.258   3.967  13.583 -0.3999 -0.1826 -0.3950
 9767TIP3   OH250791   6.301   3.375   3.286  0.1918  0.0636  0.4705
 9767TIP3    H150792   6.343   3.457   3.260  0.5786  0.6122  2.6394
 9767TIP3    H250793   6.330   3.311   3.221 -0.4575  1.6894 -1.5370
 9768TIP3   OH250794   4.560   5.319  13.247 -0.1258 -0.2498  0.1161
 9768TIP3    H150795   4.526   5.233  13.221 -0.2621  0.2729 -1.5609
 9768TIP3    H250796   4.597   5.355  13.167  1.0548  0.7609  1.0734
 9769TIP3   OH250797   6.473   4.699   0.442 -0.2177 -0.5182  0.6557
 9769TIP3    H150798   6.384   4.667   0.451 -0.3106 -0.5568 -0.3360
 9769TIP3    H250799   6.487   4.708   0.348  0.4098  0.6728  0.8411
 9770TIP3   OH250800   2.084   2.409   3.069  0.0718 -0.1019  0.3397
 9770TIP3    H150801   2.172   2.436   3.095  0.0813  0.0018  0.2053
 9770TIP3    H250802   2.036   2.399   3.151 -0.1281  0.9902  0.3728
 9771TIP3   OH250803   2.219   3.411   0.652  0.1414  0.2706  0.3300
 9771TIP3    H150804   2.246   3.437   0.740  1.6419 -0.1809  0.0243
 9771TIP3    H250805   2.262   3.327   0.637  0.9614  0.9381 -1.2979
 9772TIP3   OH250806   4.599   1.074  14.867 -0.0123  0.3499 -0.0813
 9772TIP3    H150807   4.638   1.115  14.943 -0.2498 -2.3417  1.6417
 9772TIP3    H250808   4.657   1.000  14.847 -1.5301 -0.7599 -0.6071
 9773TIP3   OH250809   0.342   0.470  17.264  0.2189 -0.3802 -0.0649
 9773TIP3    H150810   0.357   0.491  17.172 -0.5789  0.0162 -0.1126
 9773TIP3    H250811   0.423   0.429  17.293  0.3055 -0.9689 -1.0793
 9774TIP3   OH250812   4.379   6.574   5.052 -0.8422 -0.5019  0.2125
 9774TIP3    H150813   4.335   6.540   4.974  0.8117 -1.0165 -0.5431
 9774TIP3    H250814   4.358   6.667   5.053  0.3392 -0.1828 -1.7224
 9775TIP3   OH250815   1.637   3.632  11.607 -0.3546 -0.5556 -0.3468
 9775TIP3    H150816   1.683   3.641  11.524 -0.9382  1.4287 -0.5049
 9775TIP3    H250817   1.544   3.644  11.585 -0.6335 -1.1777  0.4365
 9776TIP3   OH250818   1.126   0.010  13.866 -0.6792  0.1224 -0.2306
 9776TIP3    H150819   1.064   0.052  13.807 -0.0768 -0.5709 -1.4014
 9776TIP3    H250820   1.134   0.070  13.940 -1.8004  0.7989 -0.6350
 9777TIP3   OH250821   6.390   5.745   0.214  0.2783 -0.3846 -0.6118
 9777TIP3    H150822   6.398   5.774   0.124  0.6475  1.5430 -0.0117
 9777TIP3    H250823   6.298   5.761   0.237  0.6280  0.9849 -0.0884
 9778TIP3   OH250824   5.463   2.857  14.998  0.0233  0.1438 -0.1468
 9778TIP3    H150825   5.551   2.881  15.026  1.8938 -1.9224 -3.5693
 9778TIP3    H250826   5.418   2.940  14.987  2.1959  1.3956 -0.1311
 9779TIP3   OH250827   4.993   2.876   0.437  0.1957  0.5915  0.0299
 9779TIP3    H150828   4.922   2.843   0.491 -0.2325  0.7403 -0.4318
 9779TIP3    H250829   5.038   2.798   0.405  1.2001  0.5034  1.5454
 9780TIP3   OH250830   3.809   6.752  12.446  0.1518 -0.1855  0.1176
 9780TIP3    H150831   3.833   6.667  12.484 -1.3387 -0.2846  0.9385
 9780TIP3    H250832   3.841   6.816  12.509 -1.8025 -0.3283  1.3538
 9781TIP3   OH250833   5.768   1.182   4.163  0.4435 -0.0846  0.1038
 9781TIP3    H150834   5.783   1.104   4.217  0.8989  0.4240  0.7147
 9781TIP3    H250835   5.796   1.255   4.218 -1.1700  0.6287  0.0177
 9782TIP3   OH250836   2.235   3.906   0.592  0.3340  0.1488 -0.2055
 9782TIP3    H150837   2.225   3.963   0.668 -0.0519 -0.3001  0.0855
 9782TIP3    H250838   2.187   3.826   0.615  0.8352 -0.2826 -0.6158
 9783TIP3   OH250839   0.959   6.600   0.713 -0.2475 -0.4677  0.3312
 9783TIP3    H150840   1.024   6.667   0.696  0.8058 -0.6842  3.0855
 9783TIP3    H250841   0.966   6.541   0.638 -0.0622  1.5600 -1.3334
 9784TIP3   OH250842   0.047   2.490  13.171 -0.4184 -0.2595 -0.1076
 9784TIP3    H150843   0.084   2.490  13.083  0.2711  1.1580  0.1692
 9784TIP3    H250844   0.024   2.398  13.186 -0.7695 -0.5076 -1.8370
 9785TIP3   OH250845   2.651   3.102  14.777 -0.2910 -0.5076 -0.1204
 9785TIP3    H150846   2.630   3.126  14.867  1.2882  2.4129 -0.3901
 9785TIP3    H250847   2.718   3.166  14.750  1.2507 -2.8854 -2.5155
 9786TIP3   OH250848   5.799   6.392  12.626 -0.3137  0.0539 -0.1842
 9786TIP3    H150849   5.852   6.327  12.672  1.8821  1.5808 -0.3945
 9786TIP3    H250850   5.856   6.425  12.557 -2.1265  0.6977 -1.4400
 9787TIP3   OH250851   4.838   3.309   4.355 -0.5968 -0.3592  0.4371
 9787TIP3    H150852   4.881   3.310   4.440 -1.1578  0.6132  0.7177
 9787TIP3    H250853   4.863   3.225   4.317  2.1327  0.4348  0.2844
 9788TIP3   OH250854   0.442   2.850   0.945  0.2081 -0.3863 -0.0014
 9788TIP3    H150855   0.522   2.896   0.921 -0.8292  1.4411 -0.1539
 9788TIP3    H250856   0.402   2.904   1.013 -0.3246 -1.8988  0.9417
 9789TIP3   OH250857   4.180   3.405   2.330  0.2688 -0.3780 -0.3783
 9789TIP3    H150858   4.175   3.396   2.235  4.4285 -0.0905 -0.7899
 9789TIP3    H250859   4.209   3.495   2.344 -0.5868 -0.3162  1.2203
 9790TIP3   OH250860   1.276   3.507   5.838  0.2371 -0.3821  0.4897
 9790TIP3    H150861   1.326   3.587   5.822  0.4029 -0.2455  1.5716
 9790TIP3    H250862   1.340   3.436   5.831  0.1688 -0.3907 -0.0865
 9791TIP3   OH250863   6.282   3.955  15.232  0.5707  0.1254 -0.8046
 9791TIP3    H150864   6.335   3.883  15.199  2.4122  0.4114  1.3029
 9791TIP3    H250865   6.337   4.032  15.222  0.4737  0.4898  1.1335
 9792TIP3   OH250866   1.588   4.431   4.174  0.6511  0.2818  0.2888
 9792TIP3    H150867   1.582   4.401   4.083  1.5861 -0.9061  0.5888
 9792TIP3    H250868   1.682   4.441   4.189  0.5305  0.0877  1.2282
 9793TIP3   OH250869   5.719   3.873   2.382 -0.0633 -0.6294 -0.1430
 9793TIP3    H150870   5.766   3.944   2.338 -1.6267  1.0369  0.7453
 9793TIP3    H250871   5.788   3.823   2.427  1.0007  0.8807 -0.0160
 9794TIP3   OH250872   4.001   5.693   0.582  0.6209 -0.2588 -0.6172
 9794TIP3    H150873   4.024   5.604   0.611 -0.5993 -0.1366  0.8544
 9794TIP3    H250874   4.041   5.750   0.648 -0.2666  0.1675 -0.4476
 9795TIP3   OH250875   5.310   0.858  12.674  0.4641 -0.8212 -0.0336
 9795TIP3    H150876   5.266   0.778  12.645 -2.0638  0.1886  0.7715
 9795TIP3    H250877   5.289   0.923  12.607 -1.1703  0.2165  1.3919
 9796TIP3   OH250878   6.681   1.200  15.491  0.0919 -0.2224 -0.3093
 9796TIP3    H150879   6.760   1.240  15.527  0.8039 -0.3480 -1.6590
 9796TIP3    H250880   6.651   1.263  15.425 -1.0525 -0.0874  0.3269
 9797TIP3   OH250881   3.513   5.459  15.949  0.5661 -0.1977  0.4975
 9797TIP3    H150882   3.571   5.512  15.895  0.7631  0.5148  1.3726
 9797TIP3    H250883   3.572   5.409  16.005  0.3533 -0.3047  0.6267
 9798TIP3   OH250884   3.807   1.442  16.633  0.0865 -0.1595 -0.0221
 9798TIP3    H150885   3.739   1.388  16.592 -1.7589  1.4632  0.7234
 9798TIP3    H250886   3.781   1.449  16.724  1.3259  0.4436  0.3077
 9799TIP3   OH250887   4.313   2.306   0.356  0.3736  0.3909  0.0501
 9799TIP3    H150888   4.322   2.211   0.349 -0.5279  0.3788 -1.3887
 9799TIP3    H250889   4.229   2.325   0.315  1.4985  2.0146 -1.6821
 9800TIP3   OH250890   5.641   1.731   0.186  0.4118  0.3987 -0.7561
 9800TIP3    H150891   5.725   1.767   0.158 -0.0676  0.7596 -1.7789
 9800TIP3    H250892   5.656   1.701   0.276  0.9133  2.8439  0.0290
 9801TIP3   OH250893   1.808   4.927  15.119 -0.3205 -1.4433 -0.0578
 9801TIP3    H150894   1.791   5.012  15.159  2.6112  0.5317 -2.5460
 9801TIP3    H250895   1.723   4.883  15.118 -1.8468  1.2054  1.8046
 9802TIP3   OH250896   5.996   5.493   0.970  0.3126  0.3424 -0.2214
 9802TIP3    H150897   5.932   5.564   0.972 -0.2528 -0.1544 -0.3081
 9802TIP3    H250898   5.945   5.414   0.990  0.6778 -0.2126 -1.3490
 9803TIP3   OH250899   3.625   0.030  13.554 -0.1187 -0.0890  0.1967
 9803TIP3    H150900   3.646  -0.017  13.635  1.1756  0.7346  0.3641
 9803TIP3    H250901   3.616   0.122  13.581  0.1811  0.1729 -0.5620
 9804TIP3   OH250902   1.061   5.857  16.377 -0.2426  0.2086  0.1450
 9804TIP3    H150903   0.966   5.864  16.371 -0.2965 -0.8309 -0.3049
 9804TIP3    H250904   1.089   5.822  16.293  0.4926 -0.0003  0.4608
 9805TIP3   OH250905   3.876   1.596  11.030 -0.1081 -0.2103 -0.1966
 9805TIP3    H150906   3.894   1.518  11.082  0.8438 -0.0106 -0.1958
 9805TIP3    H250907   3.830   1.655  11.090  0.0223 -0.4052  0.0990
 9806TIP3   OH250908   2.435   6.045  12.507 -0.4114 -0.0274 -0.3045
 9806TIP3    H150909   2.496   5.977  12.479 -1.0240  0.2062 -2.3252
 9806TIP3    H250910   2.483   6.127  12.494  0.8880  0.0135  3.5158
 9807TIP3   OH250911   4.577   1.148  14.020  0.1276  0.5604  0.3814
 9807TIP3    H150912   4.673   1.145  14.027  0.1367  2.1354  1.3114
 9807TIP3    H250913   4.551   1.226  14.070 -1.5792  0.6543 -0.5694
 9808TIP3   OH250914   1.731   3.335  15.125  0.0765  0.0997 -0.2071
 9808TIP3    H150915   1.825   3.325  15.142 -0.0445  0.8282  1.0530
 9808TIP3    H250916   1.705   3.408  15.181 -1.1966  0.0780 -0.7438
 9809TIP3   OH250917   1.926   5.738   3.816  0.2741  0.5548  0.4375
 9809TIP3    H150918   1.841   5.695   3.829 -0.2594  1.1035 -1.0262
 9809TIP3    H250919   1.960   5.702   3.735  0.6924  1.5163  0.1693
 9810TIP3   OH250920   4.244   5.070   6.274  0.6477 -0.1129 -0.3013
 9810TIP3    H150921   4.245   4.997   6.212  0.6707  0.5773 -1.1315
 9810TIP3    H250922   4.178   5.130   6.239  0.2842  0.0466  0.6356
 9811TIP3   OH250923   3.091   5.341  17.081  0.1143 -0.4680 -0.0208
 9811TIP3    H150924   3.002   5.325  17.112 -0.8505 -0.6321 -2.6454
 9811TIP3    H250925   3.096   5.297  16.997  1.6554  2.1527 -1.4351
 9812TIP3   OH250926   4.343   0.207  13.026 -0.1640 -0.0820  0.4497
 9812TIP3    H150927   4.399   0.130  13.018  1.4086  1.0828 -0.2914
 9812TIP3    H250928   4.379   0.269  12.963 -1.1251  1.4295  1.3276
 9813TIP3   OH250929   0.147   6.248   5.329 -0.2407  0.4386 -0.6446
 9813TIP3    H150930   0.178   6.325   5.376  1.2668 -0.5639  0.1044
 9813TIP3    H250931   0.078   6.211   5.385  2.0394 -1.1749  1.3654
 9814TIP3   OH250932   4.592   6.425  15.704 -0.2695 -0.2067 -0.8252
 9814TIP3    H150933   4.501   6.449  15.723 -0.4761  0.2377 -2.2162
 9814TIP3    H250934   4.621   6.377  15.781 -1.0018  1.4729  0.5620
 9815TIP3   OH250935   1.402   6.549  12.206 -0.0141 -0.1993 -0.1700
 9815TIP3    H150936   1.335   6.565  12.139 -0.6963 -0.6995  0.3648
 9815TIP3    H250937   1.379   6.608  12.278  0.3410 -0.1112 -0.1271
 9816TIP3   OH250938   1.305   4.410   2.682 -0.0296  0.1621 -0.2255
 9816TIP3    H150939   1.377   4.396   2.744 -0.4621 -0.5987  0.1230
 9816TIP3    H250940   1.287   4.504   2.688  0.1552  0.1620  0.5625
 9817TIP3   OH250941   1.833   6.069  14.575 -0.0273  0.0691  0.2636
 9817TIP3    H150942   1.914   6.097  14.618 -0.7069  1.1641  0.8750
 9817TIP3    H250943   1.823   5.977  14.601  0.1193  0.4182  1.6120
 9818TIP3   OH250944   3.748   3.053  13.853  0.6217  0.5630  0.1507
 9818TIP3    H150945   3.778   3.093  13.771 -1.2001  0.9466 -0.3763
 9818TIP3    H250946   3.822   3.065  13.914  3.1000 -2.0295 -2.0473
 9819TIP3   OH250947   0.593   6.160   4.348  0.1155  0.2100 -0.1516
 9819TIP3    H150948   0.619   6.089   4.290  1.2262  1.5920 -1.4101
 9819TIP3    H250949   0.529   6.120   4.408  1.2918 -2.0201 -0.2969
 9820TIP3   OH250950   3.450   1.091  15.418 -0.0814 -0.3194 -0.2941
 9820TIP3    H150951   3.534   1.124  15.389 -0.3424  0.9276  0.3141
 9820TIP3    H250952   3.470   1.006  15.458  0.7007 -0.5787 -1.1879
 9821TIP3   OH250953   5.215   0.308  15.203  0.3123  0.0775 -0.0688
 9821TIP3    H150954   5.177   0.329  15.118  0.9368 -0.2617 -0.4452
 9821TIP3    H250955   5.201   0.386  15.256 -0.3866  0.1624 -0.3738
 9822TIP3   OH250956   3.297   4.323   3.463 -0.1468 -0.6415 -0.3314
 9822TIP3    H150957   3.269   4.313   3.554 -0.5194 -0.4386 -0.4222
 9822TIP3    H250958   3.342   4.407   3.460 -3.0407  1.0255 -1.0160
 9823TIP3   OH250959   2.366   3.456   4.254 -0.0776  0.4580  0.5526
 9823TIP3    H150960   2.377   3.486   4.344  0.1287 -2.6980  1.6753
 9823TIP3    H250961   2.298   3.514   4.218  2.3325  4.2060  1.3968
 9824TIP3   OH250962   4.179   5.245   0.226 -0.1265  0.4038  0.2708
 9824TIP3    H150963   4.133   5.308   0.283 -1.1940 -0.1836  0.0793
 9824TIP3    H250964   4.164   5.277   0.138 -1.2366 -0.4680  0.1299
 9825TIP3   OH250965   4.622   3.752  15.379 -0.2508 -0.2841 -0.2738
 9825TIP3    H150966   4.606   3.789  15.466  0.7049  0.1736 -0.2791
 9825TIP3    H250967   4.678   3.676  15.396 -2.1434 -1.7636 -0.2640
 9826TIP3   OH250968   6.552   2.237  15.577  0.8394 -0.2915  0.2462
 9826TIP3    H150969   6.559   2.201  15.489 -0.7092 -0.6485  0.2333
 9826TIP3    H250970   6.584   2.327  15.568 -0.1602 -0.0193 -0.9149
 9827TIP3   OH250971   5.980   1.381  10.489 -0.0342  0.2213  0.0655
 9827TIP3    H150972   5.909   1.401  10.550  0.1843 -0.0191  0.4002
 9827TIP3    H250973   5.951   1.303  10.442 -0.2276  0.4399 -0.1788
 9828TIP3   OH250974   1.145   5.586  11.868  1.1195  0.2710 -0.2759
 9828TIP3    H150975   1.219   5.636  11.901  1.4571  0.2664 -1.0198
 9828TIP3    H250976   1.153   5.590  11.773 -0.4278  1.1538 -0.3986
 9829TIP3   OH250977   5.776   6.146  11.675 -0.0687 -0.3190 -0.4771
 9829TIP3    H150978   5.811   6.116  11.759  2.1770  0.9091 -0.9089
 9829TIP3    H250979   5.717   6.075  11.647  2.8817 -3.1037 -0.1656
 9830TIP3   OH250980   4.123   3.655  12.903  0.1447 -0.1136  0.2174
 9830TIP3    H150981   4.142   3.614  12.818  1.2802  0.3777  0.2147
 9830TIP3    H250982   4.028   3.649  12.912 -0.1480  0.8851 -1.6578
 9831TIP3   OH250983   5.484   2.437  16.679 -0.1165  0.3496 -0.1320
 9831TIP3    H150984   5.472   2.419  16.586 -0.1219  0.2951 -0.1211
 9831TIP3    H250985   5.398   2.422  16.718  0.0693 -0.3765  0.0068
 9832TIP3   OH250986   5.993   0.652  14.409 -0.0180 -0.5253 -0.2641
 9832TIP3    H150987   5.966   0.630  14.319  0.0931  0.3377 -0.5214
 9832TIP3    H250988   6.064   0.592  14.428 -0.3566 -1.0325 -0.5850
 9833TIP3   OH250989   6.663   5.778   2.164 -0.2798 -0.3753 -0.2862
 9833TIP3    H150990   6.569   5.771   2.147 -0.2434  1.3927 -1.3939
 9833TIP3    H250991   6.699   5.694   2.135 -1.0653  0.2273 -3.3308
 9834TIP3   OH250992   1.049   1.510   1.257 -0.5429 -0.5818 -0.5528
 9834TIP3    H150993   1.013   1.518   1.346  0.3345 -1.5283 -0.0901
 9834TIP3    H250994   0.994   1.445   1.214  0.6743 -2.1849  0.2223
 9835TIP3   OH250995   3.563   2.544   1.250 -0.1248  0.2268  0.1347
 9835TIP3    H150996   3.603   2.463   1.219 -1.1549 -0.4213  0.4404
 9835TIP3    H250997   3.635   2.607   1.251  0.8059 -0.7927  0.3106
 9836TIP3   OH250998   0.910   3.930  16.643  0.3077 -0.1783  0.5426
 9836TIP3    H150999   0.911   3.984  16.722  0.2017 -0.0370  0.4500
 9836TIP3    H251000   0.878   3.845  16.673  1.0499 -0.3730  0.7987
 9837TIP3   OH251001   1.705   3.771  16.140 -1.1428  0.2250 -0.3869
 9837TIP3    H151002   1.674   3.760  16.051  2.1819 -0.8383 -1.5740
 9837TIP3    H251003   1.759   3.693  16.156  1.2907  2.0785  1.1531
 9838TIP3   OH251004   4.975   4.969   5.490  1.1523 -0.7863 -0.1607
 9838TIP3    H151005   4.965   5.014   5.574  0.6442  0.9618 -1.1239
 9838TIP3    H251006   5.066   4.938   5.491  1.1967 -0.6680  0.9677
 9839TIP3   OH251007   5.931   4.081  14.542  0.2137  0.7888 -0.5851
 9839TIP3    H151008   6.012   4.131  14.559  0.5222  0.1764 -0.2145
 9839TIP3    H251009   5.897   4.060  14.629 -1.3384  2.5765 -0.6967
 9840TIP3   OH251010   6.587   1.156  15.850 -0.1642  0.5587 -0.0303
 9840TIP3    H151011   6.514   1.095  15.843 -1.6730  2.4594 -2.0251
 9840TIP3    H251012   6.580   1.193  15.938 -0.0001 -1.1266  0.7275
 9841TIP3   OH251013   0.397   3.687  14.742 -0.2711 -0.2274 -0.4476
 9841TIP3    H151014   0.408   3.738  14.662 -1.0345 -0.0180 -0.4224
 9841TIP3    H251015   0.459   3.615  14.734  0.5245  0.4706 -0.6731
 9842TIP3   OH251016   4.322   3.270  17.131  0.3680 -0.1135  0.0539
 9842TIP3    H151017   4.379   3.228  17.195 -0.2469 -2.7998 -1.0244
 9842TIP3    H251018   4.382   3.305  17.064  0.9187  1.3719  1.2609
 9843TIP3   OH251019   5.133   2.587   6.431  0.0057 -0.6662  0.5320
 9843TIP3    H151020   5.181   2.544   6.360  0.1766  0.3842 -0.0118
 9843TIP3    H251021   5.069   2.522   6.460  1.7432 -2.1270  1.2989
 9844TIP3   OH251022   0.142   4.455   5.790 -0.7077 -0.1096  0.0535
 9844TIP3    H151023   0.211   4.410   5.839 -0.8909 -0.2339  0.1963
 9844TIP3    H251024   0.118   4.393   5.721  0.6281  0.6575 -1.1694
 9845TIP3   OH251025   0.406   0.409   5.364 -0.8547  0.2133 -0.5154
 9845TIP3    H151026   0.445   0.469   5.300  0.6260 -2.1813 -2.0359
 9845TIP3    H251027   0.451   0.428   5.446 -1.1978  1.8490 -0.6659
 9846TIP3   OH251028   2.892   3.506   5.209 -0.0376  0.3420  0.0957
 9846TIP3    H151029   2.869   3.416   5.232 -0.0603 -0.0394 -1.3117
 9846TIP3    H251030   2.876   3.511   5.115  1.3828  1.3926 -0.1151
 9847TIP3   OH251031   6.575   3.464  14.627  0.1235  0.1493  0.2789
 9847TIP3    H151032   6.617   3.379  14.619  0.3275  0.2170  0.6244
 9847TIP3    H251033   6.591   3.507  14.543  0.6337  0.1274  0.3621
 9848TIP3   OH251034   3.381   3.107   4.684  0.3543  0.1140 -0.0023
 9848TIP3    H151035   3.306   3.166   4.689  0.6001  0.4169  3.9680
 9848TIP3    H251036   3.457   3.165   4.679  0.4559 -0.0266 -0.0756
 9849TIP3   OH251037   4.016   6.235  17.170 -0.1657 -0.1187 -0.4675
 9849TIP3    H151038   4.002   6.269  17.258  0.5029  1.8321 -1.0599
 9849TIP3    H251039   3.948   6.168  17.159  0.1386 -0.8635  1.7221
 9850TIP3   OH251040   5.177   0.892   1.747  0.1166 -0.1165  0.0871
 9850TIP3    H151041   5.091   0.870   1.711  0.1239  1.7323 -1.2175
 9850TIP3    H251042   5.239   0.869   1.678  0.3558  1.2715 -0.1980
 9851TIP3   OH251043   3.525   2.032  16.759 -0.3420  0.4023  0.3553
 9851TIP3    H151044   3.501   2.111  16.808 -0.9067  1.8912 -2.1408
 9851TIP3    H251045   3.452   1.972  16.773 -1.7203  1.7659 -0.5893
 9852TIP3   OH251046   3.701   0.705   1.046  0.5741  0.4203  0.0050
 9852TIP3    H151047   3.608   0.686   1.031  0.6297  1.4022 -1.7864
 9852TIP3    H251048   3.734   0.628   1.092 -1.0858 -0.0064  0.5508
 9853TIP3   OH251049   1.652   3.490  16.487 -0.6584  0.7758  0.5378
 9853TIP3    H151050   1.700   3.457  16.411 -0.4278  1.3507  0.4317
 9853TIP3    H251051   1.611   3.571  16.457 -2.3387 -0.0833  0.4012
 9854TIP3   OH251052   0.775   3.909   2.120 -0.4835 -0.3920  0.0132
 9854TIP3    H151053   0.856   3.861   2.106  0.4931  1.7056 -2.2386
 9854TIP3    H251054   0.788   3.957   2.201 -0.4183 -1.7517  0.8418
 9855TIP3   OH251055   1.606   4.376   3.875  0.4941  0.7745  0.3122
 9855TIP3    H151056   1.607   4.375   3.779  2.8573  0.9666  0.2891
 9855TIP3    H251057   1.581   4.466   3.898 -1.8568  0.2844 -0.0346
 9856TIP3   OH251058   2.700   5.041  11.684  0.4991 -0.8983 -0.1396
 9856TIP3    H151059   2.725   5.026  11.775  0.1234  0.1077  0.1490
 9856TIP3    H251060   2.697   5.136  11.676  0.8381 -0.9774 -1.2953
 9857TIP3   OH251061   4.413   2.578  11.681  0.8070 -0.1951  0.2519
 9857TIP3    H151062   4.509   2.579  11.688  0.7653 -1.1642  1.4060
 9857TIP3    H251063   4.394   2.502  11.626  0.6643 -1.6755  2.2155
 9858TIP3   OH251064   6.461   6.350  13.754 -0.1495  0.1575 -0.2278
 9858TIP3    H151065   6.406   6.291  13.701  0.8832 -1.1144  0.0713
 9858TIP3    H251066   6.402   6.382  13.822 -1.0460  0.4332 -1.1018
 9859TIP3   OH251067   5.103   3.565  16.316 -0.2097 -0.0524  0.4463
 9859TIP3    H151068   5.054   3.578  16.397 -1.0409 -0.0526 -0.0502
 9859TIP3    H251069   5.038   3.573  16.246  0.2701 -1.2207 -0.1720
 9860TIP3   OH251070   1.843   5.158   5.581  0.4782  0.1821  0.3879
 9860TIP3    H151071   1.924   5.155   5.632  2.0391  0.5124 -1.9588
 9860TIP3    H251072   1.774   5.160   5.648  2.2855 -1.5606  2.4601
 9861TIP3   OH251073   1.572   5.956  16.753 -0.6283  0.1906 -0.1359
 9861TIP3    H151074   1.604   5.874  16.791 -0.5959 -0.6647 -1.8984
 9861TIP3    H251075   1.525   5.929  16.674 -1.9149  1.7782  0.0349
 9862TIP3   OH251076   1.991   5.640  17.294 -0.4023  0.5532 -0.6337
 9862TIP3    H151077   1.968   5.707  17.359 -1.1231 -1.3593  1.1939
 9862TIP3    H251078   1.963   5.677  17.210  0.6296  3.1528  0.0692
 9863TIP3   OH251079   4.175   1.522   1.686 -0.3235  0.1017 -0.5285
 9863TIP3    H151080   4.224   1.600   1.711  0.9637 -0.0872 -2.2726
 9863TIP3    H251081   4.173   1.469   1.766 -0.7191  1.6261  0.5274
 9864TIP3   OH251082   1.870   3.299   2.025  0.4730  0.6650 -0.0530
 9864TIP3    H151083   1.937   3.289   1.958 -0.6505 -0.0334 -1.1291
 9864TIP3    H251084   1.804   3.356   1.985 -1.1742 -1.3347 -0.3873
 9865TIP3   OH251085   4.911   6.561   0.352 -0.0357 -0.0917  0.0757
 9865TIP3    H151086   4.921   6.466   0.354  0.0046 -0.0844  0.2238
 9865TIP3    H251087   4.894   6.582   0.260  0.7515 -0.1595 -0.0905
 9866TIP3   OH251088   3.594   6.560   2.712 -0.2601 -0.7874  0.1064
 9866TIP3    H151089   3.623   6.651   2.721  0.3046 -0.9444 -0.0882
 9866TIP3    H251090   3.639   6.514   2.783 -0.9089 -0.8330  0.4922
 9867TIP3   OH251091   1.650   5.175   5.779 -0.0565  0.2688 -0.5171
 9867TIP3    H151092   1.582   5.228   5.819 -0.9390  0.1243 -1.7566
 9867TIP3    H251093   1.621   5.084   5.792  0.5143  0.1543 -0.0051
 9868TIP3   OH251094   1.303   3.836   4.991  0.5535 -0.3834 -1.0845
 9868TIP3    H151095   1.258   3.752   5.001  0.2281 -0.0285  0.9460
 9868TIP3    H251096   1.235   3.897   4.962  0.4464 -0.5168 -1.1125
 9869TIP3   OH251097   3.615   3.237   4.663  0.2646 -0.2777  0.2532
 9869TIP3    H151098   3.609   3.241   4.568  0.9947  0.0600  0.2174
 9869TIP3    H251099   3.610   3.328   4.692 -1.0924 -0.4476  0.6233
 9870TIP3   OH251100   1.811   5.038  15.542  0.1123  0.5080 -0.4280
 9870TIP3    H151101   1.740   4.991  15.498 -0.4733  1.4565 -0.5026
 9870TIP3    H251102   1.843   5.100  15.476  1.6168 -0.4892 -0.7093
 9871TIP3   OH251103   5.753   1.475  12.936 -0.2173 -0.3487 -0.5418
 9871TIP3    H151104   5.781   1.488  13.027 -0.9096 -1.4397 -0.1492
 9871TIP3    H251105   5.783   1.387  12.914  1.1607  0.4162 -1.8619
 9872TIP3   OH251106   2.097   3.599   4.261 -0.4786  0.0130 -0.4475
 9872TIP3    H151107   2.107   3.668   4.326  2.9466 -0.0820 -0.7240
 9872TIP3    H251108   2.120   3.641   4.178 -0.3453 -0.9753 -0.9233
 9873TIP3   OH251109   3.636   0.849   3.982  0.6941  0.4774  0.3495
 9873TIP3    H151110   3.652   0.813   4.069  0.6494  2.2624  1.1200
 9873TIP3    H251111   3.723   0.860   3.944  0.6872 -1.5819 -0.4412
 9874TIP3   OH251112   1.253   2.775   0.947 -0.1804  0.4304 -0.0299
 9874TIP3    H151113   1.292   2.761   1.033  0.5032  0.3295 -0.3436
 9874TIP3    H251114   1.316   2.736   0.886 -0.5098  0.7667 -0.5963
 9875TIP3   OH251115   4.461   6.318  16.879 -0.6829  0.6258  0.4270
 9875TIP3    H151116   4.504   6.235  16.860  0.6348  0.7794  2.3807
 9875TIP3    H251117   4.423   6.307  16.966 -1.3303  1.7394  0.3072
 9876TIP3   OH251118   2.271   1.107   4.103  0.3615  0.6949  0.1883
 9876TIP3    H151119   2.312   1.022   4.114  2.3138  1.5225 -0.2945
 9876TIP3    H251120   2.242   1.132   4.191  1.1729  0.2124  0.6008
 9877TIP3   OH251121   4.610   0.911  15.731 -0.1153 -0.2313 -0.1211
 9877TIP3    H151122   4.585   1.004  15.724  1.7110  0.1714 -2.6987
 9877TIP3    H251123   4.529   0.863  15.712 -0.2641  0.9277 -2.7871
 9878TIP3   OH251124   2.766   0.874   1.495  0.3582  0.6317 -0.8864
 9878TIP3    H151125   2.706   0.862   1.421 -0.0606 -1.6514 -0.2589
 9878TIP3    H251126   2.738   0.955   1.536 -4.2125 -1.4914  0.9294
 9879TIP3   OH251127   3.089   6.712   2.376  0.2309  0.7823  0.2937
 9879TIP3    H151128   3.064   6.787   2.322 -0.1063  0.3276 -0.1902
 9879TIP3    H251129   3.184   6.717   2.381  0.2570  0.9024 -0.2364
 9880TIP3   OH251130   5.726   0.719  12.366 -0.3013  0.4496 -0.3044
 9880TIP3    H151131   5.731   0.735  12.272 -0.8124 -1.5173 -0.7127
 9880TIP3    H251132   5.658   0.652  12.375  0.4894 -0.1697  1.3637
 9881TIP3   OH251133   5.816   6.043  16.980 -0.4283  0.2020  0.3629
 9881TIP3    H151134   5.813   6.076  16.890 -2.3738  2.1612  1.0468
 9881TIP3    H251135   5.883   6.096  17.023  1.0769 -1.2880 -0.0910
 9882TIP3   OH251136   4.772   2.473   4.883 -0.0888  0.1980 -0.4553
 9882TIP3    H151137   4.755   2.477   4.977 -2.4721  1.2059 -0.8698
 9882TIP3    H251138   4.731   2.391   4.855 -1.7820  1.1808 -0.9889
 9883TIP3   OH251139   3.053   2.995  12.851  0.5038  0.0538  0.0407
 9883TIP3    H151140   3.037   2.971  12.942 -2.0111 -2.1335 -0.8545
 9883TIP3    H251141   3.049   3.091  12.851 -1.2766  0.0520  1.9791
 9884TIP3   OH251142   0.156   6.487  12.339 -0.0632 -0.0687  0.1873
 9884TIP3    H151143   0.099   6.432  12.286  0.1831 -0.8355  0.7149
 9884TIP3    H251144   0.238   6.491  12.290 -0.1574  0.0275  0.0359
 9885TIP3   OH251145   0.747   5.948  11.691  0.1283  0.0614 -0.5266
 9885TIP3    H151146   0.751   5.954  11.786  0.3878  0.5161 -0.5652
 9885TIP3    H251147   0.819   6.002  11.660 -0.3264  0.4117 -0.9941
 9886TIP3   OH251148   4.044   5.489  11.748 -0.3159 -0.0762 -0.0054
 9886TIP3    H151149   3.990   5.413  11.728 -0.8225 -0.0623  1.2118
 9886TIP3    H251150   4.102   5.459  11.819 -1.1885  0.9120  1.1730
 9887TIP3   OH251151   5.832   3.188   4.383  0.1142 -0.2735 -0.1261
 9887TIP3    H151152   5.848   3.093   4.388  0.9745 -0.2242 -1.5019
 9887TIP3    H251153   5.851   3.219   4.471  0.5205 -1.2839  0.1625
 9888TIP3   OH251154   2.973   0.646  15.656  0.3953 -0.1571  0.3067
 9888TIP3    H151155   2.935   0.616  15.573 -1.7883 -1.1759  1.5743
 9888TIP3    H251156   2.917   0.719  15.682  0.9905  0.0751  0.9485
 9889TIP3   OH251157   5.819   5.426   3.795 -0.7254  0.5068 -0.0424
 9889TIP3    H151158   5.913   5.408   3.795 -0.5059  1.5495  0.3399
 9889TIP3    H251159   5.798   5.447   3.886 -1.7161 -1.4719  0.2279
 9890TIP3   OH251160   2.626   2.765   2.845 -0.8692  0.1450  0.0675
 9890TIP3    H151161   2.678   2.824   2.790 -0.3914 -1.0053 -0.7524
 9890TIP3    H251162   2.658   2.780   2.934 -0.2253  0.5707 -0.2300
 9891TIP3   OH251163   5.251   5.605  11.850  0.1381  0.9847 -0.2002
 9891TIP3    H151164   5.168   5.642  11.879 -0.5662 -2.0421  2.2461
 9891TIP3    H251165   5.313   5.629  11.919 -0.0290 -1.0966  0.7344
 9892TIP3   OH251166   3.115   2.288  13.927  0.0679  0.7535  0.0073
 9892TIP3    H151167   3.172   2.365  13.923  0.2892  0.5464 -1.3380
 9892TIP3    H251168   3.027   2.323  13.914 -0.0016  0.9338  0.8849
 9893TIP3   OH251169   1.902   0.409  13.870  0.1359  0.2973  0.1703
 9893TIP3    H151170   1.970   0.474  13.850 -0.6710  1.3983  0.8637
 9893TIP3    H251171   1.951   0.333  13.902  1.1018  0.6237 -0.4891
 9894TIP3   OH251172   0.567   0.886  10.753 -0.5326 -0.2502  0.2583
 9894TIP3    H151173   0.660   0.862  10.746 -0.5743 -0.7113  1.1436
 9894TIP3    H251174   0.558   0.963  10.697  0.0149 -1.1808 -1.1915
 9895TIP3   OH251175   4.532   5.135  14.574  0.4990  0.0811 -0.6820
 9895TIP3    H151176   4.441   5.162  14.584  1.1145  2.1145 -0.0561
 9895TIP3    H251177   4.529   5.039  14.570 -1.9233  0.1232 -3.6514
 9896TIP3   OH251178   1.946   5.385  12.476 -0.0326  0.3580 -0.0497
 9896TIP3    H151179   1.961   5.472  12.512 -2.5301  0.4909  0.8987
 9896TIP3    H251180   1.913   5.401  12.387 -0.6758  0.4016  0.1943
 9897TIP3   OH251181   5.992   3.172  10.852  0.1708 -0.1914 -0.3229
 9897TIP3    H151182   5.899   3.162  10.875  0.0933 -0.0984 -0.5832
 9897TIP3    H251183   6.020   3.085  10.826  0.2355 -0.2785  0.0388
 9898TIP3   OH251184   1.955   4.265   2.967 -0.2786 -0.2167 -0.1446
 9898TIP3    H151185   1.987   4.181   3.002  0.4279 -1.1806 -2.8500
 9898TIP3    H251186   1.888   4.241   2.904 -1.0274  1.3773 -0.0010
 9899TIP3   OH251187   3.461   1.149  14.356  0.1045  0.1648  0.2403
 9899TIP3    H151188   3.425   1.224  14.308  0.5747 -0.2622 -0.8083
 9899TIP3    H251189   3.423   1.073  14.313 -0.2783 -0.2226  1.2242
 9900TIP3   OH251190   1.195   3.981  11.262  0.0446  0.0120  0.2966
 9900TIP3    H151191   1.288   4.002  11.275  0.1967 -1.0547  1.1236
 9900TIP3    H251192   1.193   3.940  11.175  0.1931  0.8181 -0.0987
 9901TIP3   OH251193   4.137   1.920   5.843 -0.6854  0.0898  0.4164
 9901TIP3    H151194   4.166   1.971   5.919 -1.6382 -0.0044  0.8621
 9901TIP3    H251195   4.202   1.938   5.776 -1.9084  3.4388 -0.1135
 9902TIP3   OH251196   2.818   2.886   2.706  0.3038 -0.3078 -0.5912
 9902TIP3    H151197   2.899   2.894   2.755  0.7882  1.2775 -1.5768
 9902TIP3    H251198   2.825   2.952   2.637 -1.8059 -0.1567 -0.7277
 9903TIP3   OH251199   0.905   1.735  15.027  0.1648 -0.3182  0.3455
 9903TIP3    H151200   0.817   1.722  15.063  0.3946  0.1516  1.0883
 9903TIP3    H251201   0.914   1.666  14.962 -1.2348  0.3732 -0.6545
 9904TIP3   OH251202   2.379   4.789  13.589  0.2874 -0.5390  0.4131
 9904TIP3    H151203   2.434   4.772  13.665  0.3248  0.5959  0.6563
 9904TIP3    H251204   2.408   4.874  13.556 -1.0997 -0.0527  0.3619
 9905TIP3   OH251205   2.956   3.794  13.249  0.0631 -0.2764 -0.0503
 9905TIP3    H151206   2.957   3.852  13.172  0.7832  0.1849  0.2959
 9905TIP3    H251207   2.995   3.847  13.319 -0.8716 -0.5739  0.7219
 9906TIP3   OH251208   2.257   1.901  15.783 -0.3667  0.1851  0.0714
 9906TIP3    H151209   2.309   1.868  15.709  0.3102 -2.3195  1.5340
 9906TIP3    H251210   2.167   1.897  15.753 -0.0018  0.8201 -1.1759
 9907TIP3   OH251211   6.554   2.020  13.088 -0.2743  0.0767 -0.6878
 9907TIP3    H151212   6.526   2.084  13.022 -1.3966 -1.0970 -1.4009
 9907TIP3    H251213   6.509   2.048  13.168  0.3603  0.9749 -0.6306
 9908TIP3   OH251214   3.762   4.353   0.064  0.4776 -0.0960 -0.4103
 9908TIP3    H151215   3.849   4.313   0.062 -0.3873 -2.1223 -2.8660
 9908TIP3    H251216   3.765   4.421  -0.002  0.6560  1.0350  0.7271
 9909TIP3   OH251217   6.042   6.608   1.571  0.3950 -0.4405  0.1079
 9909TIP3    H151218   6.006   6.646   1.651  0.7411 -1.1774  0.6344
 9909TIP3    H251219   6.081   6.681   1.524 -1.4891  0.3365 -0.3334
 9910TIP3   OH251220   1.223   3.197  15.478 -0.2108  0.5452 -0.1119
 9910TIP3    H151221   1.311   3.165  15.494 -0.4035 -0.4218 -0.9328
 9910TIP3    H251222   1.167   3.120  15.481 -0.8947  1.0010 -0.5610
 9911TIP3   OH251223   1.629   6.127  17.118  0.4242 -0.1071 -0.3504
 9911TIP3    H151224   1.550   6.163  17.157 -0.0400  0.4491 -1.7232
 9911TIP3    H251225   1.701   6.177  17.157 -0.0921  1.0874 -0.8847
 9912TIP3   OH251226   4.489   4.786   4.338  0.0262 -0.1811  0.0498
 9912TIP3    H151227   4.406   4.769   4.382  0.5975 -1.8128  0.5712
 9912TIP3    H251228   4.491   4.724   4.265  0.2118  0.7854 -0.8094
 9913TIP3   OH251229   2.224   0.672  11.338  0.9299 -0.1315 -0.1832
 9913TIP3    H151230   2.241   0.602  11.401  0.6858 -0.0484 -0.0231
 9913TIP3    H251231   2.223   0.628  11.253 -0.7659 -0.5971  0.0459
 9914TIP3   OH251232   4.795   3.950  13.735  0.0363  0.4711 -0.1210
 9914TIP3    H151233   4.827   3.920  13.820 -0.4872  2.1178  0.6941
 9914TIP3    H251234   4.725   4.012  13.756  1.7259  3.0495 -1.6199
 9915TIP3   OH251235   4.141   3.572  13.192 -0.3291 -0.4272 -0.0756
 9915TIP3    H151236   4.222   3.623  13.200 -0.6387 -0.0234  0.6331
 9915TIP3    H251237   4.134   3.553  13.099  0.3212 -0.0322 -0.2152
 9916TIP3   OH251238   4.369   4.221   2.428 -0.3654 -0.3878  0.2269
 9916TIP3    H151239   4.340   4.256   2.344 -1.1207 -1.0845  0.1802
 9916TIP3    H251240   4.361   4.294   2.489  0.7067  0.2786 -0.3954
 9917TIP3   OH251241   4.281   1.612  14.753  0.4023 -0.0762 -0.6311
 9917TIP3    H151242   4.349   1.658  14.802 -1.7842 -0.4908  3.2678
 9917TIP3    H251243   4.307   1.520  14.756  0.0776 -0.1515  0.2386
 9918TIP3   OH251244   5.735   0.398   3.865 -0.3293 -0.3623  0.5285
 9918TIP3    H151245   5.694   0.467   3.917 -0.1331  1.7562 -1.9214
 9918TIP3    H251246   5.790   0.351   3.927  0.2960  2.3060  2.1609
 9919TIP3   OH251247   2.593   0.683  17.146  0.1512 -0.3727 -0.1332
 9919TIP3    H151248   2.602   0.778  17.148  0.5514 -0.4126  1.2665
 9919TIP3    H251249   2.626   0.654  17.232 -0.5674 -1.7150 -0.2810
 9920TIP3   OH251250   1.900   2.780   3.439 -0.5847  0.4070  0.3027
 9920TIP3    H151251   1.973   2.789   3.378 -0.2393  1.0857  0.8014
 9920TIP3    H251252   1.838   2.721   3.395 -0.7041  1.4924 -1.0308
 9921TIP3   OH251253   1.678   3.755   5.491 -0.1907 -0.2029  0.4030
 9921TIP3    H151254   1.657   3.755   5.397  1.1157 -3.0431 -0.0112
 9921TIP3    H251255   1.767   3.789   5.495 -0.2158 -0.1626  0.5981
 9922TIP3   OH251256   1.080   2.751  15.945 -0.5742  0.0408  0.3845
 9922TIP3    H151257   1.095   2.845  15.935 -0.9379  0.1171  0.5238
 9922TIP3    H251258   1.047   2.741  16.035 -1.0308 -0.1515  0.2014
 9923TIP3   OH251259   1.774   4.423   1.710  0.1925 -0.1583  0.1981
 9923TIP3    H151260   1.796   4.511   1.682 -1.1975  0.3391  0.6038
 9923TIP3    H251261   1.820   4.413   1.794 -1.7062  1.1837  1.4694
 9924TIP3   OH251262   4.014   3.144  13.746  0.2848  0.8558 -0.0953
 9924TIP3    H151263   4.053   3.220  13.702 -1.4089  1.2330 -1.0489
 9924TIP3    H251264   4.030   3.071  13.686 -0.8594  1.1110 -0.7413
 9925TIP3   OH251265   0.542   1.908  14.536  0.3910 -0.1410  0.4861
 9925TIP3    H151266   0.590   1.881  14.615  0.2116 -1.0495  0.2933
 9925TIP3    H251267   0.519   2.000  14.553  0.7882 -0.1745  1.2762
 9926TIP3   OH251268   4.794   6.010   0.795 -0.6967  0.0082 -0.0355
 9926TIP3    H151269   4.774   5.918   0.776 -0.9488  0.2913 -1.1795
 9926TIP3    H251270   4.717   6.058   0.764 -0.6531  0.5911  0.7488
 9927TIP3   OH251271   1.614   3.198   6.345 -0.3903  0.2470  0.3231
 9927TIP3    H151272   1.589   3.106   6.335 -0.3656  0.4288 -1.8021
 9927TIP3    H251273   1.694   3.207   6.294  0.3106  1.2105  1.5247
 9928TIP3   OH251274   2.111   0.901   6.127 -0.6118 -0.2866 -0.2783
 9928TIP3    H151275   2.053   0.968   6.162  0.2897  0.0274  0.6697
 9928TIP3    H251276   2.098   0.825   6.184  1.3341  0.4331  1.2309
 9929TIP3   OH251277   3.929   5.986   0.127  0.2056 -0.3554 -0.1400
 9929TIP3    H151278   3.907   6.001   0.219 -0.3602 -1.7594 -0.0186
 9929TIP3    H251279   3.856   6.024   0.078  0.7741  0.8958 -0.0661
 9930TIP3   OH251280   3.999   2.587  16.994 -0.0152  0.0372 -0.6047
 9930TIP3    H151281   4.094   2.593  17.006  0.1013 -2.3471  0.2540
 9930TIP3    H251282   3.988   2.574  16.900  0.4436  1.1402 -0.8191
 9931TIP3   OH251283   4.138   6.025   2.695  0.3974  0.1306  0.5256
 9931TIP3    H151284   4.134   6.076   2.775  0.2818  0.1164  0.5302
 9931TIP3    H251285   4.107   6.085   2.627 -0.4193 -0.1433  0.6411
 9932TIP3   OH251286   0.009   1.109   1.251  0.4996 -0.2891  0.4406
 9932TIP3    H151287  -0.084   1.091   1.261  0.2584  0.2368 -0.6644
 9932TIP3    H251288   0.051   1.058   1.320 -0.7699  1.2932  2.4953
 9933TIP3   OH251289   2.561   6.071   1.065 -0.3174 -0.0341  0.1202
 9933TIP3    H151290   2.530   6.106   0.982  1.5978 -0.8854 -1.0183
 9933TIP3    H251291   2.620   6.139   1.100  1.6600 -1.0581 -1.0173
 9934TIP3   OH251292   1.236   0.007   6.127 -0.0922  0.1002  0.3162
 9934TIP3    H151293   1.324   0.027   6.159 -0.1071 -1.3407  1.3354
 9934TIP3    H251294   1.248  -0.068   6.069 -0.7519 -0.7333  1.2300
 9935TIP3   OH251295   3.021   1.414   0.272 -0.3710  0.1106 -0.0940
 9935TIP3    H151296   3.043   1.416   0.179  3.0216  0.8248  0.5951
 9935TIP3    H251297   3.037   1.503   0.303  2.2674 -0.8857  1.7968
 9936TIP3   OH251298   4.021   1.285  15.600  0.6932  0.4204  0.1084
 9936TIP3    H151299   4.025   1.338  15.521 -0.4026 -0.0273 -0.2612
 9936TIP3    H251300   3.987   1.345  15.667  4.5925  1.7843  1.1605
 9937TIP3   OH251301   6.736   1.710  11.443 -0.0514  0.3957  0.0392
 9937TIP3    H151302   6.813   1.746  11.487  0.1082  2.4104 -1.6887
 9937TIP3    H251303   6.772   1.659  11.370 -0.3345 -1.8173  1.3705
 9938TIP3   OH251304   0.706   1.446  13.401  0.1046  0.1063  0.3235
 9938TIP3    H151305   0.769   1.490  13.458  0.9117  0.3297 -0.7066
 9938TIP3    H251306   0.644   1.514  13.375  1.3663  0.7058 -1.2900
 9939TIP3   OH251307   4.858   4.636   0.387  0.6570  0.3346 -0.3004
 9939TIP3    H151308   4.861   4.570   0.457  0.0781 -0.0242 -0.6122
 9939TIP3    H251309   4.950   4.649   0.364  0.7607 -0.7991 -0.6251
 9940TIP3   OH251310   5.000   2.370  16.871  0.2283 -0.3361  0.3978
 9940TIP3    H151311   4.959   2.283  16.879  2.5017 -1.8431 -2.5536
 9940TIP3    H251312   4.938   2.422  16.820  0.4498 -1.5356 -1.1692
 9941TIP3   OH251313   3.521   3.350  16.473  0.2168 -0.1995  0.0814
 9941TIP3    H151314   3.602   3.392  16.504  0.9316 -0.4638 -1.3489
 9941TIP3    H251315   3.477   3.417  16.423  0.0636 -0.3734 -0.0177
 9942TIP3   OH251316   0.196   6.476   2.593  0.0986 -0.1792  0.0664
 9942TIP3    H151317   0.271   6.479   2.534 -0.6936  0.3351 -0.9698
 9942TIP3    H251318   0.169   6.568   2.601 -2.6337 -0.5937 -2.6136
 9943TIP3   OH251319   0.456   0.060   3.615 -0.1328 -0.0843 -0.6130
 9943TIP3    H151320   0.509   0.011   3.677  0.9207  0.4165 -1.0830
 9943TIP3    H251321   0.383   0.094   3.667 -0.2497 -1.1629 -0.0461
 9944TIP3   OH251322   2.380   0.092   2.709 -0.3121 -0.3061  0.6438
 9944TIP3    H151323   2.344   0.007   2.737  0.1882 -0.6120  0.3764
 9944TIP3    H251324   2.380   0.086   2.613 -1.7626  0.6192  0.5439
 9945TIP3   OH251325   6.421   4.572   4.355  0.4558 -0.3239  0.3499
 9945TIP3    H151326   6.368   4.530   4.288  0.0948  0.5263  0.0781
 9945TIP3    H251327   6.486   4.623   4.306 -0.1698  0.7594  0.6145
 9946TIP3   OH251328   3.762   5.287  16.830 -0.5982  0.3652 -0.4621
 9946TIP3    H151329   3.717   5.237  16.898 -0.4751 -2.6080 -2.3750
 9946TIP3    H251330   3.851   5.299  16.863 -0.7501 -0.3754  0.2469
 9947TIP3   OH251331   3.031   1.005   1.864  0.0923  0.3634  0.1882
 9947TIP3    H151332   3.019   0.910   1.863  2.0000  0.0189  2.5951
 9947TIP3    H251333   3.088   1.023   1.789  0.7814 -0.5664  0.4826
 9948TIP3   OH251334   4.600   1.136  13.508 -0.2077 -0.0750 -0.4661
 9948TIP3    H151335   4.537   1.207  13.520 -2.1038 -1.7104 -0.2353
 9948TIP3    H251336   4.588   1.109  13.417 -0.1337 -0.6696 -0.3016
 9949TIP3   OH251337   4.641   6.502  12.467  0.2520  0.3371 -0.1777
 9949TIP3    H151338   4.728   6.494  12.505 -0.6491 -0.0891  1.8971
 9949TIP3    H251339   4.599   6.572  12.516 -0.2383  1.3578 -1.9327
 9950TIP3   OH251340   3.418   1.624   2.520  0.5715 -0.0232  0.4024
 9950TIP3    H151341   3.501   1.577   2.517 -0.6406 -2.4855  2.0471
 9950TIP3    H251342   3.423   1.675   2.602  0.5986  0.1377  0.3016
 9951TIP3   OH251343   6.569   0.242  16.192 -0.4583 -0.4025  0.2649
 9951TIP3    H151344   6.520   0.290  16.259 -1.8543 -1.7810  0.2851
 9951TIP3    H251345   6.634   0.191  16.241  1.2064  1.5455  0.2272
 9952TIP3   OH251346   5.246   0.635   5.473  0.1500 -0.3786 -0.5190
 9952TIP3    H151347   5.202   0.640   5.558 -0.2817  0.9305 -0.7949
 9952TIP3    H251348   5.325   0.688   5.484 -0.5038  0.7954 -1.2611
 9953TIP3   OH251349   1.668   0.649  13.474  0.3434 -0.3776  0.2648
 9953TIP3    H151350   1.664   0.609  13.561 -2.4319 -0.3654  0.2484
 9953TIP3    H251351   1.584   0.694  13.465  0.1780 -1.0658 -2.7226
 9954TIP3   OH251352   4.236   6.697  14.361  0.0741 -0.3504 -0.0147
 9954TIP3    H151353   4.175   6.624  14.350 -0.2362  0.1715 -2.1354
 9954TIP3    H251354   4.309   6.660  14.411  0.1067 -2.2411 -1.3813
 9955TIP3   OH251355   6.003   2.142   1.715  0.9132  0.0583 -0.6789
 9955TIP3    H151356   6.021   2.132   1.622  1.7610 -0.1444 -0.5017
 9955TIP3    H251357   6.085   2.175   1.752  0.6320 -0.0028  0.0240
 9956TIP3   OH251358   5.604   0.495  15.803 -0.3911  0.3208 -0.6500
 9956TIP3    H151359   5.581   0.409  15.839 -1.7415  0.4770 -1.1070
 9956TIP3    H251360   5.548   0.505  15.727 -1.9426  2.5599  0.6757
 9957TIP3   OH251361   2.214   2.773  13.582 -0.0509  0.0532  0.5129
 9957TIP3    H151362   2.184   2.745  13.669  0.7017 -0.8930  0.4896
 9957TIP3    H251363   2.227   2.867  13.590 -1.9182  0.3280  0.8383
 9958TIP3   OH251364   4.741   1.186   4.504  0.2581  0.2910 -0.1796
 9958TIP3    H151365   4.664   1.217   4.551  0.2400 -0.3287  0.2065
 9958TIP3    H251366   4.785   1.126   4.564  1.3592  1.0609 -0.1731
 9959TIP3   OH251367   5.787   5.729   5.813  0.2173  0.1636  0.4753
 9959TIP3    H151368   5.733   5.677   5.872 -2.0832  1.4937 -0.3098
 9959TIP3    H251369   5.733   5.740   5.734  2.0675  0.7506 -0.7848
 9960TIP3   OH251370   6.489   6.031   3.967 -0.2277  0.1014  0.4811
 9960TIP3    H151371   6.582   6.041   3.946 -0.7002  2.3898 -0.9775
 9960TIP3    H251372   6.457   5.967   3.904 -0.3210  2.2019 -1.7757
 9961TIP3   OH251373   1.237   2.596  15.738 -0.0964  0.4578 -0.0882
 9961TIP3    H151374   1.328   2.596  15.708 -0.6724 -0.0234 -1.9969
 9961TIP3    H251375   1.239   2.641  15.822  1.8001  1.0944 -0.4306
 9962TIP3   OH251376   1.019   4.763   5.772  0.2247  0.5504 -0.9641
 9962TIP3    H151377   0.947   4.709   5.738  1.4708 -2.3349  0.5597
 9962TIP3    H251378   1.030   4.832   5.707 -2.0609 -0.5363 -2.6627
 9963TIP3   OH251379   5.621   4.332   3.752  0.0510 -0.5326  0.3114
 9963TIP3    H151380   5.675   4.306   3.826 -0.4405  0.2341  0.9527
 9963TIP3    H251381   5.616   4.427   3.757 -0.9368 -0.5459 -0.0228
 9964TIP3   OH251382   5.520   6.342   4.864  0.0709 -0.8226  0.0090
 9964TIP3    H151383   5.469   6.267   4.896  1.5175 -1.2235  1.4664
 9964TIP3    H251384   5.611   6.314   4.871  0.5812  0.4542 -1.1028
 9965TIP3   OH251385   4.967   1.760  14.642  0.1889  0.7710 -0.2766
 9965TIP3    H151386   5.036   1.810  14.685  0.2351  0.3108  0.1821
 9965TIP3    H251387   4.892   1.764  14.702  0.8484 -1.4507  0.7588
 9966TIP3   OH251388   3.151   0.342  13.970 -0.1688 -0.4530  0.5617
 9966TIP3    H151389   3.155   0.377  13.882  0.5477 -2.2587 -0.1741
 9966TIP3    H251390   3.064   0.367  14.002 -0.1973  0.7548 -0.3877
 9967TIP3   OH251391   6.798   1.634   5.110  0.6122 -0.3997 -0.1776
 9967TIP3    H151392   6.881   1.672   5.140  1.7560 -2.2769 -0.7443
 9967TIP3    H251393   6.795   1.654   5.016  0.3813 -0.2531 -0.1391
 9968TIP3   OH251394   3.767   5.337  11.560 -0.2727  0.3958  0.0603
 9968TIP3    H151395   3.684   5.299  11.529 -1.8087  3.3820  0.1777
 9968TIP3    H251396   3.813   5.263  11.600 -3.2372 -1.2492  0.7372
 9969TIP3   OH251397   1.702   0.444  13.223  0.3673 -0.3288 -0.5420
 9969TIP3    H151398   1.688   0.483  13.309 -1.6280 -1.1289 -0.4475
 9969TIP3    H251399   1.728   0.517  13.167  1.1031  0.2964  0.5909
 9970TIP3   OH251400   2.228   3.336   5.367 -0.5817  0.0272 -0.6464
 9970TIP3    H151401   2.150   3.357   5.419 -1.3868 -0.3758 -1.6625
 9970TIP3    H251402   2.299   3.336   5.431 -1.3313  0.8588  0.2248
 9971TIP3   OH251403   1.906   1.559   3.754 -0.0227 -0.4846  0.4046
 9971TIP3    H151404   1.831   1.532   3.702 -0.0372 -1.9384  1.1310
 9971TIP3    H251405   1.918   1.488   3.817  0.5729  0.7690  1.7661
 9972TIP3   OH251406   1.030   6.138  11.329  0.0714 -0.3648  0.1117
 9972TIP3    H151407   1.012   6.105  11.241  0.1410  0.8500 -0.3811
 9972TIP3    H251408   1.121   6.113  11.346  0.4497  0.4298 -0.6683
 9973TIP3   OH251409   0.068   4.807  11.106 -0.5649 -0.5273 -0.0733
 9973TIP3    H151410   0.003   4.785  11.039  0.1929  3.3880 -2.3942
 9973TIP3    H251411   0.021   4.865  11.167 -0.0616 -0.2338  0.0439
 9974TIP3   OH251412   0.759   3.199  15.349 -0.2564 -0.6081  0.3055
 9974TIP3    H151413   0.782   3.292  15.350 -1.4179 -0.2880  2.0874
 9974TIP3    H251414   0.664   3.199  15.340 -0.4683 -1.5285  2.1769
 9975TIP3   OH251415   5.180   3.963  17.198 -0.5283 -0.4404 -0.2684
 9975TIP3    H151416   5.269   3.930  17.206 -1.0898 -1.7209  1.2581
 9975TIP3    H251417   5.138   3.905  17.135 -0.6253 -0.6547 -0.0098
 9976TIP3   OH251418   4.161   6.722   1.695  0.0977  0.2633  0.6277
 9976TIP3    H151419   4.149   6.816   1.684 -2.0636  0.4111  3.3267
 9976TIP3    H251420   4.244   6.713   1.742  0.5213  0.7580 -0.0159
 9977TIP3   OH251421   2.718   6.694  15.004  0.0959  0.1369  0.1976
 9977TIP3    H151422   2.659   6.713  14.931 -0.7499 -1.9833  0.2600
 9977TIP3    H251423   2.701   6.764  15.067 -0.9397  0.6512 -0.6207
 9978TIP3   OH251424   4.050   2.128  13.723 -0.0100  0.7496 -0.3766
 9978TIP3    H151425   4.085   2.206  13.766  0.3678  1.3407 -1.6824
 9978TIP3    H251426   4.076   2.138  13.631 -2.1561  0.3771 -1.0889
 9979TIP3   OH251427   3.841   1.104   0.604  0.3204  0.4366 -0.5185
 9979TIP3    H151428   3.839   1.152   0.687  1.3475  1.5907 -1.1253
 9979TIP3    H251429   3.901   1.155   0.549  0.9312 -1.2035 -1.4233
 9980TIP3   OH251430   5.214   1.506  15.617  0.4703  0.4318  0.1833
 9980TIP3    H151431   5.142   1.443  15.611  1.3055 -0.7103  1.4957
 9980TIP3    H251432   5.200   1.566  15.544  0.5559 -2.2382 -2.1929
 9981TIP3   OH251433   6.595   1.547   1.565 -0.0419  0.1497 -0.5730
 9981TIP3    H151434   6.521   1.594   1.525 -1.4812 -1.5347 -0.0498
 9981TIP3    H251435   6.584   1.561   1.659 -0.2479 -0.8183 -0.4379
 9982TIP3   OH251436   2.183   4.034   1.460 -0.1282  0.2018  0.5131
 9982TIP3    H151437   2.164   3.961   1.519 -0.0086  1.2052  1.8248
 9982TIP3    H251438   2.227   4.099   1.515  1.3478  0.5666 -1.0215
 9983TIP3   OH251439   5.942   4.736  13.690 -0.4712  0.4438 -0.3312
 9983TIP3    H151440   5.962   4.829  13.703 -0.3091  0.5693 -1.4061
 9983TIP3    H251441   5.942   4.699  13.778  0.2648  1.3031  0.0399
 9984TIP3   OH251442   3.143   3.533  13.358 -0.1575 -0.1032  0.8817
 9984TIP3    H151443   3.164   3.616  13.316 -1.0755 -0.0977  0.4067
 9984TIP3    H251444   3.169   3.466  13.295 -1.1733 -0.1082  0.4585
 9985TIP3   OH251445   0.644   2.363   6.435  0.1206 -0.1147 -0.0686
 9985TIP3    H151446   0.636   2.298   6.505 -0.6641  2.1982  2.1852
 9985TIP3    H251447   0.724   2.411   6.457  0.6236 -0.1933 -1.6068
 9986TIP3   OH251448   4.399   5.371  14.472 -0.0253 -0.1879 -0.0569
 9986TIP3    H151449   4.395   5.449  14.418  2.6191 -0.7763 -1.2663
 9986TIP3    H251450   4.453   5.396  14.547 -1.3098 -0.1832  0.9089
 9987TIP3   OH251451   1.693   2.174  13.935  0.4520 -0.2948 -0.2283
 9987TIP3    H151452   1.639   2.096  13.944  1.8512 -1.1719  0.9451
 9987TIP3    H251453   1.742   2.160  13.854  0.3257 -0.3874 -0.2898
 9988TIP3   OH251454   6.105   5.677   0.621  0.4126 -0.3728  0.1679
 9988TIP3    H151455   6.017   5.665   0.656  0.8650 -0.3238  1.3815
 9988TIP3    H251456   6.123   5.596   0.574  0.7224 -1.5605  2.2131
 9989TIP3   OH251457   0.868   5.534  13.253 -0.0884  0.2396 -0.7972
 9989TIP3    H151458   0.928   5.551  13.181  0.2187  0.0044 -0.6000
 9989TIP3    H251459   0.881   5.608  13.313 -0.5616  0.5900 -1.1248
 9990TIP3   OH251460   4.313   0.520   1.093  0.0643  0.0224  0.1814
 9990TIP3    H151461   4.367   0.490   1.020 -0.0544 -1.8221  0.7962
 9990TIP3    H251462   4.302   0.442   1.148 -1.7297  0.7944  0.9877
 9991TIP3   OH251463   0.322   1.139  13.943 -0.6018  0.0728 -0.4432
 9991TIP3    H151464   0.376   1.062  13.957 -0.0041  0.8639  2.0320
 9991TIP3    H251465   0.384   1.207  13.914 -0.7542  0.2344 -0.3926
 9992TIP3   OH251466   0.313   1.307  15.678  0.0368  0.9542  0.0268
 9992TIP3    H151467   0.390   1.258  15.650 -1.5393 -0.1091 -2.9085
 9992TIP3    H251468   0.346   1.395  15.696  2.3550 -0.1954  1.8931
 9993TIP3   OH251469   1.254   4.289  13.909  0.0570  0.2921  0.5546
 9993TIP3    H151470   1.314   4.255  13.844  0.9752  1.7658  0.5742
 9993TIP3    H251471   1.282   4.249  13.991 -0.2749 -0.5632  0.2570
 9994TIP3   OH251472   3.024   0.826   5.491  0.0443  0.4663 -0.3278
 9994TIP3    H151473   3.092   0.770   5.530 -0.8015  0.7526  1.6870
 9994TIP3    H251474   3.026   0.906   5.544 -0.7795  1.1239 -1.2673
 9995TIP3   OH251475   6.298   1.749   0.206 -0.4648 -0.3048 -0.7930
 9995TIP3    H151476   6.246   1.828   0.217 -0.8669 -0.6834  0.1000
 9995TIP3    H251477   6.345   1.762   0.124 -3.2759 -0.7112 -2.5862
 9996TIP3   OH251478   3.933   2.446  11.015 -0.0027  0.2070 -0.3950
 9996TIP3    H151479   3.990   2.391  10.962  3.8396  1.0284  2.4528
 9996TIP3    H251480   3.931   2.530  10.969 -0.6667 -0.4160 -1.5491
 9997TIP3   OH251481   1.551   4.887  17.086 -0.1314  0.2989 -0.4402
 9997TIP3    H151482   1.588   4.832  17.017 -1.5090  0.9277 -1.7378
 9997TIP3    H251483   1.478   4.932  17.044 -0.1763  1.7370  1.0875
 9998TIP3   OH251484   5.498   4.041  16.888  0.0226  0.3070  0.2685
 9998TIP3    H151485   5.521   4.131  16.912  0.3234  0.3134 -0.0397
 9998TIP3    H251486   5.412   4.049  16.847  0.0406  0.4555  0.2574
 9999TIP3   OH251487   2.528   5.204  12.300 -0.2625 -0.2675 -0.5118
 9999TIP3    H151488   2.519   5.160  12.385  0.2421 -2.1830 -1.3966
 9999TIP3    H251489   2.438   5.229  12.277 -0.7371 -1.7878 -0.4327
10000TIP3   OH251490   4.224   5.972  16.117  0.0627 -0.0890 -0.1037
10000TIP3    H151491   4.312   5.935  16.118  0.4293  0.7736  0.2306
10000TIP3    H251492   4.179   5.929  16.190  0.4651  0.0779  0.2469
10001TIP3   OH251493   4.251   2.191   1.371  0.5623  0.4818 -0.2316
10001TIP3    H151494   4.296   2.137   1.435  0.8126  1.1684  0.1817
10001TIP3    H251495   4.168   2.145   1.355  0.6828  0.0847  0.2638
10002TIP3   OH251496   0.122   3.245   3.472  0.2980 -0.1083 -0.2120
10002TIP3    H151497   0.058   3.287   3.530  0.2542 -0.9764  0.3780
10002TIP3    H251498   0.069   3.210   3.400  0.2801  0.4037 -0.4549
10003TIP3   OH251499   3.981   3.542   1.974 -0.1066 -0.1495  0.5054
10003TIP3    H151500   4.061   3.491   1.989  0.1047  0.0148 -0.0451
10003TIP3    H251501   4.012   3.627   1.945 -0.4771  0.1139  0.8730
10004TIP3   OH251502   0.995   1.166   0.151  0.2542 -0.0379  0.7604
10004TIP3    H151503   0.959   1.216   0.224  1.2099 -0.5910  1.6213
10004TIP3    H251504   0.933   1.181   0.080 -0.4192  0.9252  1.5215
10005TIP3   OH251505   3.176   0.089  12.005  0.7162  0.2715 -1.0943
10005TIP3    H151506   3.236   0.025  12.045  0.1840 -1.1787 -2.5032
10005TIP3    H251507   3.227   0.129  11.935  0.6174  0.3626 -1.1141
10006TIP3   OH251508   2.598   1.270   4.862  0.1249  0.4731 -0.0768
10006TIP3    H151509   2.639   1.185   4.881 -2.1887 -0.7907 -0.3981
10006TIP3    H251510   2.667   1.334   4.880  1.6886 -1.4016  1.0282
10007TIP3   OH251511   6.547   1.820  12.570 -0.2054 -0.2067  0.0117
10007TIP3    H151512   6.614   1.786  12.630 -1.5779 -2.2337  0.5152
10007TIP3    H251513   6.581   1.904  12.541  0.9934  0.4384  2.8937
10008TIP3   OH251514   5.671   4.730   5.469 -0.8234 -0.2773  0.2677
10008TIP3    H151515   5.693   4.702   5.558 -1.9983  1.8046  1.3252
10008TIP3    H251516   5.630   4.816   5.482 -1.8376 -0.3106 -2.2229
10009TIP3   OH251517   2.405   2.635  15.042 -0.0268 -0.2828 -0.0791
10009TIP3    H151518   2.324   2.643  15.093  0.1357 -2.6041  0.6473
10009TIP3    H251519   2.474   2.628  15.107  0.6658  0.6007 -0.6916
10010TIP3   OH251520   3.654   1.389  11.078 -0.4225 -0.6348  0.1317
10010TIP3    H151521   3.612   1.378  11.163  1.8138 -0.4653  1.3377
10010TIP3    H251522   3.723   1.322  11.076 -0.3797 -0.5967 -1.5371
10011TIP3   OH251523   4.444   6.077  12.839  0.0606 -0.1820  0.2052
10011TIP3    H151524   4.434   6.050  12.747  1.7893  0.4092 -0.1892
10011TIP3    H251525   4.385   6.152  12.848 -1.0751 -1.0109 -0.0397
10012TIP3   OH251526   5.380   6.433  16.869 -0.3486  0.4140  0.5415
10012TIP3    H151527   5.468   6.470  16.870 -0.1757  0.0547 -0.3282
10012TIP3    H251528   5.322   6.509  16.873  0.0024  0.7132  0.0647
10013TIP3   OH251529   0.426   1.884  15.073 -0.4184  0.4598 -0.6350
10013TIP3    H151530   0.369   1.890  14.996 -0.7101  1.4609 -0.3531
10013TIP3    H251531   0.492   1.952  15.060  2.1147 -2.0237 -2.0140
10014TIP3   OH251532   2.826   4.456  16.448 -0.4239 -0.0503  0.0378
10014TIP3    H151533   2.758   4.476  16.384  0.0335  1.8091  0.0855
10014TIP3    H251534   2.835   4.535  16.500  1.4126 -0.4224  0.3721
10015TIP3   OH251535   0.890   3.681   6.743 -0.3100  0.7154  0.7546
10015TIP3    H151536   0.969   3.686   6.797 -0.1612  2.1430  0.4530
10015TIP3    H251537   0.827   3.739   6.786 -1.0621 -0.0963  0.7717
10016TIP3   OH251538   6.312   4.788  14.185  0.5567  0.0974 -0.2794
10016TIP3    H151539   6.274   4.722  14.244  0.3462  1.1373  0.7971
10016TIP3    H251540   6.236   4.836  14.152  0.6510 -0.6841 -1.7030
10017TIP3   OH251541   1.177   3.314   3.829  0.1936  0.3346 -0.9304
10017TIP3    H151542   1.225   3.252   3.882  0.8661 -0.3759 -2.3220
10017TIP3    H251543   1.101   3.265   3.797  0.5563  0.3143 -1.7778
10018TIP3   OH251544   3.540   5.946   4.291  0.9589  0.1989 -0.0856
10018TIP3    H151545   3.598   5.870   4.286  1.0617  0.2927 -0.3492
10018TIP3    H251546   3.595   6.015   4.327  0.4168 -0.2836  1.7448
10019TIP3   OH251547   1.134   5.255   3.561 -0.4451  0.1887  0.1892
10019TIP3    H151548   1.221   5.290   3.582 -0.3140 -1.0413  1.8778
10019TIP3    H251549   1.152   5.174   3.513 -0.6132 -0.4726  1.2147
10020TIP3   OH251550   0.243   3.161   5.181 -0.4300 -0.8323 -0.1926
10020TIP3    H151551   0.177   3.192   5.243  1.6125  2.9112  0.4569
10020TIP3    H251552   0.261   3.238   5.126  3.2297 -1.6673 -0.3876
10021TIP3   OH251553   6.438   6.575  12.319 -0.4432  0.3402  0.6160
10021TIP3    H151554   6.531   6.582  12.339 -0.2755  0.9667 -0.2871
10021TIP3    H251555   6.426   6.632  12.242 -1.6515  0.6371  0.9972
10022TIP3   OH251556   0.487   5.106  11.829 -0.0001  0.1231  0.1086
10022TIP3    H151557   0.453   5.061  11.751 -0.2264 -0.1478  0.3600
10022TIP3    H251558   0.408   5.134  11.876  0.1340  0.8633 -0.0822
10023TIP3   OH251559   1.023   6.801  16.073  0.2136 -0.7240  0.2308
10023TIP3    H151560   0.971   6.789  15.994  1.4921  2.1139 -1.1890
10023TIP3    H251561   1.108   6.762  16.053  1.3283  2.0224 -0.8455
10024TIP3   OH251562   2.613   0.564   0.708 -0.0383  0.1784 -0.2110
10024TIP3    H151563   2.528   0.609   0.707 -0.7089 -1.0340 -1.3434
10024TIP3    H251564   2.593   0.473   0.686  1.4287 -0.4247  0.7567
10025TIP3   OH251565   6.006   1.238  15.293 -0.3619 -0.2564 -0.5985
10025TIP3    H151566   6.060   1.179  15.344 -0.8057 -1.2499 -1.2561
10025TIP3    H251567   6.006   1.201  15.205 -0.0166  1.1489 -1.2272
10026TIP3   OH251568   1.400   4.436  16.658 -0.6454  0.4589 -0.1166
10026TIP3    H151569   1.396   4.394  16.744  0.2612  1.6328  0.5210
10026TIP3    H251570   1.344   4.381  16.603 -0.4693 -0.8808  0.9656
10027TIP3   OH251571   3.977   0.010  16.778 -0.0403 -0.1109  0.3032
10027TIP3    H151572   3.962  -0.074  16.820  1.3029 -0.4544  0.1331
10027TIP3    H251573   3.890   0.041  16.754 -0.6185 -1.0412  1.1351
10028TIP3   OH251574   3.824   0.542   1.222  0.2280  0.1793  0.1501
10028TIP3    H151575   3.915   0.562   1.199  0.4711  0.9445  1.6313
10028TIP3    H251576   3.828   0.454   1.260  0.3290  0.1573  0.0875
10029TIP3   OH251577   3.740   5.630   3.042  0.3926  0.0070  0.0142
10029TIP3    H151578   3.728   5.706   3.099  1.8615  0.4989 -0.2916
10029TIP3    H251579   3.711   5.659   2.956 -1.3422 -0.5767  0.3584
10030TIP3   OH251580   0.794   1.495  17.300  0.2572 -0.4636 -0.4037
10030TIP3    H151581   0.885   1.464  17.305 -0.0884 -1.4020  0.3487
10030TIP3    H251582   0.792   1.573  17.355  0.7746  0.0148 -1.0426
10031TIP3   OH251583   0.444   3.288   3.682  0.2066 -0.0506 -0.5387
10031TIP3    H151584   0.364   3.245   3.713  0.1522 -1.7580 -2.7744
10031TIP3    H251585   0.415   3.375   3.654 -0.5326 -0.0475  0.1986
10032TIP3   OH251586   5.847   5.266   2.062 -0.0369 -0.6859 -0.4290
10032TIP3    H151587   5.773   5.323   2.084  0.7969  0.0743  0.4896
10032TIP3    H251588   5.819   5.180   2.093 -0.2230 -0.2487  0.6784
10033TIP3   OH251589   1.267   3.567   1.050 -0.2932  0.1245 -0.2813
10033TIP3    H151590   1.333   3.530   0.991 -2.2690 -0.3719 -2.3240
10033TIP3    H251591   1.237   3.492   1.102 -1.6440 -0.4468 -1.8015
10034TIP3   OH251592   5.043   3.990   2.467 -0.2885 -0.5606  0.3349
10034TIP3    H151593   5.103   3.933   2.418 -2.1167 -2.7824  0.5097
10034TIP3    H251594   5.083   3.997   2.554  0.3412 -0.9534  0.0878
10035TIP3   OH251595   1.004   4.728   4.697  0.0162  0.4081 -0.1010
10035TIP3    H151596   0.945   4.782   4.749 -0.5375  0.5870 -0.9011
10035TIP3    H251597   1.072   4.789   4.667  0.3056  0.3161  0.3500
10036TIP3   OH251598   6.071   4.254  11.340 -0.1054  0.6513  0.1615
10036TIP3    H151599   6.092   4.271  11.432  0.5726 -0.9272  0.3319
10036TIP3    H251600   6.140   4.196  11.310 -1.0848  0.0110 -0.9540
10037TIP3   OH251601   1.948   1.860  15.961 -0.0650  0.4585 -0.0837
10037TIP3    H151602   2.030   1.844  16.007  0.5320 -0.6568 -1.4449
10037TIP3    H251603   1.881   1.823  16.017  0.5535 -0.1260  0.2803
10038TIP3   OH251604   6.084   3.486   1.624  0.1492  0.1619  0.1322
10038TIP3    H151605   6.116   3.418   1.565 -0.3458 -0.9498  1.0827
10038TIP3    H251606   6.138   3.476   1.703 -0.9793 -0.2223  0.8874
10039TIP3   OH251607   4.495   2.742  10.892  0.7251  0.5456  0.3265
10039TIP3    H151608   4.429   2.750  10.823  1.3236 -0.7941 -0.4409
10039TIP3    H251609   4.460   2.675  10.951  0.1941  1.7216  1.3772
10040TIP3   OH251610   4.738   4.991   6.579 -0.3228  0.0083 -0.3440
10040TIP3    H151611   4.711   4.899   6.586  1.8818 -0.7078 -0.3358
10040TIP3    H251612   4.824   4.993   6.621 -0.8440  2.3611  0.7368
10041TIP3   OH251613   4.453   3.770   2.516 -0.2010 -0.1328 -0.5969
10041TIP3    H151614   4.540   3.754   2.553 -1.0084 -0.7105  1.1505
10041TIP3    H251615   4.443   3.703   2.448  0.0782 -1.1288  0.3214
10042TIP3   OH251616   0.683   3.707  16.066 -0.5036 -0.0363  0.6340
10042TIP3    H151617   0.689   3.633  16.006 -1.8930  0.3242  0.0196
10042TIP3    H251618   0.593   3.705  16.098 -0.4801  1.2213  0.8117
10043TIP3   OH251619   4.365   2.796  13.197  0.9263  1.0083 -0.5561
10043TIP3    H151620   4.364   2.741  13.275 -0.7466  2.1994  0.3321
10043TIP3    H251621   4.376   2.885  13.232  2.0584  1.4005 -1.8368
10044TIP3   OH251622   4.291   4.585  12.539 -0.6987  0.2489 -0.0026
10044TIP3    H151623   4.321   4.668  12.575  2.2552 -0.7585  0.1358
10044TIP3    H251624   4.215   4.608  12.485 -0.6780  2.8268  0.9310
10045TIP3   OH251625   2.809   2.499  13.375  0.6497  0.0270 -0.4779
10045TIP3    H151626   2.760   2.565  13.423 -0.1181  0.3241 -1.6437
10045TIP3    H251627   2.775   2.415  13.407  0.8788  0.2007  0.2309
10046TIP3   OH251628   2.887   4.363   3.813 -0.4689  0.6616  0.1930
10046TIP3    H151629   2.839   4.282   3.797 -1.3974  1.3944 -0.8813
10046TIP3    H251630   2.930   4.349   3.897  1.0425 -1.7130 -0.8542
10047TIP3   OH251631   1.862   5.560   7.100  0.7079  0.0115 -0.1091
10047TIP3    H151632   1.871   5.578   7.006 -0.9508  2.9589  0.1605
10047TIP3    H251633   1.848   5.646   7.139 -3.8702 -1.4674  2.1638
10048TIP3   OH251634   6.338   2.547  17.197  0.1578  0.2165  0.2595
10048TIP3    H151635   6.341   2.458  17.162 -3.6031 -0.2664  0.6923
10048TIP3    H251636   6.328   2.603  17.121  0.0170 -0.0118  0.1085
10049TIP3   OH251637   2.552   0.964  17.092 -0.1949  0.5117 -0.6490
10049TIP3    H151638   2.540   0.996  17.182 -0.6839 -0.2925 -0.4231
10049TIP3    H251639   2.580   1.042  17.043 -0.8945  1.1855 -0.0081
10050TIP3   OH251640   6.644   4.705   6.960 -0.0528 -0.3588  0.3459
10050TIP3    H151641   6.614   4.757   6.886  0.3398 -1.3200 -0.5166
10050TIP3    H251642   6.575   4.641   6.975  0.6604 -1.3204 -0.3748
10051TIP3   OH251643   1.426   1.066  13.799 -0.0243  0.0126  0.1674
10051TIP3    H151644   1.484   1.069  13.723 -1.5981 -0.4646 -1.0993
10051TIP3    H251645   1.463   0.998  13.855  2.2028  1.5935  0.7905
10052TIP3   OH251646   3.693   1.081  14.522 -0.0946 -0.2444  0.2386
10052TIP3    H151647   3.689   1.016  14.592 -1.7765  0.4153  0.7817
10052TIP3    H251648   3.607   1.079  14.482  0.2226  0.7928 -0.5394
10053TIP3   OH251649   5.618   5.366  15.476  0.0795 -0.3659  0.2879
10053TIP3    H151650   5.586   5.301  15.413  0.7171  0.5105 -0.9947
10053TIP3    H251651   5.710   5.379  15.452  0.5172 -0.4575  1.8214
10054TIP3   OH251652   3.202   5.357   5.841 -0.7427 -0.2863 -0.3380
10054TIP3    H151653   3.221   5.440   5.797 -2.0067 -0.2122 -0.7916
10054TIP3    H251654   3.161   5.382   5.923 -0.2538 -0.4566 -0.0386
10055TIP3   OH251655   4.418   2.373   5.691 -0.0569 -0.0055 -0.9034
10055TIP3    H151656   4.416   2.379   5.787 -3.7521  0.4580 -0.8661
10055TIP3    H251657   4.505   2.404   5.667  0.8480  0.2943  2.2645
10056TIP3   OH251658   0.056   0.113   0.760 -1.0379 -0.0738 -0.5987
10056TIP3    H151659   0.070   0.072   0.674  0.9913 -0.1448 -0.2755
10056TIP3    H251660   0.046   0.039   0.820  0.6125 -0.1171 -0.3313
10057TIP3   OH251661   1.435   5.317  12.827 -0.2529  0.4848  0.5594
10057TIP3    H151662   1.441   5.402  12.872 -3.1398  0.9862  0.1870
10057TIP3    H251663   1.431   5.253  12.898 -2.2409  1.0742  1.0720
10058TIP3   OH251664   2.685   0.492   2.767  0.0195 -0.0064  0.1641
10058TIP3    H151665   2.777   0.491   2.742 -0.2436 -1.5678 -0.8832
10058TIP3    H251666   2.645   0.557   2.710  0.3751  0.2653  0.2252
10059TIP3   OH251667   3.291   4.554   5.363  0.5218 -0.4328  0.0930
10059TIP3    H151668   3.349   4.512   5.299  0.5942 -1.5001  0.8251
10059TIP3    H251669   3.350   4.601   5.422  0.5707 -0.6342  0.2073
10060TIP3   OH251670   0.805   0.880   4.321  0.0351 -0.5086  0.2225
10060TIP3    H151671   0.781   0.874   4.228  1.1264 -0.1541 -0.1008
10060TIP3    H251672   0.900   0.885   4.321  0.0262  0.0470  1.3374
10061TIP3   OH251673   3.743   2.632  11.996 -0.0938 -0.2522 -0.4462
10061TIP3    H151674   3.731   2.549  12.043  2.0136 -1.3518 -1.7067
10061TIP3    H251675   3.769   2.694  12.064  0.3031 -1.1572  0.2538
10062TIP3   OH251676   5.865   2.419  15.979  0.6238 -0.2428 -0.3289
10062TIP3    H151677   5.878   2.324  15.982 -0.7896 -0.4490  0.0734
10062TIP3    H251678   5.770   2.430  15.979  0.7345  1.1426 -2.2363
10063TIP3   OH251679   1.689   6.126  11.370 -0.0243  0.2789  0.2505
10063TIP3    H151680   1.692   6.073  11.291 -1.3533  0.7814 -0.1609
10063TIP3    H251681   1.781   6.142  11.392  0.3625 -0.2765 -0.9013
10064TIP3   OH251682   3.678   0.775   0.757  0.0540 -0.2067 -0.3279
10064TIP3    H151683   3.584   0.768   0.772  0.0324  0.1163 -0.2960
10064TIP3    H251684   3.704   0.852   0.807  0.3340 -0.2868 -0.3484
10065TIP3   OH251685   0.480   6.463   1.249 -0.5678  0.7812  0.3799
10065TIP3    H151686   0.389   6.455   1.221 -0.9095  0.6304  1.4864
10065TIP3    H251687   0.479   6.438   1.341  0.1414  3.3142  1.1649
10066TIP3   OH251688   0.417   3.419   2.094  0.2063 -0.3423  0.2948
10066TIP3    H151689   0.417   3.502   2.142 -1.8433  0.6022 -1.1799
10066TIP3    H251690   0.400   3.353   2.161 -0.4037  0.6978  1.2015
10067TIP3   OH251691   4.471   4.411   6.014 -0.0415  0.0760  0.0178
10067TIP3    H151692   4.462   4.486   5.955 -0.4409 -1.1036 -1.4993
10067TIP3    H251693   4.520   4.445   6.089 -2.0326  2.3745  0.4069
10068TIP3   OH251694   5.207   5.318   3.129  0.3239 -0.1786  0.0959
10068TIP3    H151695   5.212   5.387   3.195  0.3126 -1.3187  1.3195
10068TIP3    H251696   5.115   5.314   3.104 -0.3769 -2.0321  2.5919
10069TIP3   OH251697   6.520   0.957  12.017 -0.1877 -0.0089  0.9069
10069TIP3    H151698   6.579   0.983  11.946 -0.1944 -0.4809  0.7209
10069TIP3    H251699   6.484   1.039  12.050 -0.3573  0.2030  0.2124
10070TIP3   OH251700   5.994   3.720   4.148 -0.0769  0.0418 -0.6075
10070TIP3    H151701   6.037   3.764   4.075  0.6753  0.0612 -0.1558
10070TIP3    H251702   6.063   3.705   4.212 -0.5038 -1.0055 -0.3736
10071TIP3   OH251703   5.898   1.624   6.014  0.0955  0.0972 -0.0536
10071TIP3    H151704   5.899   1.632   6.109  1.2418  1.0718 -0.1193
10071TIP3    H251705   5.871   1.711   5.984  1.2800  0.2757 -0.6408
10072TIP3   OH251706   1.039   2.692   5.128  0.0007 -0.0670  0.3148
10072TIP3    H151707   1.059   2.761   5.191 -0.4123 -0.4633  0.8893
10072TIP3    H251708   1.124   2.668   5.091  0.6016 -1.3812  2.3462
10073TIP3   OH251709   3.835   4.639   4.844 -0.2891 -0.9960  1.1443
10073TIP3    H151710   3.824   4.688   4.763  2.2116  0.2452  1.4488
10073TIP3    H251711   3.825   4.547   4.818 -2.9619 -0.5308  0.1611
10074TIP3   OH251712   2.664   4.839  16.056 -0.2871 -0.6982  0.3727
10074TIP3    H151713   2.627   4.906  16.113 -1.7620  0.3828 -1.7556
10074TIP3    H251714   2.755   4.831  16.085 -0.7085  0.5081  2.1912
10075TIP3   OH251715   0.722   3.409   5.174 -0.3176  0.2014 -0.6610
10075TIP3    H151716   0.655   3.433   5.238  1.2098 -0.9351  1.5166
10075TIP3    H251717   0.739   3.489   5.125 -1.3288  1.2411  0.6181
10076TIP3   OH251718   2.491   3.689  10.529 -0.3779 -0.2834  0.4663
10076TIP3    H151719   2.495   3.594  10.521  0.1553 -0.0981 -3.0756
10076TIP3    H251720   2.581   3.718  10.518 -0.8433  0.7094 -0.9223
10077TIP3   OH251721   6.468   4.496  15.625 -1.0221  0.3370 -0.3164
10077TIP3    H151722   6.483   4.494  15.530  3.8927 -1.1452  0.2063
10077TIP3    H251723   6.439   4.407  15.646  0.8272 -0.3096 -0.2583
10078TIP3   OH251724   5.631   1.436   2.669  0.6621 -0.3338 -0.0442
10078TIP3    H151725   5.628   1.370   2.738  0.0896  0.4299  0.6813
10078TIP3    H251726   5.552   1.488   2.682  0.1000 -0.6861 -1.8087
10079TIP3   OH251727   2.877   4.131  15.431 -0.1803 -0.6996  0.2026
10079TIP3    H151728   2.922   4.074  15.369 -0.8455 -2.2111  1.0501
10079TIP3    H251729   2.793   4.149  15.391  0.5653  0.9255 -0.7185
10080TIP3   OH251730   4.888   6.610   4.872  0.0971  0.1143 -0.4695
10080TIP3    H151731   4.927   6.560   4.943  1.9312  1.1494 -0.6745
10080TIP3    H251732   4.794   6.591   4.878  0.4467 -1.4340  0.9063
10081TIP3   OH251733   5.512   5.435  13.763 -0.0590 -0.1282  0.4064
10081TIP3    H151734   5.462   5.514  13.785 -1.5129 -0.9895  0.3009
10081TIP3    H251735   5.479   5.409  13.678  1.4165 -0.0924 -0.2125
10082TIP3   OH251736   5.111   3.962  11.018  0.5577  0.4762 -0.3841
10082TIP3    H151737   5.025   3.981  10.981  0.7364  0.4918 -0.7977
10082TIP3    H251738   5.170   4.025  10.976  1.2354 -1.2238 -2.1324
10083TIP3   OH251739   4.096   6.300  16.796 -0.3911 -0.5467  0.6577
10083TIP3    H151740   4.106   6.251  16.877  0.5093 -0.9016  0.3454
10083TIP3    H251741   4.066   6.235  16.732 -4.1662  0.2816  1.3299
10084TIP3   OH251742   6.444   6.012   1.052 -0.7283  0.2884 -0.2935
10084TIP3    H151743   6.501   5.982   0.981 -2.0120 -0.3277 -1.1106
10084TIP3    H251744   6.438   5.936   1.111 -0.4277  0.4736 -0.0225
10085TIP3   OH251745   5.530   2.089   3.743  0.3931  0.2971  0.2111
10085TIP3    H151746   5.600   2.097   3.808 -0.2035  1.4332  0.7439
10085TIP3    H251747   5.473   2.019   3.778  1.0481 -0.3659 -0.0344
10086TIP3   OH251748   3.468   0.766  11.884 -0.6043 -0.4510  0.2612
10086TIP3    H151749   3.414   0.786  11.807  2.0208  1.2035 -1.3185
10086TIP3    H251750   3.526   0.696  11.855 -0.3354 -0.5814  1.0972
10087TIP3   OH251751   4.102   4.979   0.482  0.1210 -0.6204 -0.0813
10087TIP3    H151752   4.171   4.925   0.443  0.2006 -0.5159 -0.0864
10087TIP3    H251753   4.074   4.931   0.560 -2.2502 -2.4588 -1.9042
10088TIP3   OH251754   0.384   3.177   0.453  0.1294  0.1434 -0.2089
10088TIP3    H151755   0.464   3.213   0.414  0.1132 -1.1782 -1.5116
10088TIP3    H251756   0.313   3.227   0.413  0.2095  0.1963 -0.2844
10089TIP3   OH251757   2.552   2.436  12.681  0.0050  0.2572  0.5393
10089TIP3    H151758   2.496   2.484  12.742  1.1051  1.4115  0.6896
10089TIP3    H251759   2.518   2.347  12.683 -1.8657  0.9235  0.5365
10090TIP3   OH251760   6.712   6.795  13.664  0.3804  0.3995  0.2064
10090TIP3    H151761   6.706   6.890  13.656 -1.0529  0.1681 -3.3575
10090TIP3    H251762   6.628   6.769  13.702  0.7378  0.5172  1.0992
10091TIP3   OH251763   1.018   1.333  13.879  0.0075 -0.0118 -0.0633
10091TIP3    H151764   1.018   1.418  13.924 -0.1650 -0.2789  0.4473
10091TIP3    H251765   1.099   1.291  13.908 -0.7404 -0.7373  1.0808
10092TIP3   OH251766   3.174   3.687  13.665 -0.4650 -0.0713  0.4102
10092TIP3    H151767   3.171   3.717  13.574  0.5658  0.9025  0.6709
10092TIP3    H251768   3.137   3.759  13.715 -0.9192 -0.5548  0.7762
10093TIP3   OH251769   6.265   0.179   5.259  0.4582 -0.2557  0.3036
10093TIP3    H151770   6.360   0.164   5.260  0.6708  1.0019  0.4601
10093TIP3    H251771   6.245   0.206   5.349 -0.0996 -0.8027  0.3443
10094TIP3   OH251772   5.484   5.411   6.793 -0.8202  0.0698 -0.4221
10094TIP3    H151773   5.496   5.326   6.836  0.2006 -0.2194 -1.2486
10094TIP3    H251774   5.417   5.454   6.846  1.0826  0.1735  2.1318
10095TIP3   OH251775   1.452   0.849  15.498  0.1946 -0.0637  0.2207
10095TIP3    H151776   1.538   0.891  15.500 -0.3149  0.9969  0.4445
10095TIP3    H251777   1.390   0.921  15.488 -0.5285 -0.9719 -3.2171
10096TIP3   OH251778   6.431   3.554   3.931 -0.0589 -0.1921  0.0541
10096TIP3    H151779   6.439   3.531   3.839  1.6971  1.0717 -0.1592
10096TIP3    H251780   6.457   3.474   3.978  1.3084 -0.1622 -0.5989
10097TIP3   OH251781   3.051   3.891   2.666 -0.1685  0.0175 -0.4642
10097TIP3    H151782   3.020   3.810   2.706 -0.8861  0.6789  0.3615
10097TIP3    H251783   3.083   3.944   2.739  2.5324 -0.4295 -1.2185
10098TIP3   OH251784   4.750   2.318   0.807 -0.4671  0.9622 -0.0921
10098TIP3    H151785   4.700   2.238   0.794  0.3787  0.6293 -1.4984
10098TIP3    H251786   4.828   2.290   0.855 -1.5486  1.4847  2.1207
10099TIP3   OH251787   1.264   5.622  13.782  0.0754 -1.4633  0.6198
10099TIP3    H151788   1.210   5.632  13.860  2.3592  0.9060  2.0303
10099TIP3    H251789   1.208   5.574  13.720 -3.4584  0.4093  2.0939
10100TIP3   OH251790   6.234   4.240  14.809  0.0190 -0.0006 -0.6206
10100TIP3    H151791   6.188   4.285  14.739 -0.5761  1.3407  0.5772
10100TIP3    H251792   6.168   4.184  14.851 -0.4169  1.4125  0.6709
10101TIP3   OH251793   2.957   4.235   5.280  0.5995 -0.2470 -0.2448
10101TIP3    H151794   2.907   4.251   5.360  0.8628  2.4195 -0.4986
10101TIP3    H251795   2.891   4.223   5.212  0.3734 -1.6354  0.2019
10102TIP3   OH251796   3.060   1.687   2.446  0.1928  0.1307  0.0189
10102TIP3    H151797   3.068   1.603   2.490 -0.4517 -0.2526 -0.5783
10102TIP3    H251798   2.982   1.727   2.483 -0.2078 -0.0829 -0.5713
10103TIP3   OH251799   4.102   4.129   4.775  0.1541  0.3737 -0.1299
10103TIP3    H151800   4.195   4.139   4.793  0.2601 -1.6342  0.6001
10103TIP3    H251801   4.098   4.090   4.687 -0.1208  2.4204 -1.0983
10104TIP3   OH251802   0.360   5.539  14.070  0.0643 -0.0607  0.0932
10104TIP3    H151803   0.398   5.472  14.014 -0.5659 -0.8183  0.5476
10104TIP3    H251804   0.301   5.491  14.129 -1.3954  1.0235 -0.4133
10105TIP3   OH251805   4.414   0.325  15.932  0.6403  0.5757 -0.7694
10105TIP3    H151806   4.443   0.416  15.936  0.3545  0.6293  1.5329
10105TIP3    H251807   4.483   0.276  15.976  0.3263 -0.2036 -1.1218
10106TIP3   OH251808   5.943   1.626   0.366  0.3327 -0.2549 -1.0335
10106TIP3    H151809   5.931   1.698   0.304  0.4301  0.9889  0.3418
10106TIP3    H251810   5.860   1.621   0.413  0.9412  0.2304  0.1454
10107TIP3   OH251811   5.634   2.969  16.614 -0.7029  0.1659  0.2383
10107TIP3    H151812   5.663   2.878  16.617  0.7837  0.6088  0.1076
10107TIP3    H251813   5.557   2.967  16.556 -0.5163 -0.9555 -0.0072
10108TIP3   OH251814   4.874   3.265  12.155  0.3168  0.5813  0.1496
10108TIP3    H151815   4.889   3.232  12.067 -0.2650 -1.8694  0.8908
10108TIP3    H251816   4.783   3.242  12.174  0.5762  0.6142  1.5627
10109TIP3   OH251817   5.374   5.028   5.996  0.4276 -0.0254  0.5376
10109TIP3    H151818   5.401   5.082   5.921  1.2512  0.7613  1.3636
10109TIP3    H251819   5.279   5.037   5.999  0.4770  0.7166  0.1616
10110TIP3   OH251820   5.228   3.241   0.726 -0.4358 -0.0282  0.7667
10110TIP3    H151821   5.260   3.172   0.668  1.4789  0.9632  0.5453
10110TIP3    H251822   5.190   3.195   0.801  1.8195 -1.3527  1.1837
10111TIP3   OH251823   3.559   3.663  11.079 -0.3085  0.8218 -0.0214
10111TIP3    H151824   3.557   3.580  11.031 -0.4294  0.4428  0.6253
10111TIP3    H251825   3.510   3.724  11.023 -1.0916  0.1934 -0.0466
10112TIP3   OH251826   1.278   5.057  11.926 -0.1697 -0.1747  0.1518
10112TIP3    H151827   1.267   5.144  11.964  0.4098 -0.7480  1.7058
10112TIP3    H251828   1.228   5.000  11.983 -0.6557 -0.8673 -0.9331
10113TIP3   OH251829   6.093   1.242   5.997 -0.3923  0.1708 -0.6128
10113TIP3    H151830   6.017   1.184   6.001 -1.4626  1.5455 -0.0395
10113TIP3    H251831   6.164   1.192   6.039 -0.9269 -1.1640 -1.2363
10114TIP3   OH251832   0.136   1.155  17.298  0.4914 -0.2096 -0.1858
10114TIP3    H151833   0.209   1.182  17.353  0.8588 -0.6832 -0.4358
10114TIP3    H251834   0.142   1.211  17.221  0.0822  0.3321  0.1711
10115TIP3   OH251835   3.633   3.811  11.339  0.0011  0.1638  0.1066
10115TIP3    H151836   3.576   3.887  11.329  0.5578  0.3285 -2.6972
10115TIP3    H251837   3.605   3.750  11.270  1.1197 -1.1276  0.7403
10116TIP3   OH251838   6.177   4.811  11.340  0.8292 -0.0028 -0.0064
10116TIP3    H151839   6.176   4.774  11.428 -0.1008 -0.6005 -0.2586
10116TIP3    H251840   6.086   4.809  11.311  1.1420  0.0230 -1.0519
10117TIP3   OH251841   5.250   3.513  13.867 -0.1273 -0.2145  0.0904
10117TIP3    H151842   5.182   3.578  13.887 -0.5789 -1.3558  2.6871
10117TIP3    H251843   5.203   3.440  13.828 -0.0937 -0.2028  0.0284
10118TIP3   OH251844   1.540   3.860  10.980 -0.4107 -0.5618  0.3794
10118TIP3    H151845   1.491   3.906  10.912  1.7130  1.2723 -0.0367
10118TIP3    H251846   1.593   3.796  10.933 -0.3149 -0.5719  0.4993
10119TIP3   OH251847   4.553   5.739   3.072 -0.0060 -0.2591  0.3361
10119TIP3    H151848   4.642   5.749   3.105  0.6959 -0.1610 -1.4416
10119TIP3    H251849   4.513   5.674   3.130  1.5297 -0.9818  0.6471
10120TIP3   OH251850   3.447   2.724  11.952 -0.7057  0.1400 -0.5903
10120TIP3    H151851   3.463   2.802  12.005  1.2590  0.3281 -1.3780
10120TIP3    H251852   3.356   2.701  11.970 -0.0723 -0.1005  3.2655
10121TIP3   OH251853   3.315   3.003  11.173  0.0935 -0.2709 -0.4314
10121TIP3    H151854   3.353   2.920  11.145 -0.3551 -0.8091  0.5153
10121TIP3    H251855   3.320   3.002  11.268  0.9557  1.2225 -0.4223
10122TIP3   OH251856   5.153   5.138  11.633 -0.3708 -0.5617  0.0946
10122TIP3    H151857   5.137   5.150  11.540 -1.7919  0.3025  0.4187
10122TIP3    H251858   5.197   5.219  11.660 -0.2693 -0.6639  0.2337
10123TIP3   OH251859   6.485   3.531   3.655  0.2110 -0.0561  0.3428
10123TIP3    H151860   6.493   3.587   3.578  0.0925 -1.0290 -0.3932
10123TIP3    H251861   6.486   3.442   3.620  0.1686 -0.5120  1.4707
10124TIP3   OH251862   4.040   3.429  11.581 -1.3245 -0.1037  0.5055
10124TIP3    H151863   3.984   3.468  11.649 -0.2225  0.0085  1.3855
10124TIP3    H251864   4.029   3.485  11.505 -1.9026  0.2896  0.8732
10125TIP3   OH251865   0.736   3.668   5.079  0.6439  0.1943  0.3958
10125TIP3    H151866   0.809   3.728   5.065  2.3610 -1.7705  0.4434
10125TIP3    H251867   0.690   3.702   5.156  0.9265  1.9782 -0.1969
10126TIP3   OH251868   0.519   3.683  13.500 -0.3495  0.8390 -0.4145
10126TIP3    H151869   0.599   3.716  13.541 -1.4662  1.7695  1.1068
10126TIP3    H251870   0.540   3.593  13.476  1.5224  1.4083 -1.1284
10127TIP3   OH251871   4.201   3.940  12.779  0.3252 -0.1526  0.5171
10127TIP3    H151872   4.203   3.909  12.869  0.0207 -1.0106  0.2378
10127TIP3    H251873   4.293   3.950  12.754  0.4269 -0.8625  0.6018
10128TIP3   OH251874   1.826   1.268   6.042  0.1229  0.5878 -0.3714
10128TIP3    H151875   1.794   1.346   5.997 -1.1060 -1.2879 -2.9989
10128TIP3    H251876   1.750   1.237   6.092  0.9364  1.6084  1.6044
10129TIP3   OH251877   5.286   6.545   0.248 -0.1508 -0.6127 -0.2410
10129TIP3    H151878   5.354   6.481   0.267  0.7501  0.0662 -1.0890
10129TIP3    H251879   5.272   6.538   0.153  0.3569  0.8009 -0.4527
10130TIP3   OH251880   5.315   5.684   1.006 -0.3352 -0.0755 -0.4994
10130TIP3    H151881   5.280   5.756   0.953 -1.2085  0.5799  0.8984
10130TIP3    H251882   5.358   5.727   1.079 -0.7292 -0.9577  0.2732
10131TIP3   OH251883   0.342   1.427  16.537 -0.1979  0.4735 -0.1104
10131TIP3    H151884   0.335   1.363  16.608 -0.7855  0.1376 -0.4525
10131TIP3    H251885   0.323   1.511  16.579  0.1504  0.3698  0.2616
10132TIP3   OH251886   5.874   0.006   0.810 -0.2863 -0.0950  0.3081
10132TIP3    H151887   5.786   0.044   0.806  0.2033  1.1485  0.6977
10132TIP3    H251888   5.875  -0.060   0.740 -1.5032 -0.0849  0.2637
10133TIP3   OH251889   3.748   4.635   4.118  0.6475 -0.0627 -0.2000
10133TIP3    H151890   3.782   4.553   4.080 -0.0126 -1.3089  1.7627
10133TIP3    H251891   3.660   4.642   4.082  1.1904  0.5948 -1.4866
10134TIP3   OH251892   6.001   0.925  14.226  0.2350 -0.4615  0.5184
10134TIP3    H151893   6.079   0.871  14.236  0.4253 -0.2783  0.0662
10134TIP3    H251894   6.032   1.004  14.182 -0.2902 -0.6293 -0.1768
10135TIP3   OH251895   0.031   3.800  13.146  0.4839  0.0166  0.1642
10135TIP3    H151896  -0.054   3.839  13.165 -0.8178 -0.7973 -3.3083
10135TIP3    H251897   0.079   3.868  13.099  0.5653 -0.5244 -0.5464
10136TIP3   OH251898   6.267   6.376  14.461 -0.0614  0.3817 -0.6353
10136TIP3    H151899   6.323   6.350  14.534 -2.1721 -0.9412  0.6197
10136TIP3    H251900   6.290   6.467  14.444  3.0238 -0.3406 -0.7821
10137TIP3   OH251901   0.684   3.467  12.440  0.4954 -0.0866  0.5660
10137TIP3    H151902   0.649   3.380  12.460 -1.3003  0.6019  0.5759
10137TIP3    H251903   0.621   3.528  12.478  1.2043  1.2265 -0.2903
10138TIP3   OH251904   3.125   3.486   2.551  0.6866  0.0750  0.3043
10138TIP3    H151905   3.207   3.536   2.544  1.0895 -0.7883 -2.0611
10138TIP3    H251906   3.058   3.543   2.515  0.5544  0.0989  0.5802
10139TIP3   OH251907   2.288   2.607  11.798 -0.3023  0.1609 -0.0673
10139TIP3    H151908   2.300   2.622  11.892 -0.1617 -0.3007 -0.0084
10139TIP3    H251909   2.348   2.535  11.778  1.0378  1.4645 -0.8902
10140TIP3   OH251910   1.174   5.961   0.809 -0.0114 -0.0351 -0.0534
10140TIP3    H151911   1.223   5.880   0.803 -2.0904 -1.3006 -0.9396
10140TIP3    H251912   1.230   6.019   0.860  0.9508 -2.4612  1.8250
10141TIP3   OH251913   3.923   6.462  13.699 -0.3145 -0.0876  0.5570
10141TIP3    H151914   3.833   6.432  13.706  0.1081 -2.2973 -1.9072
10141TIP3    H251915   3.916   6.555  13.675 -1.9638 -0.3649 -0.1649
10142TIP3   OH251916   3.929   1.858  14.675  0.0056 -0.1231  0.4168
10142TIP3    H151917   3.921   1.894  14.764 -0.0438 -1.1106  0.8274
10142TIP3    H251918   4.018   1.882  14.648 -0.0708  0.4190  0.6197
10143TIP3   OH251919   4.922   0.624   4.259 -0.6542  0.0351  0.6333
10143TIP3    H151920   4.926   0.629   4.355  0.5725 -0.5042  0.6228
10143TIP3    H251921   5.010   0.646   4.230 -0.7015 -0.9420 -0.3063
10144TIP3   OH251922   3.431   4.130  15.973 -0.7248 -0.0759 -0.2135
10144TIP3    H151923   3.504   4.101  15.918  1.3904  1.6535  1.4910
10144TIP3    H251924   3.459   4.215  16.007 -2.8162 -0.1433  1.9256
10145TIP3   OH251925   2.092   3.750   5.006  0.4654  0.5882 -0.1360
10145TIP3    H151926   2.134   3.793   4.931 -1.1079  0.9327 -0.8696
10145TIP3    H251927   2.026   3.693   4.966  1.0994 -0.9248  0.9158
10146TIP3   OH251928   3.388   5.854  13.603 -0.7870  0.4385  0.1325
10146TIP3    H151929   3.442   5.776  13.621 -0.5684  0.7487  0.9085
10146TIP3    H251930   3.316   5.848  13.666 -2.2350 -0.4748 -1.5394
10147TIP3   OH251931   1.965   3.970   4.044  0.2524  0.1568 -0.1152
10147TIP3    H151932   1.966   3.874   4.044 -0.4396  0.1326  0.8285
10147TIP3    H251933   1.900   3.994   3.979  0.1199 -0.0292 -0.0530
10148TIP3   OH251934   0.682   1.763   4.959  0.3802 -0.3217  0.1007
10148TIP3    H151935   0.748   1.753   5.027  0.0876 -0.3722  0.3783
10148TIP3    H251936   0.608   1.709   4.988 -0.0876  0.3528  0.1900
10149TIP3   OH251937   6.727   3.022  15.368  0.4522  0.4642  0.0253
10149TIP3    H151938   6.705   3.061  15.283  2.0060  1.1570 -0.0890
10149TIP3    H251939   6.822   3.029  15.374  0.5778 -1.3944  0.9626
10150TIP3   OH251940   1.992   6.209  15.092 -1.0090  0.5214  0.0914
10150TIP3    H151941   2.002   6.280  15.028 -0.3124 -0.8564 -1.3949
10150TIP3    H251942   2.081   6.186  15.117 -1.1988 -0.1543  0.1764
10151TIP3   OH251943   6.331   2.624  16.178 -0.0675  0.2815  0.3899
10151TIP3    H151944   6.340   2.659  16.090  1.3189 -1.2576 -0.1307
10151TIP3    H251945   6.245   2.584  16.180 -1.5351  3.1666  0.8786
10152TIP3   OH251946   5.663   3.548   4.871  0.8130  0.3580  0.1092
10152TIP3    H151947   5.588   3.514   4.822  0.6744  1.7321 -0.6861
10152TIP3    H251948   5.635   3.635   4.902  0.9147 -0.4172  2.6274
10153TIP3   OH251949   2.883   5.692  14.425  0.0852  0.6567 -0.6140
10153TIP3    H151950   2.912   5.632  14.356 -0.6412 -1.6727  1.0045
10153TIP3    H251951   2.938   5.671  14.500 -2.4615 -0.5312  1.0634
10154TIP3   OH251952   3.976   2.086  16.508 -0.3007 -0.6310  0.3052
10154TIP3    H151953   3.983   2.095  16.413 -2.3485  1.6681  0.2692
10154TIP3    H251954   3.894   2.038  16.522 -2.2059  2.5238  0.8385
10155TIP3   OH251955   5.766   4.334  11.366  0.1830 -0.3520 -0.0212
10155TIP3    H151956   5.829   4.266  11.387 -0.1451 -0.7562 -0.3265
10155TIP3    H251957   5.803   4.414  11.403  0.7984 -0.6124 -0.0709
10156TIP3   OH251958   1.978   1.314   5.430  0.3670 -0.0906 -0.2661
10156TIP3    H151959   2.010   1.226   5.449  1.3160 -0.0200 -1.4224
10156TIP3    H251960   2.051   1.371   5.454 -0.4274  0.4412  0.9586
10157TIP3   OH251961   4.296   0.346   6.463 -0.6130  0.1508  0.0328
10157TIP3    H151962   4.372   0.292   6.441 -1.2469  0.0232 -2.1530
10157TIP3    H251963   4.295   0.349   6.558  1.3545 -0.9377  0.1437
10158TIP3   OH251964   5.227   0.082  16.189  0.6533  0.2958 -0.0447
10158TIP3    H151965   5.180   0.005  16.219  0.1678  0.3354 -0.6927
10158TIP3    H251966   5.295   0.096  16.255  0.4871 -0.4415  0.2870
10159TIP3   OH251967   4.043   6.550  13.239 -0.1287 -0.1503  0.0022
10159TIP3    H151968   3.975   6.536  13.173 -0.2373  0.1845  0.0398
10159TIP3    H251969   4.002   6.528  13.322  0.0072 -0.5694 -0.0374
10160TIP3   OH251970   2.355   1.885  11.927 -0.4936  0.1272 -0.1093
10160TIP3    H151971   2.389   1.860  12.013 -2.6476  0.1250  0.8066
10160TIP3    H251972   2.428   1.869  11.867  0.9482 -0.2468  1.6390
10161TIP3   OH251973   1.110   1.636   3.746 -0.2219 -0.5567 -0.4349
10161TIP3    H151974   1.082   1.567   3.807  1.1304 -0.3957  0.4029
10161TIP3    H251975   1.116   1.592   3.661 -0.1440 -1.2842 -0.0602
10162TIP3   OH251976   2.937   6.803   4.825 -0.7578  0.3384 -0.4496
10162TIP3    H151977   2.890   6.797   4.909 -1.2781 -0.4147 -0.7826
10162TIP3    H251978   2.879   6.761   4.762 -0.4964  1.1432 -1.2572
10163TIP3   OH251979   4.886   4.649  16.196  0.0712  0.1547  0.3634
10163TIP3    H151980   4.955   4.678  16.136  1.4209  0.0116  1.7933
10163TIP3    H251981   4.932   4.602  16.265 -1.4216  0.3749  1.5629
10164TIP3   OH251982   4.031   3.438  12.691  0.2382 -0.0042 -0.0272
10164TIP3    H151983   4.024   3.386  12.611  0.6314  0.7737 -0.5737
10164TIP3    H251984   3.986   3.385  12.757  0.4854 -0.9673 -0.5997
10165TIP3   OH251985   5.960   1.150  16.391  0.5636 -0.1292  0.2133
10165TIP3    H151986   5.917   1.149  16.477 -1.7630 -0.9246 -0.8616
10165TIP3    H251987   5.961   1.242  16.366  0.6761  0.0405  0.8392
10166TIP3   OH251988   0.640   3.131   5.124  0.1955  0.2830 -1.2984
10166TIP3    H151989   0.562   3.149   5.176  0.2027 -0.6489 -0.9470
10166TIP3    H251990   0.710   3.181   5.166  0.0987 -0.0757 -0.6971
10167TIP3   OH251991   4.128   1.316  13.587 -0.1852 -0.2227 -0.4433
10167TIP3    H151992   4.131   1.228  13.624 -1.4504 -0.6752 -1.3378
10167TIP3    H251993   4.047   1.354  13.622  0.0793  0.3949 -0.4893
10168TIP3   OH251994   6.737   3.831   6.658 -0.1403 -0.1035  0.2416
10168TIP3    H151995   6.822   3.801   6.627 -0.2429 -1.3018  1.0636
10168TIP3    H251996   6.757   3.901   6.719  0.2107  0.1930 -0.2094
10169TIP3   OH251997   1.101   0.677  11.513 -0.2502  0.6184 -0.1323
10169TIP3    H151998   1.082   0.745  11.449 -2.9023 -0.0623 -0.1864
10169TIP3    H251999   1.105   0.596  11.462 -1.0068  0.2463  0.3784
10170TIP3   OH252000   6.479   4.602  13.556  0.0667 -0.3271  0.2126
10170TIP3    H152001   6.539   4.533  13.583 -0.3984 -0.8303 -0.0280
10170TIP3    H252002   6.429   4.623  13.635 -0.7290 -1.2270 -0.0354
10171TIP3   OH252003   0.406   2.194   0.782  0.0797  0.1111  0.3430
10171TIP3    H152004   0.392   2.100   0.794  1.1338 -0.5011 -2.4068
10171TIP3    H252005   0.427   2.203   0.689 -1.3357  3.2669  0.1976
10172TIP3   OH252006   6.143   3.597   3.401 -0.1180  0.0035 -0.1162
10172TIP3    H152007   6.198   3.534   3.354  0.2603  0.4300 -0.2546
10172TIP3    H252008   6.095   3.643   3.332 -0.0238  0.2022 -0.0517
10173TIP3   OH252009   4.957   6.637  13.605  0.0080  0.4839 -0.3157
10173TIP3    H152010   4.899   6.587  13.663 -0.1121  0.0352 -0.8156
10173TIP3    H252011   4.931   6.728  13.617 -0.8970  0.2762 -0.6402
10174TIP3   OH252012   3.717   5.335  12.444 -0.0414 -0.3936  0.1704
10174TIP3    H152013   3.704   5.300  12.532  0.6124 -2.0938 -0.3732
10174TIP3    H252014   3.630   5.359  12.414 -0.1399  1.5462  1.7683
10175TIP3   OH252015   2.570   5.295  13.640  0.3795 -0.1422  0.2076
10175TIP3    H152016   2.480   5.324  13.654  0.4086 -0.3945  0.9334
10175TIP3    H252017   2.616   5.373  13.610  0.5892  0.7613  2.6576
10176TIP3   OH252018   0.941   0.873   6.172  0.8216 -0.9898  0.0636
10176TIP3    H152019   0.864   0.834   6.214  0.0637 -2.6027 -2.6061
10176TIP3    H252020   1.015   0.837   6.221 -0.0340 -1.8553  0.7782
10177TIP3   OH252021   2.104   3.092   2.834  0.5579  0.4863 -0.5219
10177TIP3    H152022   2.022   3.114   2.789  0.0755 -1.8141 -0.8688
10177TIP3    H252023   2.162   3.165   2.814 -0.0337  0.1809 -3.8677
10178TIP3   OH252024   2.308   1.305  13.467  0.6688 -0.0367  0.4386
10178TIP3    H152025   2.269   1.391  13.480 -0.5570 -0.5778  0.4675
10178TIP3    H252026   2.288   1.283  13.375  0.5307 -0.4937  0.5732
10179TIP3   OH252027   2.207   4.811  14.725 -0.1629  0.3312  0.5837
10179TIP3    H152028   2.174   4.730  14.764  2.1094 -1.1556 -0.3853
10179TIP3    H252029   2.277   4.839  14.784  1.0421 -0.0846 -0.6056
10180TIP3   OH252030   1.497   2.332   1.805  0.0950  0.0298  0.2478
10180TIP3    H152031   1.405   2.323   1.782 -0.1245  1.4652  0.4805
10180TIP3    H252032   1.537   2.379   1.732  0.8305 -1.2876 -0.2226
10181TIP3   OH252033   0.609   6.599   2.348  0.1482  0.3183 -0.4846
10181TIP3    H152034   0.644   6.661   2.285 -1.1336  2.9209  1.1747
10181TIP3    H252035   0.572   6.654   2.418 -0.6333 -2.3403  1.3634
10182TIP3   OH252036   2.709   4.124   0.769  0.3136  0.1743  0.4700
10182TIP3    H152037   2.639   4.075   0.725  1.7462 -1.9026  0.3335
10182TIP3    H252038   2.733   4.192   0.707 -0.1445 -0.4342 -0.4086
10183TIP3   OH252039   4.118   0.292   0.167 -0.0598  0.3863  0.0440
10183TIP3    H152040   4.100   0.324   0.079  2.8625 -0.1803 -0.8870
10183TIP3    H252041   4.132   0.372   0.219 -2.3841  0.7385  0.2175
10184TIP3   OH252042   2.134   0.268   3.301 -0.2359  0.0086 -0.2720
10184TIP3    H152043   2.076   0.343   3.320  1.1567  0.4832  2.8071
10184TIP3    H252044   2.196   0.302   3.236 -0.7266  0.9541 -0.2703
10185TIP3   OH252045   0.808   0.337  11.862 -0.3652  0.1762  0.7314
10185TIP3    H152046   0.879   0.384  11.817 -0.2392 -0.7406 -0.0350
10185TIP3    H252047   0.802   0.381  11.947  0.3912  0.9683  0.3980
10186TIP3   OH252048   2.465   6.196  15.226 -0.1335  0.0211  0.2347
10186TIP3    H152049   2.432   6.280  15.194  0.4085  0.3290  0.4509
10186TIP3    H252050   2.560   6.210  15.234 -0.2120 -0.0929  1.7691
10187TIP3   OH252051   3.597   5.908   4.611 -0.0157 -0.0051  0.1960
10187TIP3    H152052   3.530   5.896   4.544 -0.7259  0.9238  0.7105
10187TIP3    H252053   3.631   5.820   4.627 -0.5951 -0.3860 -0.5998
10188TIP3   OH252054   1.443   6.047   1.959  0.4543 -0.0417 -0.7298
10188TIP3    H152055   1.357   6.009   1.980  0.5516  0.9725  1.9853
10188TIP3    H252056   1.431   6.141   1.972  1.8242  0.1648 -0.8596
10189TIP3   OH252057   3.882   2.892   1.665  0.5413  0.2851  0.2054
10189TIP3    H152058   3.814   2.959   1.668 -0.7199 -0.9670  2.3184
10189TIP3    H252059   3.837   2.814   1.632  1.2589 -0.2592  0.4999
10190TIP3   OH252060   0.791   2.704  12.742 -0.2368  0.5949  0.2064
10190TIP3    H152061   0.719   2.700  12.805 -0.7297  1.5633 -0.2759
10190TIP3    H252062   0.858   2.757  12.784  0.4046 -0.6723  0.8374
10191TIP3   OH252063   4.142   3.751   5.342 -0.3719  0.1601  0.2750
10191TIP3    H152064   4.193   3.709   5.410  0.3102  0.1694 -0.2227
10191TIP3    H252065   4.120   3.837   5.378 -1.6298 -0.5283  1.2237
10192TIP3   OH252066   6.318   3.292   1.549 -0.0668  0.4103 -0.3282
10192TIP3    H152067   6.329   3.355   1.621  1.8857  2.1199 -2.0042
10192TIP3    H252068   6.389   3.229   1.562  0.6300  1.0402 -1.0554
10193TIP3   OH252069   4.379   4.212  12.704 -0.3073  0.1883  0.7135
10193TIP3    H152070   4.409   4.199  12.794 -1.8679 -1.8551  1.0067
10193TIP3    H252071   4.442   4.164  12.650 -0.8852 -0.9065  0.9889
10194TIP3   OH252072   5.977   0.889  11.522 -0.1394  0.2278 -0.0462
10194TIP3    H152073   5.985   0.800  11.487 -1.7607 -0.1228  0.4125
10194TIP3    H252074   6.064   0.927  11.509 -0.0189 -0.6451 -2.3676
10195TIP3   OH252075   4.354   1.350  11.568 -0.6438  0.0677 -0.0129
10195TIP3    H152076   4.290   1.407  11.526 -0.0135  0.4190 -0.4973
10195TIP3    H252077   4.363   1.275  11.508  1.7134  1.4711 -1.5630
10196TIP3   OH252078   3.312   0.933   2.647 -0.5381 -0.8681 -0.4802
10196TIP3    H152079   3.298   1.007   2.706  0.4326 -2.6153  2.1165
10196TIP3    H252080   3.228   0.921   2.603 -1.4602  0.2580  0.8858
10197TIP3   OH252081   4.684   5.817  16.623  0.1633  0.5514  0.7117
10197TIP3    H152082   4.714   5.789  16.536 -0.2682  0.2781  0.6473
10197TIP3    H252083   4.596   5.851  16.608 -0.1528 -0.0643  1.1329
10198TIP3   OH252084   2.772   6.543   0.048  0.0087 -0.5366 -0.1362
10198TIP3    H152085   2.826   6.595   0.107 -1.0118  0.4576 -0.0437
10198TIP3    H252086   2.779   6.454   0.082  0.6522 -0.2306  0.5656
10199TIP3   OH252087   3.962   4.885   2.187  0.6717 -0.1341  0.7454
10199TIP3    H152088   4.020   4.850   2.255 -0.4789  0.4655  2.0758
10199TIP3    H252089   3.947   4.976   2.212  0.8730  0.3504 -0.7900
10200TIP3   OH252090   5.845   0.818  14.947 -0.5453  0.2381  0.9184
10200TIP3    H152091   5.841   0.860  15.033 -0.9724  0.0981  0.9660
10200TIP3    H252092   5.754   0.812  14.918 -0.2853  2.0991 -0.4280
10201TIP3   OH252093   3.247   2.975  15.555  0.4496 -0.4656 -0.2077
10201TIP3    H152094   3.253   2.890  15.510 -0.7751 -0.0128 -1.3122
10201TIP3    H252095   3.185   2.959  15.626  0.0206 -0.4547 -0.5704
10202TIP3   OH252096   3.913   4.654  12.711  0.3229 -0.2676 -0.6091
10202TIP3    H152097   3.871   4.571  12.735 -2.5445  1.6347  1.5307
10202TIP3    H252098   3.847   4.701  12.661  1.5977  1.1059 -1.0742
10203TIP3   OH252099   6.024   3.516  15.567  0.3383 -0.0657  0.3528
10203TIP3    H152100   6.036   3.560  15.482  1.2495  1.6248  1.2957
10203TIP3    H252101   6.084   3.442  15.565  0.5702  0.1348 -0.3650
10204TIP3   OH252102   0.496   1.984  16.217  0.0369  0.5620  0.0861
10204TIP3    H152103   0.504   1.993  16.122 -0.1054  3.2810  0.2454
10204TIP3    H252104   0.523   1.894  16.235 -0.2436 -0.1335 -2.5409
10205TIP3   OH252105   3.001   5.571   4.400 -0.5296 -0.5436  0.3847
10205TIP3    H152106   2.909   5.577   4.374 -0.3716  0.3432  0.0053
10205TIP3    H252107   3.046   5.538   4.323 -0.1917  1.2796 -0.2619
10206TIP3   OH252108   5.816   5.733  16.999  0.0424  0.4764  0.2664
10206TIP3    H152109   5.827   5.828  17.009  0.9611  0.3324  0.7861
10206TIP3    H252110   5.820   5.699  17.088 -0.8904 -0.0040  0.1358
10207TIP3   OH252111   1.082   0.554   5.742 -0.5752 -0.7825 -0.5005
10207TIP3    H152112   1.065   0.498   5.818  0.3374 -0.8882 -0.3642
10207TIP3    H252113   1.013   0.620   5.745 -0.7884 -1.0271  0.1921
10208TIP3   OH252114   5.081   4.147  13.409 -0.4855 -0.0058  0.2380
10208TIP3    H152115   5.032   4.067  13.429 -1.3410  0.1762 -1.0440
10208TIP3    H252116   5.044   4.213  13.469 -0.2693 -0.3868  0.8010
10209TIP3   OH252117   4.917   0.980   4.273  0.1971 -0.3467  0.3723
10209TIP3    H152118   4.824   0.973   4.250  0.5712 -0.0478 -1.3485
10209TIP3    H252119   4.933   0.904   4.329 -0.5240 -1.8291 -1.3237
10210TIP3   OH252120   3.395   1.217   5.949  0.1142 -0.0066  0.1220
10210TIP3    H152121   3.468   1.266   5.912 -0.8199  0.9805 -0.4485
10210TIP3    H252122   3.436   1.143   5.994  1.4845  0.8081  0.2438
10211TIP3   OH252123   3.538   3.101  16.545  0.2361  0.1854  0.3834
10211TIP3    H152124   3.523   3.194  16.529  0.1047  0.1341  0.2116
10211TIP3    H252125   3.597   3.074  16.475  1.8231  0.5735  1.5124
10212TIP3   OH252126   0.735   6.492   4.274 -0.1015  0.0283  0.2792
10212TIP3    H152127   0.757   6.449   4.191 -1.0610 -0.5394  0.3052
10212TIP3    H252128   0.820   6.505   4.317  0.4680  0.8464 -1.0245
10213TIP3   OH252129   6.731   4.464  17.197  1.1011  0.1218  0.1524
10213TIP3    H152130   6.737   4.524  17.271  1.6665 -1.5551  1.5634
10213TIP3    H252131   6.672   4.506  17.135 -0.5516  0.9622  2.1973
10214TIP3   OH252132   1.510   0.007   6.194 -0.1813 -0.1971  0.2319
10214TIP3    H152133   1.510  -0.082   6.161 -0.8536  0.5882 -2.0993
10214TIP3    H252134   1.595   0.043   6.168  0.9065 -0.6291  2.8311
10215TIP3   OH252135   2.666   5.524  16.666  0.3509  0.2166 -0.1644
10215TIP3    H152136   2.601   5.593  16.678  2.3184  1.9667  1.1502
10215TIP3    H252137   2.615   5.446  16.645 -1.9463  2.1423 -2.2831
10216TIP3   OH252138   3.381   2.880  16.859 -0.3320  0.4013 -0.8293
10216TIP3    H152139   3.310   2.859  16.920  0.5880  1.7907  0.8261
10216TIP3    H252140   3.413   2.795  16.829  0.8015 -0.5559  2.6192
10217TIP3   OH252141   5.501   1.072  16.872 -0.1552 -0.4123  0.6326
10217TIP3    H152142   5.530   1.030  16.791  2.1882  0.6949  0.8318
10217TIP3    H252143   5.412   1.103  16.853  0.3127 -0.2615 -1.4679
10218TIP3   OH252144   6.808   0.933   5.741  0.6626 -0.1358  0.0405
10218TIP3    H152145   6.714   0.924   5.760  0.9517  0.1040  1.8512
10218TIP3    H252146   6.818   0.901   5.652 -1.1069 -0.3952 -0.1085
10219TIP3   OH252147   4.180   2.785   5.367 -0.7278  0.4092 -0.8636
10219TIP3    H152148   4.162   2.709   5.422 -1.0421  1.2293  0.2014
10219TIP3    H252149   4.188   2.749   5.278 -0.9630 -0.8425 -0.3992
10220TIP3   OH252150   3.879   4.421   3.981 -0.6358 -0.2134  0.2413
10220TIP3    H152151   3.916   4.353   3.925 -2.1597 -0.6792 -0.2495
10220TIP3    H252152   3.955   4.467   4.017  0.3798  0.0611 -2.1276
10221TIP3   OH252153   1.826   0.541  11.477  0.0102  0.1181  0.2043
10221TIP3    H152154   1.869   0.464  11.514  0.7666 -0.3206 -1.5320
10221TIP3    H252155   1.734   0.530  11.499  0.3491 -0.3759  1.4827
10222TIP3   OH252156   1.646   3.031  11.027  0.4920 -0.1676  0.0551
10222TIP3    H152157   1.689   3.085  11.094 -0.4064  0.2210  0.3332
10222TIP3    H252158   1.661   3.078  10.945 -2.8107  2.2118  0.6385
10223TIP3   OH252159   5.005   3.840   0.094 -0.4602 -0.4332 -0.4045
10223TIP3    H152160   5.071   3.882   0.039 -0.3044  2.4319  1.7061
10223TIP3    H252161   5.036   3.750   0.105  3.8526  1.0139  1.3711
10224TIP3   OH252162   4.771   1.457  16.491  0.0449  0.4267  0.1271
10224TIP3    H152163   4.717   1.504  16.428  0.5935  2.0824  0.8394
10224TIP3    H252164   4.769   1.512  16.570  0.2255 -1.0620  1.2192
10225TIP3   OH252165   1.956   6.674   5.008 -0.1875 -0.2809 -0.7676
10225TIP3    H152166   1.963   6.607   5.076 -0.2724  0.1787 -0.2980
10225TIP3    H252167   1.973   6.628   4.927  1.1265 -0.6024 -0.3261
10226TIP3   OH252168   2.926   3.479  13.517  0.1530 -0.0805  0.3647
10226TIP3    H152169   2.954   3.522  13.598 -1.9559  2.6168 -0.2319
10226TIP3    H252170   3.001   3.487  13.458 -0.1541  3.0789  0.2399
10227TIP3   OH252171   5.647   1.875  16.130 -0.5019  0.5122  0.6205
10227TIP3    H152172   5.638   1.969  16.114  1.4696  0.7658  0.7842
10227TIP3    H252173   5.692   1.868  16.214  1.9865 -0.4479 -0.6867
10228TIP3   OH252174   4.681   4.621  12.357  0.0162  0.0734 -0.6027
10228TIP3    H152175   4.747   4.607  12.289 -0.2969 -2.2590 -0.4997
10228TIP3    H252176   4.621   4.547  12.349 -1.3575  0.9759  0.7245
10229TIP3   OH252177   2.297   6.669  11.619  0.1048  0.0030 -0.0019
10229TIP3    H152178   2.299   6.705  11.531  1.2894  1.0924  0.4323
10229TIP3    H252179   2.360   6.722  11.668 -1.8818  0.6592  1.9827
10230TIP3   OH252180   6.294   0.393   1.455 -0.8219 -0.6556  0.2988
10230TIP3    H152181   6.346   0.318   1.426  0.6098 -0.1338  1.4227
10230TIP3    H252182   6.250   0.362   1.535  0.0116 -0.2332  0.9375
10231TIP3   OH252183   2.385   6.278  11.989 -0.0684  0.2676 -0.2003
10231TIP3    H152184   2.358   6.334  11.916 -0.4694 -1.2229 -1.2590
10231TIP3    H252185   2.467   6.238  11.959 -0.2531 -0.3815  0.1426
10232TIP3   OH252186   3.908   0.651   4.427  0.2793 -0.1410 -0.0993
10232TIP3    H152187   3.815   0.635   4.443  0.1024  2.1191  1.6083
10232TIP3    H252188   3.951   0.628   4.509  1.0040  0.3662 -0.3272
10233TIP3   OH252189   4.870   6.195  14.468 -0.2036 -0.1059  0.0277
10233TIP3    H152190   4.814   6.236  14.402  1.1765  0.1590 -1.0152
10233TIP3    H252191   4.893   6.266  14.528 -0.3307 -0.0326 -0.0117
10234TIP3   OH252192   0.993   3.716  10.772 -0.4042 -0.3025  0.1313
10234TIP3    H152193   0.966   3.796  10.727  0.6976  0.0123  0.0050
10234TIP3    H252194   0.915   3.660  10.769 -1.2610  0.8316  0.4100
10235TIP3   OH252195   0.984   6.586   2.167 -0.0072 -0.0442  0.7803
10235TIP3    H152196   1.072   6.609   2.196  0.1521  2.0638 -1.1420
10235TIP3    H252197   0.991   6.497   2.135  1.0556 -0.4262  2.0043
10236TIP3   OH252198   5.909   3.503   4.706  0.3914 -0.0605  0.2973
10236TIP3    H152199   5.960   3.557   4.767 -0.1920 -1.7565  2.3831
10236TIP3    H252200   5.834   3.557   4.684  0.0326  0.2141  2.0132
10237TIP3   OH252201   0.983   0.792   4.031 -0.0757 -0.0523 -0.1892
10237TIP3    H152202   0.952   0.816   3.944  0.7433 -0.5988 -0.6439
10237TIP3    H252203   1.042   0.863   4.057 -0.4499  0.1923 -0.0103
10238TIP3   OH252204   5.910   1.126   5.418  0.3591 -0.7870 -0.1067
10238TIP3    H152205   5.960   1.132   5.500  1.2911  1.8947 -0.7467
10238TIP3    H252206   5.872   1.213   5.408 -0.5368 -1.3634 -2.0579
10239TIP3   OH252207   1.049   1.306   4.474  0.5916 -0.1359 -0.7357
10239TIP3    H152208   1.022   1.374   4.536 -1.5673  0.0188 -1.7617
10239TIP3    H252209   1.125   1.266   4.515 -0.4115  0.3185  1.7743
10240TIP3   OH252210   0.940   2.081   1.791  0.0245  0.2835  0.3383
10240TIP3    H152211   0.851   2.060   1.817 -0.1505  0.4976 -0.0864
10240TIP3    H252212   0.960   2.020   1.720 -0.6021  1.7318 -1.1256
10241TIP3   OH252213   6.668   5.283  16.395 -0.2678 -0.4250  0.8444
10241TIP3    H152214   6.626   5.279  16.482  0.1840 -2.0948  1.0064
10241TIP3    H252215   6.757   5.312  16.413 -0.0671 -1.1158  0.9933
10242TIP3   OH252216   6.003   4.668  10.979  0.0413  0.1112 -0.0180
10242TIP3    H152217   5.963   4.632  11.058 -0.8153 -0.3295 -0.6297
10242TIP3    H252218   5.934   4.724  10.942  0.3857  0.2077 -0.5172
10243TIP3   OH252219   5.869   2.696  11.387  0.0399 -0.2221  0.1434
10243TIP3    H152220   5.945   2.703  11.330 -0.9142  1.7623 -0.9850
10243TIP3    H252221   5.871   2.606  11.420  2.9459 -0.1773  0.3099
10244TIP3   OH252222   3.014   5.112   0.155 -0.4522  0.0805  0.2137
10244TIP3    H152223   3.079   5.155   0.099  0.2827 -0.6444  0.4869
10244TIP3    H252224   3.066   5.072   0.225 -1.2963  0.3788  1.0291
10245TIP3   OH252225   5.100   5.488  14.191  0.4341 -1.0900  0.1312
10245TIP3    H152226   5.142   5.458  14.111  0.5861  0.9869 -0.6315
10245TIP3    H252227   5.030   5.546  14.161  3.5445  3.9041  1.2742
10246TIP3   OH252228   1.525   2.906  16.570 -0.3291  0.3076  0.6208
10246TIP3    H152229   1.608   2.884  16.527 -1.8702 -1.2765 -1.7130
10246TIP3    H252230   1.519   3.001  16.563  0.0982  0.2177 -1.6007
10247TIP3   OH252231   0.679   3.128   0.053 -0.0744 -0.6422 -0.6130
10247TIP3    H152232   0.650   3.150   0.141  0.1280  1.5693 -1.0302
10247TIP3    H252233   0.634   3.047   0.032  1.3597 -2.3437  2.2082
10248TIP3   OH252234   6.565   0.791  16.281 -0.2568  0.0169  0.1624
10248TIP3    H152235   6.557   0.730  16.355 -3.5013 -0.1465 -0.1855
10248TIP3    H252236   6.637   0.756  16.229  1.3130 -0.5757  2.5199
10249TIP3   OH252237   3.061   0.138  11.161  0.4316 -0.4066  0.1591
10249TIP3    H152238   3.081   0.073  11.093 -0.2036 -0.2212 -0.2106
10249TIP3    H252239   3.125   0.120  11.230  1.3147 -0.3714 -0.6299
10250TIP3   OH252240   0.103   5.791   4.286 -0.4374 -0.0331  0.2869
10250TIP3    H152241   0.078   5.784   4.194 -0.2599  1.0413  0.1475
10250TIP3    H252242   0.120   5.884   4.299 -2.2423  0.1400  1.8592
10251TIP3   OH252243   3.031   2.656   2.434 -0.0256  0.0417 -0.3385
10251TIP3    H152244   3.085   2.657   2.513 -0.7034 -0.1735  0.1466
10251TIP3    H252245   3.092   2.647   2.362  0.7224  1.5421  0.0658
10252TIP3   OH252246   5.384   5.388   1.003 -0.5413 -0.5913 -0.0536
10252TIP3    H152247   5.297   5.417   0.976 -0.7246  0.8239  1.7997
10252TIP3    H252248   5.368   5.308   1.053 -0.6844 -0.7521 -0.3542
10253TIP3   OH252249   2.150   2.803   0.103 -0.3745 -0.4455  0.2788
10253TIP3    H152250   2.222   2.770   0.158  0.7259  1.0361 -0.2041
10253TIP3    H252251   2.076   2.810   0.163 -0.1461 -2.0509  0.7806
10254TIP3   OH252252   3.994   0.660  15.382  0.0570 -0.2073  0.4385
10254TIP3    H152253   4.016   0.730  15.444  2.5105 -0.9751  0.5509
10254TIP3    H252254   3.991   0.581  15.436 -1.3839 -0.4147  0.1015
10255TIP3   OH252255   2.650   1.323  14.270 -0.1071  0.0090  0.2978
10255TIP3    H152256   2.637   1.418  14.277  0.1497  0.2469 -1.7052
10255TIP3    H252257   2.714   1.303  14.338  0.7246  1.5034  0.0231
10256TIP3   OH252258   1.423   3.254  16.784 -0.6693  0.1297  0.2328
10256TIP3    H152259   1.411   3.346  16.809  0.3649  0.1471  0.7003
10256TIP3    H252260   1.352   3.208  16.827 -1.6904  0.8114 -0.6616
10257TIP3   OH252261   5.955   4.065   2.576  0.0347 -0.5448  0.1869
10257TIP3    H152262   5.978   4.134   2.513  0.6829 -2.7648 -2.1954
10257TIP3    H252263   5.860   4.063   2.575  0.0195  0.0307 -0.0444
10258TIP3   OH252264   1.012   0.952  13.777 -0.6542  0.6061 -0.7958
10258TIP3    H152265   1.072   0.945  13.851 -0.5517 -1.0642 -1.0050
10258TIP3    H252266   0.931   0.911  13.808 -1.1307  1.2935 -1.0997
10259TIP3   OH252267   6.793   0.498  16.366 -0.3668 -0.0959 -0.1163
10259TIP3    H152268   6.720   0.507  16.427 -0.4410 -0.9667 -0.0501
10259TIP3    H252269   6.852   0.435  16.408 -0.3408 -0.5772 -0.8460
10260TIP3   OH252270   0.667   2.289  14.623  0.4872 -0.3416 -0.4330
10260TIP3    H152271   0.741   2.228  14.623 -0.2874 -1.3954 -2.4953
10260TIP3    H252272   0.609   2.256  14.554 -1.1245  1.3920  0.0041
10261TIP3   OH252273   3.863   2.147   4.102  0.8620  0.0456 -0.2057
10261TIP3    H152274   3.861   2.235   4.066  1.6349 -0.1187 -0.6906
10261TIP3    H252275   3.891   2.158   4.193 -1.7727  0.5244  0.6120
10262TIP3   OH252276   4.320   1.519   3.591 -0.4162 -0.0477  0.0350
10262TIP3    H152277   4.386   1.583   3.617 -0.7697  0.0458  0.7189
10262TIP3    H252278   4.366   1.458   3.533 -0.2592  1.3143 -1.3555
10263TIP3   OH252279   5.640   3.587   6.224  0.2783 -0.4950 -0.0532
10263TIP3    H152280   5.612   3.676   6.204 -0.6221 -0.8203 -0.2515
10263TIP3    H252281   5.560   3.540   6.244  0.6455 -1.5206 -0.9154
10264TIP3   OH252282   6.320   0.509   2.986  0.3173 -0.0738 -0.2148
10264TIP3    H152283   6.310   0.544   2.897  1.5462 -1.2993 -0.8688
10264TIP3    H252284   6.267   0.430   2.987  0.5557 -0.2349  0.0414
10265TIP3   OH252285   0.083   5.837   0.796  0.1067  0.6026 -0.0328
10265TIP3    H152286   0.157   5.777   0.785 -1.0528 -0.9155  0.0776
10265TIP3    H252287   0.087   5.862   0.889  0.2500  0.1926  0.0772
10266TIP3   OH252288   3.659   5.293  16.485 -0.0520 -0.1667  0.0331
10266TIP3    H152289   3.594   5.229  16.514 -0.9860  1.1172  0.8613
10266TIP3    H252290   3.662   5.358  16.555 -0.9641  2.0183 -1.8425
10267TIP3   OH252291   1.481   6.623   5.865  0.5369  0.2911  0.0102
10267TIP3    H152292   1.389   6.648   5.854  0.2621 -1.0048 -0.9842
10267TIP3    H252293   1.482   6.571   5.945  0.7791  1.8712  1.0696
10268TIP3   OH252294   1.698   0.396  15.519  0.1484 -0.4089 -0.2478
10268TIP3    H152295   1.756   0.411  15.594  0.2351  2.5012 -0.7703
10268TIP3    H252296   1.753   0.349  15.456  0.7072 -1.0699  0.7055
10269TIP3   OH252297   1.006   1.141  15.171 -0.1613  0.4843  0.1907
10269TIP3    H152298   0.985   1.101  15.087  1.1816 -0.5713  0.3250
10269TIP3    H252299   0.981   1.074  15.235  0.1434  0.7105  0.5455
10270TIP3   OH252300   3.448   1.619  10.963 -0.0697  0.5088  0.6131
10270TIP3    H152301   3.401   1.702  10.954  0.4896  0.7159 -0.5530
10270TIP3    H252302   3.421   1.586  11.048  0.0964  2.1445  1.3416
10271TIP3   OH252303   1.110   0.133   4.049  0.0289 -0.0897 -0.7436
10271TIP3    H152304   1.076   0.169   4.130  1.3370 -0.3158 -0.0660
10271TIP3    H252305   1.034   0.130   3.990 -0.7274  0.9884  0.1334
10272TIP3   OH252306   2.997   3.348  11.708 -0.4531  0.5977 -1.0695
10272TIP3    H152307   2.949   3.302  11.777  3.0154  0.2733  1.4349
10272TIP3    H252308   2.949   3.430  11.696 -1.8428  0.1662  0.9621
10273TIP3   OH252309   2.430   5.637   1.394  0.0060 -0.1790  0.7802
10273TIP3    H152310   2.468   5.723   1.378  2.4888 -1.3266 -0.0656
10273TIP3    H252311   2.337   5.653   1.404  0.0991  2.3614 -1.3484
10274TIP3   OH252312   4.492   2.785  11.480  0.2078 -0.4391 -0.6199
10274TIP3    H152313   4.440   2.704  11.481  0.5175 -0.7553  2.6937
10274TIP3    H252314   4.427   2.855  11.479 -0.2903 -0.8202  1.2029
10275TIP3   OH252315   5.597   6.106   5.348 -0.2520 -0.2264 -0.1764
10275TIP3    H152316   5.638   6.138   5.268  0.7229 -1.4563 -0.1981
10275TIP3    H252317   5.658   6.129   5.418 -0.4342 -0.3912  0.0401
10276TIP3   OH252318   3.002   5.242   3.452 -0.1271 -0.2982  0.2511
10276TIP3    H152319   2.915   5.248   3.413  0.3485  2.1648 -0.6495
10276TIP3    H252320   3.007   5.317   3.512  1.5907  0.0745 -0.2889
10277TIP3   OH252321   2.959   5.969  14.038  0.5437 -0.4291  0.2554
10277TIP3    H152322   2.890   5.981  13.973 -0.0350 -2.1098  0.5040
10277TIP3    H252323   2.913   5.967  14.122  1.2427  1.3484  0.7215
10278TIP3   OH252324   4.708   1.942  16.380  0.3295  0.4300 -0.9806
10278TIP3    H152325   4.736   2.003  16.449  2.0201  1.7739 -2.7182
10278TIP3    H252326   4.634   1.986  16.339 -1.6690 -1.0564  0.7831
10279TIP3   OH252327   6.669   1.789  13.747 -0.2787 -0.2829 -0.0449
10279TIP3    H152328   6.589   1.735  13.741  1.5020 -3.0149 -1.1991
10279TIP3    H252329   6.700   1.776  13.836 -1.2903  1.1514  0.5519
10280TIP3   OH252330   5.100   0.294   3.430 -0.4883 -0.4346  0.1552
10280TIP3    H152331   5.115   0.207   3.467 -1.6363 -0.6700  0.0890
10280TIP3    H252332   5.152   0.353   3.485  1.2155 -1.2763 -0.4856
10281TIP3   OH252333   5.123   1.482  14.123 -0.0563  0.1365 -0.7861
10281TIP3    H152334   5.172   1.443  14.195 -0.8040 -0.1335 -0.4040
10281TIP3    H252335   5.182   1.547  14.085  1.2151 -1.3243 -1.4092
10282TIP3   OH252336   3.953   1.130   5.000  0.1497  0.2615 -0.3351
10282TIP3    H152337   3.962   1.212   5.049  1.1895  0.9914 -1.6830
10282TIP3    H252338   3.878   1.087   5.041 -0.9007  2.2260 -0.0541
10283TIP3   OH252339   1.458   3.425  12.478 -0.9015  0.5995  0.1914
10283TIP3    H152340   1.370   3.421  12.515 -0.2625 -2.5689  1.7002
10283TIP3    H252341   1.505   3.486  12.536 -1.8719  1.7309 -0.1794
10284TIP3   OH252342   4.273   2.839   2.475 -0.1123  0.1002  0.5014
10284TIP3    H152343   4.368   2.830   2.488 -0.1872  1.2501  2.0806
10284TIP3    H252344   4.242   2.883   2.554 -1.8091  0.7007 -0.4541
10285TIP3   OH252345   0.866   2.980   4.075 -0.1174 -0.1218  0.1914
10285TIP3    H152346   0.929   2.926   4.122 -1.3926 -0.2746  1.8241
10285TIP3    H252347   0.861   2.940   3.987  2.0911 -0.0137 -0.0478
10286TIP3   OH252348   3.242   2.541  16.174  0.2071 -0.0175  0.0876
10286TIP3    H152349   3.250   2.460  16.224 -0.1025  0.6882  1.3192
10286TIP3    H252350   3.332   2.568  16.157  0.3150 -0.2937  0.2168
10287TIP3   OH252351   0.959   0.609  15.480 -0.6178 -0.2741 -0.4821
10287TIP3    H152352   0.971   0.590  15.573 -0.1889 -0.5016 -0.5807
10287TIP3    H252353   0.964   0.523  15.438  0.3869 -0.0515 -0.8340
10288TIP3   OH252354   2.893   4.145  13.320  0.1989  0.1350 -0.3166
10288TIP3    H152355   2.865   4.109  13.236  1.0898  1.1411 -1.0842
10288TIP3    H252356   2.931   4.071  13.367 -1.6473 -0.7544 -0.1625
10289TIP3   OH252357   0.564   5.227  10.876 -0.3971 -0.4045  0.1360
10289TIP3    H152358   0.647   5.262  10.845 -0.5090  0.3554  0.6513
10289TIP3    H252359   0.588   5.174  10.953 -0.4081 -0.0387  0.3914
10290TIP3   OH252360   3.153   3.237   2.879 -0.0296 -0.0762 -0.7818
10290TIP3    H152361   3.185   3.213   2.966  0.5070  3.5444  0.1473
10290TIP3    H252362   3.168   3.158   2.825  2.1035 -1.5158  1.7210
10291TIP3   OH252363   1.398   1.423  16.009  0.0613  0.4136 -0.0962
10291TIP3    H152364   1.486   1.462  16.015 -0.2485  1.1083  0.0476
10291TIP3    H252365   1.371   1.438  15.919 -0.4638  1.4613  0.2145
10292TIP3   OH252366   5.866   2.507  15.685  0.0484  0.0933 -0.2364
10292TIP3    H152367   5.944   2.562  15.673  0.1581  0.0629  0.3284
10292TIP3    H252368   5.868   2.482  15.777  0.0670 -0.9737 -0.5165
10293TIP3   OH252369   0.119   4.920  14.153  0.3014  0.6048  0.1118
10293TIP3    H152370   0.044   4.954  14.104  0.5644  0.4695 -0.3871
10293TIP3    H252371   0.193   4.932  14.094  1.0517  2.6881  1.3621
10294TIP3   OH252372   6.336   4.844   3.130 -0.3369 -0.4999 -0.2442
10294TIP3    H152373   6.373   4.865   3.216 -2.5937  1.8028  0.2777
10294TIP3    H252374   6.242   4.854   3.141 -0.8732 -2.3215 -2.4752
10295TIP3   OH252375   6.003   0.655   6.247 -0.1839 -0.3763 -0.0030
10295TIP3    H152376   6.080   0.687   6.295 -0.7385 -1.8559  1.9931
10295TIP3    H252377   5.986   0.723   6.182  0.7852  1.6524  1.7228
10296TIP3   OH252378   4.379   5.924  13.658 -0.3177  0.0449  0.7130
10296TIP3    H152379   4.304   5.876  13.692 -1.3492  0.8554 -0.3051
10296TIP3    H252380   4.449   5.859  13.650 -0.5600 -0.4977  2.6905
10297TIP3   OH252381   6.369   0.051  11.010  0.4553  0.1165 -0.3140
10297TIP3    H152382   6.398   0.116  10.945  1.1059 -1.0676 -1.2451
10297TIP3    H252383   6.279   0.077  11.031  0.5108  0.9988 -1.0766
10298TIP3   OH252384   1.700   3.722   1.837  0.2169  0.1450  0.9016
10298TIP3    H152385   1.705   3.735   1.932  0.7479 -0.9992  1.0409
10298TIP3    H252386   1.612   3.749   1.813  0.0686  0.4029  1.7256
10299TIP3   OH252387   6.051   4.714  16.559 -0.3708 -0.2018  0.0320
10299TIP3    H152388   6.086   4.629  16.532 -0.8352 -0.1096 -0.9038
10299TIP3    H252389   6.054   4.712  16.654  0.1783 -1.0322  0.0073
10300TIP3   OH252390   1.635   3.314  15.949  0.5899 -0.0676 -0.8682
10300TIP3    H152391   1.693   3.299  15.875  0.7715 -1.1482 -0.5169
10300TIP3    H252392   1.550   3.335  15.909  1.2926  2.0191 -1.3909
10301TIP3   OH252393   0.402   3.899   5.970 -0.3012 -0.2821  0.1954
10301TIP3    H152394   0.320   3.851   5.986 -0.2961 -0.8109 -1.2035
10301TIP3    H252395   0.434   3.922   6.057 -1.5455 -0.7398  0.7974
10302TIP3   OH252396   3.246   2.681   4.969 -0.3678 -0.5023 -0.0813
10302TIP3    H152397   3.170   2.701   5.023 -0.1885  0.2552 -0.1011
10302TIP3    H252398   3.318   2.671   5.031  0.0851  1.5213 -0.2208
10303TIP3   OH252399   4.891   1.391   1.533  0.4288 -0.1668  0.5641
10303TIP3    H152400   4.956   1.408   1.465  0.4577 -0.7611  0.4413
10303TIP3    H252401   4.873   1.298   1.527 -0.0440 -0.1054  0.9523
10304TIP3   OH252402   5.412   5.283  15.693 -0.0393 -0.2862  0.2456
10304TIP3    H152403   5.476   5.288  15.622 -0.9857 -2.4529 -0.8857
10304TIP3    H252404   5.460   5.247  15.767  0.7357  1.0400  0.3981
10305TIP3   OH252405   6.233   0.438   4.294  0.0598 -0.0522 -0.3008
10305TIP3    H152406   6.218   0.462   4.202  1.1844  0.3923 -0.3856
10305TIP3    H252407   6.145   0.426   4.330 -0.4084 -0.0603 -1.3857
10306TIP3   OH252408   5.050   6.464   1.738 -0.0034  0.3036  0.7482
10306TIP3    H152409   5.128   6.519   1.735  0.9767 -1.0174  0.9537
10306TIP3    H252410   5.083   6.376   1.760 -1.3450 -0.6378 -0.7428
10307TIP3   OH252411   0.597   6.221  14.513 -0.6607  0.7718  0.5598
10307TIP3    H152412   0.667   6.277  14.545 -0.0627  1.0283 -1.0715
10307TIP3    H252413   0.601   6.230  14.418 -2.2167 -0.0569  0.3789
10308TIP3   OH252414   6.093   3.382  15.846  0.0825 -0.2340 -0.3023
10308TIP3    H152415   6.014   3.431  15.824  1.0548  1.3369 -0.4247
10308TIP3    H252416   6.163   3.424  15.795  1.5299  0.3776  2.0538
10309TIP3   OH252417   0.926   6.652  17.173 -0.4033 -0.2527 -0.6751
10309TIP3    H152418   0.958   6.583  17.115  1.4470 -0.1850  0.1910
10309TIP3    H252419   0.858   6.610  17.225  1.3258 -1.7506  0.4851
10310TIP3   OH252420   2.834   0.087  16.916 -0.0650  0.4297 -0.5080
10310TIP3    H152421   2.847   0.042  16.833  0.4542 -0.8505  0.2428
10310TIP3    H252422   2.801   0.020  16.976  1.0329  0.9325  0.7198
10311TIP3   OH252423   3.081   5.744  11.029  0.3946 -0.0233  0.0316
10311TIP3    H152424   3.078   5.649  11.025 -1.4736 -0.3040  3.9645
10311TIP3    H252425   2.999   5.772  10.987  1.3260  0.0110 -1.8806
10312TIP3   OH252426   1.840   6.232   6.200 -0.4770 -0.0881  0.0788
10312TIP3    H152427   1.756   6.208   6.239 -0.5733  0.0856 -0.0252
10312TIP3    H252428   1.863   6.315   6.241 -1.2092  0.7708 -1.1918
10313TIP3   OH252429   6.060   4.923   3.142 -0.1938 -0.4003  0.2976
10313TIP3    H152430   6.065   5.011   3.104 -1.8034  0.1059  1.1330
10313TIP3    H252431   6.003   4.875   3.081  0.8442 -0.9433 -0.2617
10314TIP3   OH252432   0.494   3.974  15.865  0.0616 -0.4493  0.1179
10314TIP3    H152433   0.525   4.023  15.941 -0.7128  0.5591 -0.1884
10314TIP3    H252434   0.573   3.933  15.829  0.8147  0.8622  0.2009
10315TIP3   OH252435   4.331   2.703   2.051  0.4464  0.0751  0.2935
10315TIP3    H152436   4.269   2.757   2.101 -0.4173 -0.8743  0.2825
10315TIP3    H252437   4.363   2.639   2.115 -0.0660 -0.6483 -0.1550
10316TIP3   OH252438   3.015   4.070  14.807 -0.5256 -0.3399 -0.3275
10316TIP3    H152439   2.987   4.071  14.899  0.0895  0.8594 -0.1367
10316TIP3    H252440   2.945   4.115  14.760 -0.5909 -0.4826 -0.3660
10317TIP3   OH252441   2.405   3.337   2.539 -0.3865 -0.4933 -0.5380
10317TIP3    H152442   2.345   3.315   2.467  1.5416 -1.8189 -1.8571
10317TIP3    H252443   2.489   3.356   2.495  0.6376 -0.4965  1.3140
10318TIP3   OH252444   6.793   3.067   2.881 -0.4721 -0.2748  0.1782
10318TIP3    H152445   6.769   3.133   2.945  0.5088 -1.0395  1.3694
10318TIP3    H252446   6.719   3.065   2.820 -1.2451  0.7372  1.0494
10319TIP3   OH252447   2.506   4.175   5.811 -0.0193 -0.2547  0.4005
10319TIP3    H152448   2.554   4.137   5.737  1.0021  0.9242  0.4241
10319TIP3    H252449   2.519   4.112   5.882 -0.6572 -1.1914 -0.2844
10320TIP3   OH252450   4.999   0.558   4.998  0.2591  0.4735  0.5262
10320TIP3    H152451   4.940   0.506   5.053  2.8405 -2.3925  0.8538
10320TIP3    H252452   5.074   0.576   5.054  0.3101  2.9674 -0.2431
10321TIP3   OH252453   6.144   4.862  15.109 -0.1443 -0.0505  0.1458
10321TIP3    H152454   6.062   4.814  15.094  0.0571 -0.9940  1.7693
10321TIP3    H252455   6.117   4.952  15.124 -1.0774 -0.6181  2.1656
10322TIP3   OH252456   3.151   5.756   6.301 -0.6540 -0.1026  0.2223
10322TIP3    H152457   3.138   5.771   6.207  0.5532  0.4919  0.1188
10322TIP3    H252458   3.177   5.664   6.307  1.1585  0.3240 -0.2922
10323TIP3   OH252459   1.507   1.592   0.745  0.0021  0.0407  0.4970
10323TIP3    H152460   1.431   1.585   0.803 -0.6932  2.5514 -0.0048
10323TIP3    H252461   1.542   1.679   0.763  0.8051  0.2022 -1.6161
10324TIP3   OH252462   5.358   0.003  16.422 -0.2079  0.6462 -0.3105
10324TIP3    H152463   5.330  -0.081  16.459 -0.7164  1.5183  1.4069
10324TIP3    H252464   5.332   0.068  16.488 -0.5640  2.2468 -1.9566
10325TIP3   OH252465   5.885   4.512  11.689  0.4097 -0.2012  0.3166
10325TIP3    H152466   5.873   4.418  11.677  1.5701 -0.1351 -1.7932
10325TIP3    H252467   5.800   4.543  11.721 -0.9630 -1.5258 -1.8187
10326TIP3   OH252468   6.145   5.271  13.150  0.3321 -0.0040 -0.2518
10326TIP3    H152469   6.102   5.194  13.186 -3.1618  1.4949 -0.8016
10326TIP3    H252470   6.168   5.324  13.227  0.3117 -0.4010  0.0305
10327TIP3   OH252471   6.232   2.798   0.582  0.6315 -0.4734  0.0914
10327TIP3    H152472   6.296   2.864   0.553  0.1895  0.5657  1.3552
10327TIP3    H252473   6.268   2.715   0.553  1.3815  0.2821 -1.2729
10328TIP3   OH252474   0.344   6.715   0.566 -0.4202 -0.2667  0.5120
10328TIP3    H152475   0.371   6.803   0.539  1.0735 -0.9413 -0.3099
10328TIP3    H252476   0.250   6.714   0.550 -0.9918  1.9920  2.9741
10329TIP3   OH252477   1.086   5.786   1.904 -0.3805  0.1576  0.4526
10329TIP3    H152478   1.103   5.701   1.864 -0.5366  0.2219  0.2491
10329TIP3    H252479   0.992   5.787   1.920 -0.7362  1.0807 -1.3964
10330TIP3   OH252480   4.589   6.395  16.634  0.3180 -0.4868 -0.6503
10330TIP3    H152481   4.675   6.352  16.636  1.7676  2.2076  0.2962
10330TIP3    H252482   4.540   6.352  16.704  1.4337 -1.0575 -0.1778
10331TIP3   OH252483   4.037   6.374   4.317 -0.3490  0.0446  0.4090
10331TIP3    H152484   4.050   6.466   4.295  2.2661 -0.0175  1.3657
10331TIP3    H252485   4.065   6.367   4.409 -1.3788 -1.5608  0.6538
10332TIP3   OH252486   6.039   3.184  17.001  0.1736 -0.4823  0.4093
10332TIP3    H152487   6.015   3.094  16.978  0.2843  0.4214 -4.3050
10332TIP3    H252488   5.957   3.233  16.996  0.4972  0.0697  0.4335
10333TIP3   OH252489   0.044   2.957  16.748 -0.4053  0.4113 -0.0513
10333TIP3    H152490   0.112   3.013  16.785 -0.5794  0.6847 -0.1334
10333TIP3    H252491   0.073   2.868  16.765 -0.3854  0.5301  0.5712
10334TIP3   OH252492   0.637   6.106  15.217 -0.5918  0.0007  0.3755
10334TIP3    H152493   0.652   6.012  15.202  0.6149  0.3486 -0.7268
10334TIP3    H252494   0.677   6.149  15.141  1.5926  1.5901  2.2843
10335TIP3   OH252495   1.967   1.307   2.635 -1.4409 -0.5349  0.3430
10335TIP3    H152496   1.958   1.287   2.542  2.4357 -1.0653 -0.0635
10335TIP3    H252497   1.962   1.402   2.640 -1.4081 -0.4858 -0.4656
10336TIP3   OH252498   2.794   2.687  15.909 -0.4169  0.2620  0.0735
10336TIP3    H152499   2.880   2.662  15.943 -0.6833  0.5201  0.9391
10336TIP3    H252500   2.803   2.778  15.882  0.1825 -0.3104 -1.8791
10337TIP3   OH252501   4.305   4.844   3.570 -0.3099 -0.0031  0.0075
10337TIP3    H152502   4.348   4.761   3.593  1.1384  0.5765 -0.4848
10337TIP3    H252503   4.251   4.822   3.495 -0.4485 -0.6459  0.2861
10338TIP3   OH252504   1.946   1.809   2.816 -0.2682 -0.2752 -0.2239
10338TIP3    H152505   1.899   1.839   2.893  0.1746  0.0439 -0.0720
10338TIP3    H252506   1.946   1.884   2.757 -0.3380 -0.4186 -0.4069
10339TIP3   OH252507   4.376   0.395   5.768 -0.3317 -0.2391 -0.3418
10339TIP3    H152508   4.288   0.358   5.756 -0.1552 -0.4244 -1.0906
10339TIP3    H252509   4.431   0.346   5.708  0.0322  0.7609 -0.8460
10340TIP3   OH252510   5.112   6.151  15.841 -0.5500  0.1454 -0.0136
10340TIP3    H152511   5.061   6.185  15.767 -1.0218 -3.2785 -1.5076
10340TIP3    H252512   5.052   6.152  15.915 -2.2096 -1.7790 -1.2192
10341TIP3   OH252513   0.511   2.020   0.192 -0.5710 -0.6800  0.6001
10341TIP3    H152514   0.510   1.987   0.282  1.5407 -1.8576  0.2598
10341TIP3    H252515   0.486   1.945   0.139  1.2671 -0.9478  0.0300
10342TIP3   OH252516   3.093   1.938   0.054 -0.1957 -0.1932  0.5935
10342TIP3    H152517   3.169   1.921   0.110  0.2255 -2.6652 -0.5929
10342TIP3    H252518   3.059   2.022   0.084  1.8244  0.0296  2.4754
10343TIP3   OH252519   0.967   1.494  16.216  0.0980 -0.3016 -0.1687
10343TIP3    H152520   0.956   1.525  16.306 -0.6601  0.1429 -0.4029
10343TIP3    H252521   1.060   1.502  16.198  0.1594  0.2066  0.3636
10344TIP3   OH252522   3.707   2.331   5.697  0.8114 -0.3054  0.6053
10344TIP3    H152523   3.796   2.341   5.664  0.7978 -0.4192  0.5350
10344TIP3    H252524   3.686   2.417   5.735  0.2890  0.3053 -1.0037
10345TIP3   OH252525   6.293   4.194  16.453 -0.0142 -0.1424 -0.0573
10345TIP3    H152526   6.216   4.174  16.399  0.0391  1.3421 -0.7195
10345TIP3    H252527   6.367   4.181  16.394  0.0332  1.7308 -0.4578
10346TIP3   OH252528   6.399   6.364  10.382 -0.0658 -0.1198  0.1794
10346TIP3    H152529   6.425   6.341  10.471 -0.0042 -1.1947 -0.1099
10346TIP3    H252530   6.363   6.284  10.346 -1.2709  0.6312 -0.3486
10347TIP3   OH252531   4.916   1.524  12.209  0.0606  0.0517  0.3288
10347TIP3    H152532   4.832   1.567  12.190 -1.3951 -3.1038 -1.1380
10347TIP3    H252533   4.938   1.551  12.298 -0.5109  3.9069 -0.5216
10348TIP3   OH252534   4.519   1.292  14.490 -0.1585 -0.1884  0.4420
10348TIP3    H152535   4.544   1.202  14.512 -2.7937 -1.0632  0.2270
10348TIP3    H252536   4.536   1.299  14.396 -0.4668 -0.6436  0.3513
10349TIP3   OH252537   2.111   6.671   0.619 -0.1185 -0.1874 -0.3668
10349TIP3    H152538   2.200   6.654   0.651 -0.2140 -1.1089 -0.5719
10349TIP3    H252539   2.108   6.766   0.606  0.1827  0.1372  1.5979
10350TIP3   OH252540   5.462   1.681  16.810 -0.1799  0.0383 -0.2499
10350TIP3    H152541   5.392   1.734  16.770  2.0324  2.2631 -1.4551
10350TIP3    H252542   5.486   1.728  16.889  0.8422  0.0604 -0.5576
10351TIP3   OH252543   1.373   0.544   4.304  0.2088 -0.3118 -0.1351
10351TIP3    H152544   1.303   0.584   4.252 -0.1554  1.3495  1.5282
10351TIP3    H252545   1.344   0.454   4.316 -1.1393  0.0516 -0.3780
10352TIP3   OH252546   0.119   6.069   0.141  0.8419 -0.6791  0.3943
10352TIP3    H152547   0.093   6.159   0.125  1.3706 -0.8758 -2.0289
10352TIP3    H252548   0.205   6.075   0.182  2.3737  0.0064 -2.6613
10353TIP3   OH252549   4.678   2.476  12.305  0.0093  0.3609  0.4104
10353TIP3    H152550   4.696   2.511  12.217  1.0112 -1.1383 -0.0316
10353TIP3    H252551   4.647   2.386  12.289 -0.3964  0.2796  1.5735
10354TIP3   OH252552   4.762   2.657   5.424 -0.4342 -0.5327 -0.3526
10354TIP3    H152553   4.846   2.694   5.397  0.4365 -1.7009  0.6630
10354TIP3    H252554   4.761   2.668   5.520 -1.1589 -1.0919 -0.2911
10355TIP3   OH252555   6.750   1.347   0.244 -0.0109  0.2351 -0.0912
10355TIP3    H152556   6.737   1.313   0.332  0.0739  1.0543  0.2407
10355TIP3    H252557   6.840   1.380   0.244  1.0427 -2.3408 -1.3585
10356TIP3   OH252558   1.493   4.692   0.595 -0.2618  0.1624 -0.3889
10356TIP3    H152559   1.413   4.640   0.594 -0.5100  0.5292 -2.2376
10356TIP3    H252560   1.560   4.632   0.629 -1.0770 -0.4930  0.0997
10357TIP3   OH252561   3.823   2.453  15.822  0.1837 -0.3333 -0.0833
10357TIP3    H152562   3.871   2.416  15.897 -1.0167 -0.2913  0.7252
10357TIP3    H252563   3.754   2.389  15.804 -0.6629  0.5281  0.0300
10358TIP3   OH252564   4.324   5.930   3.245 -0.3279 -0.3822 -0.5129
10358TIP3    H152565   4.230   5.931   3.227 -0.2044 -1.4735 -1.3599
10358TIP3    H252566   4.365   5.957   3.163  0.0928  0.3806 -0.0592
10359TIP3   OH252567   5.339   6.781   3.657 -0.2761  0.6289  0.4869
10359TIP3    H152568   5.259   6.794   3.607 -0.9210 -2.6754  0.4339
10359TIP3    H252569   5.400   6.846   3.622 -2.7251  3.0553  0.2954
10360TIP3   OH252570   3.950   0.546   6.056 -0.1339 -0.3226 -0.0913
10360TIP3    H152571   3.884   0.487   6.090  1.0269 -2.1129 -0.7863
10360TIP3    H252572   3.987   0.589   6.133 -1.2845 -0.1814  0.3878
10361TIP3   OH252573   5.571   0.046   2.936  0.4362 -0.0305 -0.4166
10361TIP3    H152574   5.488   0.028   2.891  0.1267 -0.7374  0.3919
10361TIP3    H252575   5.604  -0.041   2.959  0.5134  0.3059  0.8201
10362TIP3   OH252576   4.540   1.600   5.516  0.7149 -0.0154 -0.2042
10362TIP3    H152577   4.484   1.568   5.587  0.9885  0.6361  0.3131
10362TIP3    H252578   4.501   1.563   5.437 -0.2493  0.1553  0.1743
10363TIP3   OH252579   1.135   1.596   4.495  0.6088 -0.2447 -0.4063
10363TIP3    H152580   1.137   1.654   4.571 -1.8124  1.4163 -1.4896
10363TIP3    H252581   1.043   1.571   4.486  1.1368 -1.9433 -1.7196
10364TIP3   OH252582   4.145   4.414   3.881 -0.5922 -0.0378  0.2915
10364TIP3    H152583   4.115   4.325   3.897  0.7964 -0.2142  2.2841
10364TIP3    H252584   4.239   4.406   3.869 -0.5350  1.0988 -0.1598
10365TIP3   OH252585   3.681   0.693  13.104 -0.1327 -0.3736  0.1113
10365TIP3    H152586   3.751   0.745  13.143 -2.4789  0.2977  4.0292
10365TIP3    H252587   3.623   0.758  13.064 -0.4418 -0.4896  0.3669
10366TIP3   OH252588   2.381   4.357  14.731  0.3372  0.6393  0.2719
10366TIP3    H152589   2.383   4.423  14.662  0.7013  0.3435  0.0003
10366TIP3    H252590   2.305   4.381  14.784 -0.1285  0.6900 -0.4031
10367TIP3   OH252591   3.572   1.881  12.243 -0.0972  0.5208 -0.1086
10367TIP3    H152592   3.543   1.958  12.292 -0.7550  1.7360 -2.2602
10367TIP3    H252593   3.567   1.809  12.305  0.5690  2.1996  1.9986
10368TIP3   OH252594   1.179   0.295  12.297 -0.3614 -0.2935 -0.0503
10368TIP3    H152595   1.242   0.285  12.369 -1.3560 -1.4570  0.7006
10368TIP3    H252596   1.177   0.390  12.281  1.3082 -0.1910  0.1224
10369TIP3   OH252597   3.897   0.924  15.782 -0.5790 -0.2947  0.4006
10369TIP3    H152598   3.932   0.968  15.859  0.5058 -2.6161  1.3099
10369TIP3    H252599   3.864   0.841  15.814 -0.7020 -1.0550 -1.5386
10370TIP3   OH252600   4.852   0.419  11.570 -0.3095 -0.0302  1.2140
10370TIP3    H152601   4.870   0.466  11.652  0.1263 -0.0118  1.1116
10370TIP3    H252602   4.936   0.419  11.524 -1.5199  4.3939 -1.6139
10371TIP3   OH252603   3.495   5.342  11.039 -0.6131  0.2383  0.9236
10371TIP3    H152604   3.546   5.367  10.962 -0.6259 -0.3953  0.7006
10371TIP3    H252605   3.493   5.421  11.093  1.4784  0.0198  1.4292
10372TIP3   OH252606   0.979   5.321   3.128  0.1125 -0.3683 -0.1098
10372TIP3    H152607   1.058   5.358   3.090  0.6139  1.1831  2.2715
10372TIP3    H252608   0.947   5.388   3.187 -1.0922 -2.2842  1.5214
10373TIP3   OH252609   4.284   0.748  12.808  1.1748  0.3451 -0.6077
10373TIP3    H152610   4.322   0.676  12.859 -0.5204 -0.6583 -0.6855
10373TIP3    H252611   4.286   0.823  12.868  0.0737 -0.5736  0.6352
10374TIP3   OH252612   4.669   1.588  12.473  0.3467  0.1845  0.1549
10374TIP3    H152613   4.589   1.637  12.493  0.7519  0.9159  0.0354
10374TIP3    H252614   4.735   1.656  12.458  1.3225 -0.4029  1.5568
10375TIP3   OH252615   5.055   5.689  13.902  0.8362  0.2972 -0.4521
10375TIP3    H152616   5.114   5.616  13.916  1.4826  1.0479  0.9316
10375TIP3    H252617   5.024   5.713  13.990  0.0647  1.2179 -0.9469
10376TIP3   OH252618   2.513   3.755  13.416  0.4764 -0.0686  0.0599
10376TIP3    H152619   2.510   3.720  13.505  2.2266 -1.5060 -0.3716
10376TIP3    H252620   2.605   3.745  13.390 -0.0986 -0.2621 -2.1189
10377TIP3   OH252621   0.585   6.412   6.413  0.5652  0.1843  0.2404
10377TIP3    H152622   0.509   6.448   6.459 -0.2889 -1.4138  0.1529
10377TIP3    H252623   0.642   6.488   6.398 -0.7202  1.3204  0.8441
10378TIP3   OH252624   4.174   6.555   0.903  0.3307  0.2761 -0.0576
10378TIP3    H152625   4.154   6.469   0.865  1.9394 -0.5630  0.8535
10378TIP3    H252626   4.122   6.558   0.983  0.7136 -0.1381  0.2176
10379TIP3   OH252627   1.625   5.873  11.970 -0.6144 -0.1796  0.3950
10379TIP3    H152628   1.635   5.885  11.875  0.4796  0.1015  0.5339
10379TIP3    H252629   1.714   5.866  12.003 -0.8360  2.2472  1.7331
10380TIP3   OH252630   6.178   4.646  11.863 -0.2063 -0.3380 -0.6823
10380TIP3    H152631   6.264   4.631  11.901  0.1228  0.2035 -1.1858
10380TIP3    H252632   6.128   4.567  11.881  0.6245 -0.9357 -0.9889
10381TIP3   OH252633   0.269   3.277  12.788  0.1519  0.4346 -0.0151
10381TIP3    H152634   0.351   3.322  12.769  0.1403  1.1800  1.5451
10381TIP3    H252635   0.289   3.184  12.776  1.1245  0.6325  0.0203
10382TIP3   OH252636   1.233   0.215  16.025 -0.2493 -0.5334 -0.7252
10382TIP3    H152637   1.274   0.146  16.078 -1.5581  0.3681  1.6021
10382TIP3    H252638   1.299   0.285  16.023 -0.2622 -0.4926 -0.0697
10383TIP3   OH252639   4.391   4.428  15.810  0.3021 -0.2080 -0.2457
10383TIP3    H152640   4.336   4.437  15.888  3.1038  1.8840  1.6965
10383TIP3    H252641   4.343   4.473  15.741 -0.5540  1.3717  1.3019
10384TIP3   OH252642   1.892   4.813  16.406  0.1258 -0.0364  0.1500
10384TIP3    H152643   1.897   4.784  16.315  1.1716 -1.9064  0.7377
10384TIP3    H252644   1.977   4.851  16.425 -0.0337  0.2123  0.3811
10385TIP3   OH252645   6.475   1.402   5.228  0.0289 -0.3362  0.2118
10385TIP3    H152646   6.530   1.339   5.274  2.5228  1.5037 -0.0563
10385TIP3    H252647   6.399   1.351   5.199  0.4155 -2.4875  2.6014
10386TIP3   OH252648   2.517   4.020   3.785 -0.1806  0.4240 -0.2465
10386TIP3    H152649   2.435   4.017   3.834  0.1828 -0.7895  0.3082
10386TIP3    H252650   2.578   3.969   3.837  0.4186 -0.2909 -1.5975
10387TIP3   OH252651   2.849   3.740  14.822 -0.2522  0.1616  0.1732
10387TIP3    H152652   2.850   3.761  14.728 -1.6410  0.1804  0.1437
10387TIP3    H252653   2.940   3.717  14.842  0.5468  2.3875 -0.6457
10388TIP3   OH252654   4.867   6.606   1.168 -0.7666 -0.3612 -0.0035
10388TIP3    H152655   4.841   6.580   1.080 -0.2438  0.3791 -0.3906
10388TIP3    H252656   4.785   6.617   1.215 -1.0792 -0.1425 -0.5857
10389TIP3   OH252657   0.207   3.547  12.240 -0.0669 -0.5106  0.3120
10389TIP3    H152658   0.123   3.535  12.197  0.5414  1.1507 -1.5099
10389TIP3    H252659   0.197   3.506  12.326 -2.4612 -0.9954 -0.1386
10390TIP3   OH252660   5.765   1.048   5.194 -0.0752  0.2490 -0.0969
10390TIP3    H152661   5.820   1.047   5.272 -1.1332 -0.0790  0.6714
10390TIP3    H252662   5.701   1.118   5.211  0.2000  0.7529 -1.0526
10391TIP3   OH252663   5.865   3.970   3.989 -0.1605 -0.5665  0.1701
10391TIP3    H152664   5.819   3.919   4.056 -0.3849 -1.1562 -0.4211
10391TIP3    H252665   5.826   3.941   3.907 -0.4707  0.7617 -0.1673
10392TIP3   OH252666   2.145   2.208   5.188  0.3517 -0.3834 -0.0669
10392TIP3    H152667   2.236   2.233   5.204 -0.0501  0.4449  1.0216
10392TIP3    H252668   2.125   2.144   5.257 -0.5177  1.0419  1.0554
10393TIP3   OH252669   2.785   6.399   1.910 -0.7863  0.8055 -0.4221
10393TIP3    H152670   2.742   6.367   1.989 -1.0555 -0.7471 -1.1491
10393TIP3    H252671   2.728   6.369   1.839  0.3275  0.6908 -1.2856
10394TIP3   OH252672   5.599   2.894  13.609 -0.0569  0.7541 -0.0662
10394TIP3    H152673   5.616   2.899  13.515 -0.1231  1.4540 -0.0468
10394TIP3    H252674   5.563   2.980  13.631 -0.9578  0.2614  0.4181
10395TIP3   OH252675   0.881   4.073  15.249 -0.4710  0.1491  0.2645
10395TIP3    H152676   0.943   4.000  15.242 -0.6648  0.0185 -0.1106
10395TIP3    H252677   0.930   4.142  15.294 -0.3070 -0.2345  0.6779
10396TIP3   OH252678   1.379   6.539  13.050 -0.0848  0.1169  0.6415
10396TIP3    H152679   1.306   6.504  13.101 -0.2705 -0.5994 -0.0986
10396TIP3    H252680   1.405   6.467  12.992  0.6367  0.6514  0.2856
10397TIP3   OH252681   0.496   1.746   3.687 -0.5492 -0.2666  0.6817
10397TIP3    H152682   0.583   1.747   3.728 -0.0959  0.8059 -0.2455
10397TIP3    H252683   0.470   1.654   3.687  1.9866 -1.1365 -1.8965
10398TIP3   OH252684   3.318   1.937  13.740 -0.7198  0.3889  0.2396
10398TIP3    H152685   3.236   1.887  13.739 -0.4933  0.0139 -0.4376
10398TIP3    H252686   3.293   2.024  13.708 -1.0464  0.6090  1.0672
10399TIP3   OH252687   0.652   4.468  12.633  0.5840  0.6050 -0.0128
10399TIP3    H152688   0.729   4.417  12.656  0.0200 -0.1126  0.3168
10399TIP3    H252689   0.680   4.521  12.558  1.5349  0.7258  0.4191
10400TIP3   OH252690   1.278   2.461  13.795  0.1590  0.2946  0.2656
10400TIP3    H152691   1.371   2.438  13.802  0.1658  0.0162 -0.7379
10400TIP3    H252692   1.233   2.390  13.839  0.4362  0.6932  1.2339
10401TIP3   OH252693   1.105   1.066  11.158 -0.2491  0.4871  0.0738
10401TIP3    H152694   1.136   1.023  11.238  0.9996 -0.2299 -0.7469
10401TIP3    H252695   1.129   1.158  11.169  0.3527  0.3076  0.3433
10402TIP3   OH252696   2.347   3.457  10.549  0.4374 -0.4929 -0.0967
10402TIP3    H152697   2.362   3.362  10.556  0.0770 -0.5956 -0.6176
10402TIP3    H252698   2.254   3.467  10.567  1.1512  0.2540  4.2373
10403TIP3   OH252699   2.464   4.807  17.147 -0.0345  0.9429  0.2028
10403TIP3    H152700   2.377   4.766  17.154  0.4609 -0.4260 -1.1424
10403TIP3    H252701   2.524   4.733  17.138  1.1083  1.9322 -0.5232
10404TIP3   OH252702   0.079   4.790  15.257 -0.2325  0.3688 -0.2082
10404TIP3    H152703   0.083   4.826  15.168  0.9332  0.8264  0.0233
10404TIP3    H252704   0.045   4.862  15.310 -0.6448  0.1908 -0.2261
10405TIP3   OH252705   4.117   3.211   2.862 -0.4981  0.1081 -0.1961
10405TIP3    H152706   4.104   3.300   2.894  0.4951  0.6176 -1.1128
10405TIP3    H252707   4.060   3.157   2.915  0.2065  1.0496  1.5914
10406TIP3   OH252708   4.027   4.780  13.490  0.4004 -0.5114 -0.0310
10406TIP3    H152709   3.982   4.735  13.561  0.1651 -1.1004 -0.5409
10406TIP3    H252710   3.961   4.792  13.422  0.7628 -0.4964 -0.3910
10407TIP3   OH252711   3.233   2.005  12.714 -0.0515  0.7661 -0.7954
10407TIP3    H152712   3.209   1.942  12.782  1.5599  2.6422  1.7299
10407TIP3    H252713   3.284   1.955  12.651 -2.2875 -1.2340 -1.1429
10408TIP3   OH252714   1.317   4.820   4.899 -0.4615  0.0973 -0.0607
10408TIP3    H152715   1.274   4.897   4.934  0.8107  0.6659  0.3251
10408TIP3    H252716   1.409   4.831   4.923  0.4502  0.2990 -3.1777
10409TIP3   OH252717   0.590   4.596  12.877 -0.9109  0.1459 -0.5274
10409TIP3    H152718   0.596   4.551  12.793  0.4224  0.1181 -0.4469
10409TIP3    H252719   0.679   4.627  12.894 -1.4845  1.4997  0.1413
10410TIP3   OH252720   2.917   0.334  11.787  0.1419 -0.2389 -0.0988
10410TIP3    H152721   2.885   0.400  11.726  0.7633  0.3896  0.2430
10410TIP3    H252722   2.994   0.374  11.827  1.4267 -1.7118 -0.9522
10411TIP3   OH252723   2.233   5.933   5.717 -0.1815 -0.3358  0.4378
10411TIP3    H152724   2.315   5.981   5.728  0.3284 -1.1769  0.4221
10411TIP3    H252725   2.193   5.971   5.639  1.7944 -2.0722 -1.5627
10412TIP3   OH252726   4.779   3.384  14.959 -0.3027 -0.6814 -0.1482
10412TIP3    H152727   4.813   3.421  14.877 -0.1177 -0.0270  0.2168
10412TIP3    H252728   4.801   3.291  14.954 -0.7619 -0.7605 -1.0807
10413TIP3   OH252729   1.023   5.687  16.842  0.3608  0.0288  0.3907
10413TIP3    H152730   1.085   5.677  16.770 -0.0061  1.2477 -0.1080
10413TIP3    H252731   1.074   5.728  16.912  0.6228 -0.8295  0.7243
10414TIP3   OH252732   1.822   5.495  16.947  0.4734  0.1477  0.1141
10414TIP3    H152733   1.789   5.439  17.017 -1.3947  0.1654 -0.6917
10414TIP3    H252734   1.850   5.435  16.879 -1.2546  0.1363 -0.6301
10415TIP3   OH252735   1.186   1.438  12.696 -0.1555  0.2819 -0.2903
10415TIP3    H152736   1.211   1.507  12.758  0.8945 -0.5880  0.2748
10415TIP3    H252737   1.106   1.400  12.733  0.3604 -0.1031  0.4414
10416TIP3   OH252738   2.816   6.272   0.100  0.2127 -0.1784  0.5716
10416TIP3    H152739   2.804   6.202   0.165  0.6312 -1.2555 -0.4767
10416TIP3    H252740   2.911   6.283   0.093  0.2426 -1.0973 -0.8847
10417TIP3   OH252741   5.273   5.790  12.113  0.2329  0.4037  0.2425
10417TIP3    H152742   5.323   5.866  12.140  2.0717  0.0626 -1.9049
10417TIP3    H252743   5.186   5.802  12.152  1.2620  2.2187  2.1163
10418TIP3   OH252744   4.602   2.758  13.458  0.0457  0.6224 -0.0859
10418TIP3    H152745   4.690   2.785  13.483  0.6633  1.0146 -2.4320
10418TIP3    H252746   4.556   2.839  13.436 -0.6424  0.3528  0.3101
10419TIP3   OH252747   2.595   5.745   5.203  0.0133  0.8322  0.7285
10419TIP3    H152748   2.545   5.739   5.285 -0.1317 -0.4313  0.5791
10419TIP3    H252749   2.658   5.673   5.209 -0.5719  0.1584 -0.6225
10420TIP3   OH252750   1.203   0.095  11.636  0.2269 -0.0044  0.0161
10420TIP3    H152751   1.234   0.041  11.564  1.5130  3.6679 -2.4665
10420TIP3    H252752   1.171   0.175  11.595 -1.9949  1.0556  3.3765
10421TIP3   OH252753   3.855   0.695   4.109  0.2294 -0.1517  0.3203
10421TIP3    H152754   3.932   0.640   4.100  1.9176  1.8929  1.2145
10421TIP3    H252755   3.825   0.679   4.198  0.8241  0.4384  0.6402
10422TIP3   OH252756   3.072   5.573  13.739 -0.4563  0.7086  0.7473
10422TIP3    H152757   3.028   5.516  13.677 -0.0452  0.7484  0.4151
10422TIP3    H252758   3.085   5.655  13.692 -0.7909  0.9870  1.1280
10423TIP3   OH252759   0.848   3.355   3.169  0.2561  0.5671 -0.1485
10423TIP3    H152760   0.890   3.322   3.248 -0.0021 -2.0238 -0.9885
10423TIP3    H252761   0.913   3.413   3.130  0.2009  2.3139  2.1406
10424TIP3   OH252762   0.764   2.397   3.586 -0.0322  0.4541  0.3544
10424TIP3    H152763   0.676   2.408   3.549 -0.0358  0.8853  0.4834
10424TIP3    H252764   0.754   2.420   3.679 -0.1860 -1.3700  0.8200
10425TIP3   OH252765   4.977   3.838   2.688  0.8373 -0.0604 -0.7841
10425TIP3    H152766   4.889   3.845   2.725  1.2043  0.6506 -0.0186
10425TIP3    H252767   4.979   3.752   2.647  0.6938 -1.2809  1.6335
10426TIP3   OH252768   1.571   1.277   6.514  1.0422 -0.4739 -0.0516
10426TIP3    H152769   1.634   1.225   6.565 -1.4773 -1.2524  2.6016
10426TIP3    H252770   1.495   1.285   6.572 -1.0193  1.0744 -2.7290
10427TIP3   OH252771   4.205   6.645  10.702 -0.7939  0.0927  0.3540
10427TIP3    H152772   4.117   6.631  10.666 -0.7062  0.4385 -0.0033
10427TIP3    H252773   4.239   6.557  10.717 -1.5701 -0.0361  1.4060
10428TIP3   OH252774   3.542   3.084  17.064 -0.3785  0.3898 -0.1980
10428TIP3    H152775   3.480   3.041  17.005 -0.8226  0.6344  0.0834
10428TIP3    H252776   3.538   3.176  17.040 -0.8079  0.5373  0.4337
10429TIP3   OH252777   6.020   4.751   5.837 -0.5626 -0.0202 -0.4343
10429TIP3    H152778   5.957   4.822   5.849  1.0171  1.1705  1.3339
10429TIP3    H252779   6.030   4.713   5.924  1.5918  0.2185 -0.5348
10430TIP3   OH252780   0.654   1.935   5.584 -0.1681 -0.4928 -0.7676
10430TIP3    H152781   0.590   1.864   5.595  0.0004 -0.3183  2.2749
10430TIP3    H252782   0.602   2.013   5.571 -0.5136 -0.6570 -0.3884
10431TIP3   OH252783   2.216   3.011   6.069 -0.1493  0.0365  0.0930
10431TIP3    H152784   2.229   2.987   6.161 -1.1172  1.6505  0.6813
10431TIP3    H252785   2.305   3.017   6.033  0.2041 -1.5563  0.6463
10432TIP3   OH252786   5.058   0.882  16.434  0.5873  0.1933 -0.5615
10432TIP3    H152787   4.975   0.922  16.408  0.8293  0.6735 -0.5921
10432TIP3    H252788   5.045   0.788  16.417  0.1740  0.3077 -0.8983
10433TIP3   OH252789   0.802   4.890  15.714 -0.7425 -0.2574  0.1845
10433TIP3    H152790   0.861   4.867  15.785 -0.7483 -0.8736 -0.0080
10433TIP3    H252791   0.815   4.822  15.648  0.0931  0.9041 -0.9120
10434TIP3   OH252792   2.963   1.212   0.460 -0.2021  0.3382  0.5153
10434TIP3    H152793   3.005   1.131   0.430 -1.3542 -0.2827  0.5286
10434TIP3    H252794   3.000   1.280   0.405 -0.7710 -0.5044 -0.9672
10435TIP3   OH252795   0.925   5.523   3.297 -0.7326  0.2977 -0.7946
10435TIP3    H152796   0.978   5.488   3.369 -2.2414 -1.4552 -0.4432
10435TIP3    H252797   0.909   5.614   3.321  1.2121  0.5811 -0.4207
10436TIP3   OH252798   0.798   6.591  13.287 -0.1786  0.3270 -0.1832
10436TIP3    H152799   0.715   6.567  13.327  0.1542 -1.3523 -0.4184
10436TIP3    H252800   0.860   6.525  13.318  1.0463  1.4537 -0.1309
10437TIP3   OH252801   4.884   1.074  15.644 -0.1990 -0.1692  0.3338
10437TIP3    H152802   4.903   1.017  15.569 -0.4460  0.0072  0.1357
10437TIP3    H252803   4.836   1.017  15.704 -1.9173  0.2344 -0.5696
10438TIP3   OH252804   6.800   2.101  15.271  0.1341 -0.0336 -0.4081
10438TIP3    H152805   6.720   2.060  15.304  0.5198 -1.0667 -0.7224
10438TIP3    H252806   6.769   2.174  15.217 -0.5562  0.3073  0.4018
10439TIP3   OH252807   2.245   0.987   0.388 -0.0401 -0.8086  0.3078
10439TIP3    H152808   2.222   1.027   0.304 -2.6136 -4.3038 -0.8764
10439TIP3    H252809   2.211   1.048   0.453  0.2648  1.0511 -1.1615
10440TIP3   OH252810   0.512   1.577  12.023 -0.2725 -0.4745  0.0568
10440TIP3    H152811   0.598   1.543  11.999  0.1069 -0.8302  1.7891
10440TIP3    H252812   0.454   1.549  11.953  0.9535 -0.5414 -0.9556
10441TIP3   OH252813   1.274   2.121  16.053 -0.1796 -0.2122  0.0715
10441TIP3    H152814   1.223   2.127  16.133 -1.0030 -0.0041 -0.4549
10441TIP3    H252815   1.237   2.188  15.996  0.9739  0.2323 -0.1734
10442TIP3   OH252816   4.411   5.893   1.253 -0.2199  0.2950 -0.0847
10442TIP3    H152817   4.408   5.804   1.288  0.6547 -0.3674 -1.6088
10442TIP3    H252818   4.501   5.922   1.269 -0.5336  0.9719  0.5135
10443TIP3   OH252819   1.326   2.838   6.344 -0.3188 -0.0730  0.4403
10443TIP3    H152820   1.345   2.821   6.436  0.1364  1.1449  0.5899
10443TIP3    H252821   1.411   2.838   6.300 -0.2506  1.8526  0.4883
10444TIP3   OH252822   0.534   4.847  12.511  0.3724 -0.0832  0.5078
10444TIP3    H152823   0.576   4.909  12.571  0.1884  0.2395  0.3042
10444TIP3    H252824   0.468   4.803  12.565 -0.5079  0.9412  0.2981
10445TIP3   OH252825   5.388   4.871  15.320 -0.2039 -0.1276 -0.0597
10445TIP3    H152826   5.410   4.962  15.341  0.0161 -0.2327  0.1780
10445TIP3    H252827   5.293   4.871  15.309 -0.1120  0.2919 -0.8843
10446TIP3   OH252828   2.228   4.474  13.007  0.2418  0.0250  0.1041
10446TIP3    H152829   2.158   4.463  12.943 -0.3569  0.2609  0.7030
10446TIP3    H252830   2.223   4.566  13.032  1.2401  0.2129 -0.3818
10447TIP3   OH252831   5.476   5.560  16.368 -0.2392 -1.0762 -0.5607
10447TIP3    H152832   5.553   5.552  16.424 -0.6282 -1.7995 -0.1008
10447TIP3    H252833   5.502   5.518  16.286 -0.3716 -2.0049 -0.1470
10448TIP3   OH252834   6.661   0.648  13.428  0.1965 -0.2285  0.2849
10448TIP3    H152835   6.660   0.630  13.334  0.8760  0.3231  0.1744
10448TIP3    H252836   6.737   0.704  13.442 -1.1658  1.5849  0.8200
10449TIP3   OH252837   2.656   1.571   3.569  0.1704 -0.5869  0.2839
10449TIP3    H152838   2.646   1.513   3.644 -0.5224  0.0996  0.7281
10449TIP3    H252839   2.570   1.572   3.527 -0.2927  1.3544  1.2030
10450TIP3   OH252840   4.784   0.898   5.051 -0.0682  0.1429  0.3405
10450TIP3    H152841   4.742   0.980   5.027 -1.4624 -0.5453  0.3201
10450TIP3    H252842   4.711   0.837   5.065  0.9160 -0.9737  0.7730
10451TIP3   OH252843   2.282   1.421   1.006 -0.4333  0.1840  0.0947
10451TIP3    H152844   2.299   1.328   1.020 -0.1578  0.3796  1.1839
10451TIP3    H252845   2.260   1.428   0.913  0.6100 -0.8009 -0.2454
10452TIP3   OH252846   2.609   6.696   1.931  0.1862 -0.1494 -0.1177
10452TIP3    H152847   2.668   6.772   1.922 -0.3177  0.4568  1.3810
10452TIP3    H252848   2.600   6.662   1.842  0.5027  1.4963 -0.8127
10453TIP3   OH252849   3.194   5.501  16.745  0.3155  0.0196 -0.2709
10453TIP3    H152850   3.112   5.453  16.752 -0.6288  1.6673  0.6659
10453TIP3    H252851   3.206   5.541  16.831  1.0896  1.3816 -0.9754
10454TIP3   OH252852   2.434   1.473   5.986 -0.3701  0.1698 -1.0292
10454TIP3    H152853   2.519   1.516   5.977 -0.0438 -0.6918 -2.2393
10454TIP3    H252854   2.454   1.391   6.032 -0.3186 -0.6623 -2.4966
10455TIP3   OH252855   3.925   3.292   3.175  0.1869 -0.3359 -0.4266
10455TIP3    H152856   3.940   3.215   3.120  1.5359 -0.0345 -0.5256
10455TIP3    H252857   3.890   3.257   3.257 -0.0599 -0.9637 -0.7952
10456TIP3   OH252858   2.532   4.642   1.271  0.0999  0.2537 -0.0762
10456TIP3    H152859   2.605   4.702   1.255  1.9717 -1.8406  0.0980
10456TIP3    H252860   2.526   4.637   1.367  0.5189 -0.4393 -0.0786
10457TIP3   OH252861   3.110   6.788  16.808 -1.0072  0.0374  0.2984
10457TIP3    H152862   3.057   6.750  16.878  1.1684 -2.7956  0.6186
10457TIP3    H252863   3.160   6.858  16.851 -2.6749  1.1686  0.5026
10458TIP3   OH252864   4.371   3.104  11.272 -0.6247 -0.2175 -0.0593
10458TIP3    H152865   4.346   3.112  11.363 -0.9905 -0.0974 -0.1695
10458TIP3    H252866   4.436   3.173  11.258  0.8165 -1.3797  0.5789
10459TIP3   OH252867   2.113   6.575   4.398 -0.3281  0.3969 -0.2074
10459TIP3    H152868   2.109   6.665   4.431  0.3671  1.1261 -1.9726
10459TIP3    H252869   2.066   6.578   4.315  0.5963 -0.6032 -0.8006
10460TIP3   OH252870   3.941   1.536   6.236  0.0560 -0.1133 -0.6467
10460TIP3    H152871   3.883   1.611   6.250 -1.0552 -1.1579  0.6913
10460TIP3    H252872   3.882   1.461   6.233  1.2813 -1.1302 -0.1220
10461TIP3   OH252873   0.521   3.375   0.173 -0.3290  0.3388  0.4506
10461TIP3    H152874   0.564   3.401   0.255  0.5102  1.3396 -0.2647
10461TIP3    H252875   0.444   3.432   0.167 -0.9319 -0.3994  0.9918
10462TIP3   OH252876   5.721   4.320   2.725 -0.2011 -0.3674  0.2292
10462TIP3    H152877   5.765   4.249   2.771  2.8801  1.7284  0.8508
10462TIP3    H252878   5.700   4.284   2.639  1.3466 -1.9969  0.4890
10463TIP3   OH252879   4.728   4.302  10.599 -0.9948 -0.5921  0.5687
10463TIP3    H152880   4.758   4.225  10.648  0.7686 -1.5306 -1.7619
10463TIP3    H252881   4.809   4.350  10.579 -1.8340  0.6591  0.0840
10464TIP3   OH252882   5.166   1.493  11.233 -0.0016 -0.0428 -0.3028
10464TIP3    H152883   5.151   1.500  11.327 -0.5196 -0.7615 -0.3245
10464TIP3    H252884   5.093   1.539  11.193  0.3893  0.5434 -0.3596
10465TIP3   OH252885   6.420   2.669  13.125  0.1653 -0.3489  0.1993
10465TIP3    H152886   6.454   2.579  13.124  2.2677  0.3806  0.4656
10465TIP3    H252887   6.426   2.698  13.034 -0.9362 -0.5881  0.0324
10466TIP3   OH252888   2.615   0.565   5.335  0.4018 -0.3944  0.2351
10466TIP3    H152889   2.692   0.531   5.289 -0.0828  0.5613 -1.3620
10466TIP3    H252890   2.651   0.625   5.400  1.0213  0.6814 -1.0472
10467TIP3   OH252891   3.710   6.777   0.771 -0.0147  0.2050  0.4442
10467TIP3    H152892   3.756   6.719   0.832  1.4715  1.1037  0.2323
10467TIP3    H252893   3.647   6.824   0.826 -0.9193 -1.2467  0.6972
10468TIP3   OH252894   0.668   6.396   1.073  0.0175 -0.0732  0.2511
10468TIP3    H152895   0.732   6.333   1.106  1.3443  1.1405  0.1067
10468TIP3    H252896   0.616   6.421   1.149  0.8770  0.2318  0.7485
10469TIP3   OH252897   4.732   2.989  16.547 -0.1212 -0.3055  0.2785
10469TIP3    H152898   4.824   2.988  16.522 -0.3472  0.7797 -0.7422
10469TIP3    H252899   4.699   2.903  16.524  0.9060 -1.1711  1.8683
10470TIP3   OH252900   6.210   2.194   4.317 -0.3506  0.7780 -0.5939
10470TIP3    H152901   6.271   2.172   4.388 -0.2839 -0.3619 -0.9862
10470TIP3    H252902   6.266   2.222   4.245 -0.3322  0.5346 -0.6757
10471TIP3   OH252903   4.512   2.703  13.938  0.1350  0.0288 -0.1111
10471TIP3    H152904   4.596   2.678  13.977 -0.8292 -0.6015  1.6647
10471TIP3    H252905   4.495   2.635  13.873  1.1628  0.3800 -0.7808
10472TIP3   OH252906   2.654   5.519  12.934 -0.3121 -0.5285  0.4727
10472TIP3    H152907   2.647   5.438  12.883  0.9802 -0.3920  0.0358
10472TIP3    H252908   2.593   5.579  12.892  0.7841 -0.3923 -0.9911
10473TIP3   OH252909   4.165   5.818  13.764 -0.1150 -0.5179  0.2060
10473TIP3    H152910   4.146   5.726  13.745 -1.9608 -0.0639 -0.3651
10473TIP3    H252911   4.136   5.831  13.854 -2.5485  0.1148 -0.5865
10474TIP3   OH252912   2.372   1.615  15.085  0.5560  0.0686  0.1993
10474TIP3    H152913   2.430   1.555  15.132 -0.1228 -1.1841 -0.5003
10474TIP3    H252914   2.329   1.560  15.019  0.5989  1.5328 -1.0978
10475TIP3   OH252915   0.714   4.069  17.272  0.2272  0.5240  0.1718
10475TIP3    H152916   0.716   4.102  17.362  0.6609  1.2540 -0.0907
10475TIP3    H252917   0.654   4.128  17.227 -1.0761 -0.6747  0.2761
10476TIP3   OH252918   2.131   1.974   3.181  0.1429 -0.4519 -0.1313
10476TIP3    H152919   2.154   2.060   3.216 -2.2005  0.0335  0.3768
10476TIP3    H252920   2.051   1.989   3.130 -1.6055 -2.6252  1.7432
10477TIP3   OH252921   2.815   0.153   2.370 -0.2046  0.0273  0.4867
10477TIP3    H152922   2.770   0.120   2.448  1.5470 -2.0467  0.7183
10477TIP3    H252923   2.776   0.104   2.298 -1.4628  1.5751  0.0622
10478TIP3   OH252924   3.377   3.624  16.570 -0.5564  0.1612  0.1621
10478TIP3    H152925   3.413   3.696  16.623 -0.2875  0.5657 -0.5492
10478TIP3    H252926   3.332   3.668  16.497 -1.3732 -0.3725  0.3259
10479TIP3   OH252927   6.751   5.119   0.924 -0.1902  0.0378 -0.2312
10479TIP3    H152928   6.722   5.118   0.833  0.5474  1.6756 -0.5268
10479TIP3    H252929   6.847   5.118   0.919 -0.0087  3.3452  0.3277
10480TIP3   OH252930   3.545   2.542   3.897  0.3343 -0.2870  0.2459
10480TIP3    H152931   3.477   2.483   3.929  0.6502 -0.5901  0.3749
10480TIP3    H252932   3.549   2.612   3.963 -2.2883  1.6848 -1.5204
10481TIP3   OH252933   5.938   6.535   1.155  0.4924 -0.0522  0.5383
10481TIP3    H152934   6.009   6.471   1.152  0.7822  0.3023 -0.8199
10481TIP3    H252935   5.925   6.560   1.063 -0.5394  0.8192  0.9101
10482TIP3   OH252936   5.843   4.505   0.422 -0.5341 -0.5458  0.6516
10482TIP3    H152937   5.760   4.516   0.375 -0.0637 -0.3530 -0.1494
10482TIP3    H252938   5.887   4.589   0.413 -0.5844 -0.3828  1.7595
10483TIP3   OH252939   6.109   2.666  16.656 -0.2823  0.1949 -0.6926
10483TIP3    H152940   6.069   2.751  16.634  0.3083  0.8556  0.6676
10483TIP3    H252941   6.203   2.680  16.646 -0.0410  0.2892  1.2861
10484TIP3   OH252942   0.258   2.077   4.600 -0.3826 -0.0059  0.2039
10484TIP3    H152943   0.176   2.122   4.580 -0.5416 -0.2346  0.3390
10484TIP3    H252944   0.284   2.112   4.685 -0.5548 -0.2308  0.3530
10485TIP3   OH252945   5.015   2.504   1.609 -0.1755  0.0622 -0.4235
10485TIP3    H152946   5.004   2.528   1.701  2.4472 -1.6427  0.4429
10485TIP3    H252947   5.092   2.553   1.580 -0.6565  0.1767 -1.5731
10486TIP3   OH252948   5.415   4.536   3.132  0.4312 -0.3591 -0.0352
10486TIP3    H152949   5.379   4.575   3.211  1.9766  0.2054  0.4380
10486TIP3    H252950   5.429   4.444   3.155  1.0467 -0.1568  0.4327
10487TIP3   OH252951   1.061   0.186  12.680 -0.2510 -0.4119  0.7525
10487TIP3    H152952   1.070   0.120  12.612  2.5212  0.3345  0.2469
10487TIP3    H252953   1.054   0.269  12.632 -1.4795 -0.1357  1.3803
10488TIP3   OH252954   5.162   5.990   3.375 -0.1058 -0.0268  0.8535
10488TIP3    H152955   5.089   5.957   3.426  0.0932  0.0762  1.2064
10488TIP3    H252956   5.235   5.996   3.437 -0.0177  0.6394  0.7020
10489TIP3   OH252957   0.047   4.209  13.163  0.0213  0.2010 -0.3282
10489TIP3    H152958   0.005   4.238  13.244  0.7768  1.4810 -0.3611
10489TIP3    H252959  -0.024   4.207  13.098 -0.4113  0.0668  0.1481
10490TIP3   OH252960   5.280   1.731   4.099  0.0678 -0.0270 -0.1606
10490TIP3    H152961   5.205   1.756   4.045  0.5715 -0.2874 -0.9942
10490TIP3    H252962   5.356   1.756   4.047  0.5635  0.3948  0.7531
10491TIP3   OH252963   4.525   4.582  15.448  0.2261  0.0930 -0.0493
10491TIP3    H152964   4.548   4.675  15.443  1.1880 -0.1739 -0.7953
10491TIP3    H252965   4.430   4.581  15.433  0.1424  0.9780  0.3425
10492TIP3   OH252966   0.537   5.307   5.482 -0.6152  0.0009 -0.1149
10492TIP3    H152967   0.533   5.391   5.437  0.3051  0.0900 -0.0473
10492TIP3    H252968   0.462   5.308   5.542 -1.0866  0.4226 -0.6974
10493TIP3   OH252969   4.083   4.773   2.756  0.2487 -0.0724 -0.4902
10493TIP3    H152970   4.132   4.804   2.833  2.2214 -1.3721 -1.1629
10493TIP3    H252971   4.115   4.827   2.684 -0.3763  0.0216 -0.7048
10494TIP3   OH252972   0.643   2.466   0.641  0.0961  0.3386  0.3823
10494TIP3    H152973   0.676   2.377   0.626  0.0097 -0.1255  2.5961
10494TIP3    H252974   0.550   2.461   0.619  0.2681  0.1355 -0.3427
10495TIP3   OH252975   4.292   2.166   2.710  0.1480  0.0061 -0.0789
10495TIP3    H152976   4.290   2.135   2.800 -0.6396 -2.7798 -0.9711
10495TIP3    H252977   4.385   2.184   2.693  0.2421  1.0651  1.3964
10496TIP3   OH252978   4.011   6.229  12.169 -0.3958 -0.3848 -0.0500
10496TIP3    H152979   3.983   6.259  12.082 -0.5552  2.3331  0.8375
10496TIP3    H252980   4.047   6.307  12.211  2.2833 -2.2141  1.3800
10497TIP3   OH252981   2.511   5.150  16.845 -0.2314 -0.1583 -0.2640
10497TIP3    H152982   2.599   5.172  16.814 -0.3062  1.3135  0.4980
10497TIP3    H252983   2.511   5.055  16.853  1.5873 -0.1211  0.5522
10498TIP3   OH252984   5.394   0.375   1.000  0.3361 -0.4248  0.1103
10498TIP3    H152985   5.339   0.301   1.024 -1.9138  1.2589  0.4696
10498TIP3    H252986   5.384   0.383   0.905  3.1871 -2.4355 -0.5101
10499TIP3   OH252987   3.206   3.312  12.792 -0.1596 -0.4200  0.6348
10499TIP3    H152988   3.210   3.325  12.698  0.6263 -0.5452  0.6484
10499TIP3    H252989   3.283   3.260  12.813  0.6260  1.0603  1.5834
10500TIP3   OH252990   0.389   0.366  13.223 -0.2421  0.3369 -0.0935
10500TIP3    H152991   0.365   0.400  13.309  1.6450  0.8041  0.2994
10500TIP3    H252992   0.306   0.336  13.185 -1.0037 -0.9714  2.3329
10501TIP3   OH252993   2.496   3.117   2.721 -0.4331  0.0444  0.0241
10501TIP3    H152994   2.530   3.041   2.673  1.2706  0.5284  0.3767
10501TIP3    H252995   2.468   3.177   2.653  2.4609  0.9563 -0.5292
10502TIP3   OH252996   0.856   6.481   0.145  0.2401  0.3676  0.8882
10502TIP3    H152997   0.939   6.444   0.174  0.7035  0.4273 -0.3087
10502TIP3    H252998   0.831   6.430   0.068 -0.0550  1.3093  0.3290
10503TIP3   OH252999   0.510   6.054  17.125  0.1916  0.3931 -0.0234
10503TIP3    H153000   0.509   6.059  17.220 -1.3520  0.7901 -0.0330
10503TIP3    H253001   0.602   6.062  17.101  0.3831  3.6849  1.2759
10504TIP3   OH253002   0.394   1.124   3.408  0.2450  0.0491 -0.7612
10504TIP3    H153003   0.363   1.214   3.399  1.5047  0.4712 -1.1172
10504TIP3    H253004   0.340   1.074   3.347 -0.6767  0.4953 -0.3365
10505TIP3   OH253005   1.716   0.165  14.646  0.1733 -0.1803  0.3143
10505TIP3    H153006   1.751   0.077  14.628  2.1937  0.7371 -0.6285
10505TIP3    H253007   1.672   0.190  14.565 -0.7497 -0.4493  0.7204
10506TIP3   OH253008   1.152   3.182  16.798 -0.4845  0.3664  0.0578
10506TIP3    H153009   1.174   3.172  16.891  1.6237  0.3633 -0.3879
10506TIP3    H253010   1.130   3.093  16.769  1.4206 -0.1208 -0.0056
10507TIP3   OH253011   5.248   0.149  11.782 -0.2307  0.1092  0.3089
10507TIP3    H153012   5.264   0.129  11.690 -0.0294 -0.4923  0.4703
10507TIP3    H253013   5.164   0.109  11.801 -0.2920  0.2686  0.3767
10508TIP3   OH253014   2.861   4.719  16.576 -0.7258  0.4813  0.0706
10508TIP3    H153015   2.901   4.750  16.657 -0.3936  1.1829 -0.3453
10508TIP3    H253016   2.788   4.779  16.561 -1.3130 -0.1741  0.2957
10509TIP3   OH253017   0.344   3.740   0.457  0.1631 -0.4067 -0.1468
10509TIP3    H153018   0.393   3.810   0.414 -0.3782 -0.7309 -1.3374
10509TIP3    H253019   0.403   3.665   0.458  0.3463 -0.2599  0.1159
10510TIP3   OH253020   3.320   6.126   0.350 -0.0128  0.4871 -0.1519
10510TIP3    H153021   3.314   6.221   0.346  0.8138  0.5093 -2.2209
10510TIP3    H253022   3.400   6.105   0.302  0.6317 -1.1891  1.5556
10511TIP3   OH253023   1.701   5.125  15.260  0.2527 -0.4056  0.4807
10511TIP3    H153024   1.639   5.061  15.293 -0.4969 -0.2122 -0.4934
10511TIP3    H253025   1.646   5.191  15.216  1.1616 -0.4841 -0.8260
10512TIP3   OH253026   4.213   0.678  15.751 -0.4081  0.2968 -0.0761
10512TIP3    H153027   4.269   0.687  15.828 -0.2825 -2.4212  0.2562
10512TIP3    H253028   4.268   0.631  15.688 -1.7469 -0.9634 -0.3578
10513TIP3   OH253029   3.978   5.110  14.034 -0.0348 -0.1183 -0.2724
10513TIP3    H153030   3.969   5.190  14.086  2.4395  0.0869 -0.0051
10513TIP3    H253031   3.997   5.042  14.099 -1.8086 -0.9100 -0.5273
10514TIP3   OH253032   3.192   3.270  15.166  0.0930 -0.9108 -0.1239
10514TIP3    H153033   3.223   3.181  15.149  1.8568 -0.2043 -0.8594
10514TIP3    H253034   3.187   3.311  15.080 -0.0508 -0.0882  0.2649
10515TIP3   OH253035   2.685   5.084   1.101 -0.0008  0.0272  0.1283
10515TIP3    H153036   2.738   5.009   1.073  0.2077  0.0886  0.3453
10515TIP3    H253037   2.728   5.114   1.182 -0.6400 -0.2052  0.5546
10516TIP3   OH253038   3.434   6.765   4.877  0.2570 -0.0556 -0.3109
10516TIP3    H153039   3.406   6.852   4.905  0.0169 -0.2450  0.0618
10516TIP3    H253040   3.417   6.762   4.783 -1.4735 -0.3248 -0.0314
10517TIP3   OH253041   3.573   6.384  14.770 -0.5967 -0.1381  0.6573
10517TIP3    H153042   3.514   6.322  14.814 -2.6073  2.0888  1.2924
10517TIP3    H253043   3.550   6.469  14.806  2.1961  1.0203 -0.0642
10518TIP3   OH253044   1.555   5.845   6.081 -0.0905  0.7351 -0.3902
10518TIP3    H153045   1.518   5.759   6.061 -0.4594  0.7776  0.0835
10518TIP3    H253046   1.513   5.905   6.019 -0.4032  0.6911 -0.2255
10519TIP3   OH253047   1.969   6.540  17.223 -0.1147  0.3336  0.8404
10519TIP3    H153048   2.054   6.526  17.264  0.5928 -0.6870 -0.8573
10519TIP3    H253049   1.963   6.471  17.157 -2.3181  0.3279  0.9873
10520TIP3   OH253050   3.502   5.857   2.254  0.1920 -0.1674 -0.1608
10520TIP3    H153051   3.409   5.849   2.276  0.0395  1.4533 -0.1283
10520TIP3    H253052   3.528   5.768   2.228 -1.2595 -0.7254  0.2027
10521TIP3   OH253053   0.484   2.055   1.532 -0.3658 -0.5406  0.4215
10521TIP3    H153054   0.537   2.046   1.612  1.5569  0.0522 -0.7193
10521TIP3    H253055   0.455   2.147   1.533 -0.8267 -0.6835  0.6985
10522TIP3   OH253056   4.254   2.100  10.745  0.0824 -0.1763 -0.1702
10522TIP3    H153057   4.248   2.010  10.713  0.2693  0.3391 -1.7467
10522TIP3    H253058   4.347   2.115  10.759  0.1765  0.1535 -1.1063
10523TIP3   OH253059   0.210   3.205  12.067 -0.1432  0.2228  0.9202
10523TIP3    H153060   0.282   3.204  12.129 -0.1447  0.1056  0.9218
10523TIP3    H253061   0.131   3.207  12.121 -0.1875 -1.3164  0.9749
10524TIP3   OH253062   3.332   6.223   2.869  0.4437  0.2913  0.0995
10524TIP3    H153063   3.404   6.285   2.881 -1.1369  2.3581 -0.4907
10524TIP3    H253064   3.347   6.185   2.783  0.5249  1.1695 -0.2880
10525TIP3   OH253065   3.907   6.608   1.779 -0.0053  0.1004 -0.0197
10525TIP3    H153066   3.970   6.636   1.713 -0.2672 -1.7543 -1.1132
10525TIP3    H253067   3.832   6.666   1.765 -0.6631 -1.2013 -2.4284
10526TIP3   OH253068   2.417   0.898   2.419  0.4599 -0.4250 -0.1181
10526TIP3    H153069   2.361   0.955   2.472  1.7236 -0.1094  0.9302
10526TIP3    H253070   2.377   0.811   2.427  0.7210 -0.4173  1.5101
10527TIP3   OH253071   4.216   3.553  13.945  0.6673 -0.8683 -0.2210
10527TIP3    H153072   4.121   3.559  13.939  0.7713  0.1828 -1.4486
10527TIP3    H253073   4.235   3.460  13.937 -0.2070 -0.9677 -1.5201
10528TIP3   OH253074   4.618   1.444   1.486  0.6371  0.4214  0.2174
10528TIP3    H153075   4.582   1.357   1.470  1.3824  0.3417 -1.1706
10528TIP3    H253076   4.709   1.427   1.510  1.3532  0.8909 -2.0349
10529TIP3   OH253077   1.592   1.299   1.800 -0.3664  0.3441 -0.5043
10529TIP3    H153078   1.668   1.277   1.746  0.9559 -1.1208  1.7795
10529TIP3    H253079   1.580   1.393   1.787  2.2486  0.7549 -0.4919
10530TIP3   OH253080   5.152   5.120   3.805 -0.0660  0.0087  0.4827
10530TIP3    H153081   5.131   5.038   3.761 -0.5961 -0.0920  0.9062
10530TIP3    H253082   5.142   5.187   3.737  3.6164 -0.5454 -0.7873
10531TIP3   OH253083   5.209   1.744   0.882  0.2179 -0.2797 -0.8891
10531TIP3    H153084   5.139   1.768   0.942  0.0775  0.7436 -1.4308
10531TIP3    H253085   5.190   1.654   0.857 -1.2176  0.1573 -1.4442
10532TIP3   OH253086   0.548   6.389  15.548 -0.7889  0.0440 -0.1839
10532TIP3    H153087   0.513   6.437  15.623 -0.7315 -1.0671  0.5667
10532TIP3    H253088   0.635   6.361  15.576 -1.5112 -2.0587  0.0956
10533TIP3   OH253089   1.075   4.521  15.661 -0.1802  0.5642 -0.4702
10533TIP3    H153090   1.052   4.555  15.748 -2.4490  0.5536 -0.9976
10533TIP3    H253091   1.121   4.439  15.680 -0.4587  0.6574  0.7503
10534TIP3   OH253092   4.272   3.474  11.301  0.2171  0.2397 -0.4458
10534TIP3    H153093   4.229   3.486  11.216  0.5953 -0.0877 -0.6839
10534TIP3    H253094   4.249   3.386  11.328  0.6368  0.1051 -0.5176
10535TIP3   OH253095   1.334   0.567  14.170 -0.2099  0.0900  0.0995
10535TIP3    H153096   1.320   0.603  14.082  1.6887 -0.3619 -0.4341
10535TIP3    H253097   1.339   0.644  14.227 -1.4171  0.3873 -0.1641
10536TIP3   OH253098   4.848   0.826  13.616  0.0730 -0.4533  0.2634
10536TIP3    H153099   4.883   0.912  13.638 -1.2665 -0.1327  1.2566
10536TIP3    H253100   4.914   0.764  13.648  0.0677  0.1498  1.5029
10537TIP3   OH253101   5.928   4.321   1.087  0.1397  0.2671 -0.1824
10537TIP3    H153102   5.860   4.310   1.154 -0.7334  2.6788 -0.5681
10537TIP3    H253103   5.968   4.406   1.107  2.0945 -0.4387 -0.8456
10538TIP3   OH253104   1.633   0.336   5.115  0.3284  0.1297 -0.2163
10538TIP3    H153105   1.691   0.333   5.039  0.9994  1.7785  0.1796
10538TIP3    H253106   1.573   0.408   5.098  0.9349  0.9875  1.0856
10539TIP3   OH253107   6.724   0.338  14.304 -0.0347 -0.5649 -0.6414
10539TIP3    H153108   6.758   0.266  14.357  0.5074 -0.0970 -0.3408
10539TIP3    H253109   6.656   0.298  14.251 -1.7092 -0.7430  1.5045
10540TIP3   OH253110   2.386   4.034  10.506 -0.2714  0.0640  0.9553
10540TIP3    H153111   2.312   4.092  10.488  2.0028  3.0583  0.3083
10540TIP3    H253112   2.404   4.047  10.599  1.4009  2.1079  0.4365
10541TIP3   OH253113   4.552   4.768   3.981  0.2281 -0.2143  0.1828
10541TIP3    H153114   4.561   4.859   3.951  0.2247 -0.6121 -1.0704
10541TIP3    H253115   4.465   4.765   4.020  0.3071  0.3705  0.4192
10542TIP3   OH253116   3.866   1.193  10.612 -0.0691  0.3242 -0.2910
10542TIP3    H153117   3.844   1.145  10.691  0.2281 -0.7787 -0.8673
10542TIP3    H253118   3.877   1.126  10.545  0.1493  1.2074 -1.1627
10543TIP3   OH253119   2.861   2.736  14.282 -0.2054  0.2411 -0.7353
10543TIP3    H153120   2.769   2.762  14.281 -0.1900  0.3063 -1.3230
10543TIP3    H253121   2.861   2.647  14.315 -0.1049  1.4616  2.9498
10544TIP3   OH253122   6.100   6.244  10.429  0.0271 -0.2601 -0.4075
10544TIP3    H153123   6.152   6.178  10.382 -1.7387 -0.6523 -1.9330
10544TIP3    H253124   6.138   6.246  10.517  2.0083 -1.1660 -1.1753
10545TIP3   OH253125   3.209   2.396   6.446 -0.0886  0.4416 -0.3918
10545TIP3    H153126   3.304   2.391   6.435 -0.1434 -0.1681 -0.5906
10545TIP3    H253127   3.183   2.468   6.389  0.1332 -0.0635 -1.1482
10546TIP3   OH253128   2.624   1.908   0.948  0.0137  0.7630  0.7197
10546TIP3    H153129   2.650   1.995   0.977  0.8447  0.7505  0.0197
10546TIP3    H253130   2.694   1.879   0.891 -1.5234  0.7279 -1.2486
10547TIP3   OH253131   2.573   3.107  12.961  0.4078 -0.4487 -0.0701
10547TIP3    H153132   2.568   3.070  12.873 -1.4072  1.3285 -0.7978
10547TIP3    H253133   2.640   3.175  12.955 -0.6222  0.5650 -0.4928
10548TIP3   OH253134   3.563   1.085   6.304  0.2851  0.0898 -0.1723
10548TIP3    H153135   3.618   1.152   6.263  1.7170 -0.0731  1.3389
10548TIP3    H253136   3.581   1.094   6.397 -0.7017 -1.3695  0.1908
10549TIP3   OH253137   2.254   3.184  14.936 -0.3396  0.0438 -0.6789
10549TIP3    H153138   2.303   3.264  14.917  0.1063 -0.2555 -0.8056
10549TIP3    H253139   2.181   3.186  14.875  1.1606 -0.9866 -2.6211
10550TIP3   OH253140   5.861   5.991  11.903 -0.0766 -0.1885 -0.1550
10550TIP3    H153141   5.949   5.970  11.933 -0.1756 -1.8695 -0.9496
10550TIP3    H253142   5.804   5.969  11.977  0.0875  0.0916  0.0555
10551TIP3   OH253143   3.567   3.270  13.906 -0.2229  0.0621  0.4852
10551TIP3    H153144   3.653   3.308  13.923  0.0238  0.9492 -2.2758
10551TIP3    H253145   3.586   3.190  13.857 -0.9333  0.0772  0.1748
10552TIP3   OH253146   3.950   5.680   5.558  0.2385  0.9158 -0.0166
10552TIP3    H153147   3.947   5.775   5.553 -1.0016  0.9658  1.2755
10552TIP3    H253148   3.946   5.660   5.651 -0.0373 -0.4193 -0.2924
10553TIP3   OH253149   6.594   4.663   1.152 -0.7023  0.3106 -0.1363
10553TIP3    H153150   6.626   4.689   1.239 -0.3929 -0.0774 -0.1282
10553TIP3    H253151   6.611   4.739   1.096 -0.0888  0.2414 -0.0517
10554TIP3   OH253152   2.464   0.099   4.306 -0.0308 -0.2710  0.0637
10554TIP3    H153153   2.556   0.105   4.280  0.3748 -2.9388  0.5970
10554TIP3    H253154   2.415   0.101   4.224  0.5322  0.5893 -0.2573
10555TIP3   OH253155   6.809   1.066   2.245  0.1266 -0.4019  0.7190
10555TIP3    H153156   6.730   1.012   2.254  0.4922 -1.0053  0.3694
10555TIP3    H253157   6.879   1.003   2.230  0.6041  0.1609  0.5782
10556TIP3   OH253158   3.340   0.696  15.230  0.2671  0.6382 -0.2991
10556TIP3    H153159   3.376   0.724  15.314 -0.6136  0.7352  0.0535
10556TIP3    H253160   3.347   0.601  15.230 -0.2825  0.5938  0.1460
10557TIP3   OH253161   3.009   0.052  15.034  0.1398 -0.4705  0.0368
10557TIP3    H153162   2.920   0.089  15.031 -0.3459 -1.2265  2.5209
10557TIP3    H253163   2.997  -0.041  15.015  0.2368 -0.7332  1.1692
10558TIP3   OH253164   3.211   1.123  10.431  0.0557  0.1311  0.1131
10558TIP3    H153165   3.261   1.204  10.439  0.7758 -0.2767 -0.1394
10558TIP3    H253166   3.252   1.077  10.357  1.4107 -1.6864  1.8783
10559TIP3   OH253167   2.423   6.634  15.045 -0.0218  0.2924 -0.1350
10559TIP3    H153168   2.429   6.729  15.057 -1.9309  0.6428 -1.5117
10559TIP3    H253169   2.443   6.620  14.953 -0.5450 -0.5571 -0.1253
10560TIP3   OH253170   2.812   6.308  12.286 -0.3417  0.3102 -0.3191
10560TIP3    H153171   2.831   6.234  12.343 -0.8285 -0.2411 -0.8548
10560TIP3    H253172   2.894   6.325  12.240 -0.0040  0.6311  0.3915
10561TIP3   OH253173   6.589   3.915  12.366 -0.3538 -0.0781 -0.1842
10561TIP3    H153174   6.510   3.962  12.393 -0.8909 -0.1140 -1.6281
10561TIP3    H253175   6.653   3.983  12.349 -0.4658  0.0121 -0.2402
10562TIP3   OH253176   3.316   1.632  14.201 -0.4294 -0.1207  0.6491
10562TIP3    H153177   3.245   1.691  14.176 -0.3878  0.4086  1.7017
10562TIP3    H253178   3.375   1.687  14.254 -0.0225 -0.9306  1.0555
10563TIP3   OH253179   0.462   1.616   5.296  0.6833 -0.0737 -0.2286
10563TIP3    H153180   0.522   1.690   5.307  0.1306  0.4473 -0.6392
10563TIP3    H253181   0.484   1.580   5.210 -0.0964  0.6156 -0.7443
10564TIP3   OH253182   4.214   5.371   3.619  0.1598  0.3405  0.0383
10564TIP3    H153183   4.155   5.297   3.635  0.8583 -0.5529 -1.2568
10564TIP3    H253184   4.232   5.366   3.525  1.3883  1.2767  0.2016
10565TIP3   OH253185   6.418   3.090   0.651 -0.1964 -0.4505  0.0125
10565TIP3    H153186   6.461   3.013   0.615  0.3448 -0.3225  0.3667
10565TIP3    H253187   6.486   3.133   0.703 -0.4617  0.3230 -0.2724
10566TIP3   OH253188   6.691   2.998   3.652 -0.3902  0.0259 -0.0426
10566TIP3    H153189   6.629   3.070   3.642 -4.8601 -3.6190 -2.5537
10566TIP3    H253190   6.679   2.968   3.742 -1.0024  0.3638 -0.0093
10567TIP3   OH253191   1.731   6.380  13.312 -0.4810  0.0803 -0.2348
10567TIP3    H153192   1.711   6.407  13.222 -0.5540  1.3814  0.1462
10567TIP3    H253193   1.795   6.309  13.302 -1.2976 -0.5405 -1.3323
10568TIP3   OH253194   1.812   2.083  14.330  0.0651 -0.1258  0.3328
10568TIP3    H153195   1.749   2.013  14.316 -0.6730  0.5677  0.1214
10568TIP3    H253196   1.790   2.118  14.416  1.0205 -0.7385  0.8449
10569TIP3   OH253197   3.430   2.958  13.515 -0.3422  0.3767  0.2912
10569TIP3    H153198   3.421   3.034  13.457 -1.7187 -1.6155 -2.3880
10569TIP3    H253199   3.492   2.901  13.470  1.3325  0.2130  2.6721
10570TIP3   OH253200   6.393   2.966  14.373  0.0920 -0.2446 -0.0701
10570TIP3    H153201   6.316   2.909  14.372 -0.5462  0.5908  0.5619
10570TIP3    H253202   6.368   3.042  14.321  0.5037  0.0107  0.0993
10571TIP3   OH253203   5.098   4.763  11.117 -0.3849 -0.2737 -0.7205
10571TIP3    H153204   5.074   4.706  11.043  0.1368  1.4137 -2.2693
10571TIP3    H253205   5.014   4.797  11.148 -0.5512 -0.3277 -1.0961
10572TIP3   OH253206   0.819   4.180   3.031 -0.0553  0.3416 -0.1131
10572TIP3    H153207   0.897   4.136   3.063  0.3719 -0.4023 -2.0552
10572TIP3    H253208   0.783   4.225   3.108  2.4767  1.0428  0.7476
10573TIP3   OH253209   3.159   1.277  11.287  0.7742 -0.5230 -0.4129
10573TIP3    H153210   3.091   1.223  11.248  1.9197 -1.6938 -0.8843
10573TIP3    H253211   3.134   1.286  11.379  0.1721 -1.2304 -0.4996
10574TIP3   OH253212   6.072   6.798  13.121  0.3442  0.1599  0.0223
10574TIP3    H153213   6.132   6.786  13.195  0.8692 -1.4498 -0.6120
10574TIP3    H253214   5.991   6.755  13.149 -0.2238  1.5136  0.5121
10575TIP3   OH253215   1.744   6.162   0.415 -0.2699 -0.0205 -0.3045
10575TIP3    H153216   1.792   6.193   0.338 -0.2014  0.8712  0.0959
10575TIP3    H253217   1.739   6.067   0.402  0.3460  0.0354 -1.0627
10576TIP3   OH253218   2.429   4.706  15.635  1.1595 -0.3136  0.4089
10576TIP3    H153219   2.460   4.672  15.550  1.6467  2.3245 -0.5506
10576TIP3    H253220   2.502   4.758  15.668  0.8677 -1.0554  2.3673
10577TIP3   OH253221   0.842   4.584  11.499 -0.3749  0.6870  0.2263
10577TIP3    H153222   0.803   4.504  11.535 -0.1974 -0.0219 -1.0770
10577TIP3    H253223   0.778   4.614  11.434 -0.3261  1.4790  0.5332
10578TIP3   OH253224   1.472   3.993   4.375 -0.4809  0.2556  0.0973
10578TIP3    H153225   1.551   4.047   4.367 -0.7477  0.4357 -1.6600
10578TIP3    H253226   1.505   3.904   4.381 -0.0483  0.4920  2.6848
10579TIP3   OH253227   1.726   4.803  12.233  0.0143  0.0098 -0.0228
10579TIP3    H153228   1.741   4.724  12.285  0.5116 -0.2188 -0.5155
10579TIP3    H253229   1.705   4.770  12.145  1.9259  0.4457 -0.6775
10580TIP3   OH253230   0.842   0.971  12.505 -0.1111  0.4081 -0.2572
10580TIP3    H153231   0.874   1.031  12.438 -1.0037  0.6186 -0.5035
10580TIP3    H253232   0.922   0.933  12.542  0.4440  1.2604 -0.5322
10581TIP3   OH253233   1.872   1.278   0.431  0.5079 -0.4157  0.5672
10581TIP3    H153234   1.779   1.257   0.442  0.3006 -0.0965 -0.4578
10581TIP3    H253235   1.891   1.256   0.340  1.7847 -1.7095  1.1221
10582TIP3   OH253236   3.916   1.957  12.157  0.1410  0.4857 -0.7947
10582TIP3    H153237   3.873   1.892  12.101  1.7525 -1.3841  0.0119
10582TIP3    H253238   3.995   1.913  12.189 -0.5217  1.5541  2.7095
10583TIP3   OH253239   0.318   1.749  11.149  0.1739  0.1193 -0.4476
10583TIP3    H153240   0.307   1.668  11.101 -1.7978  0.5272 -0.7732
10583TIP3    H253241   0.403   1.783  11.120  1.7811 -2.4952  0.8290
10584TIP3   OH253242   5.197   5.943   5.529  0.7446 -0.0294 -0.3451
10584TIP3    H153243   5.218   5.919   5.619  0.8790 -1.3459 -0.7185
10584TIP3    H253244   5.103   5.924   5.520  0.3859  1.4592 -0.0771
10585TIP3   OH253245   6.343   6.219  15.491 -0.7340  0.0138 -0.1809
10585TIP3    H153246   6.351   6.215  15.586 -2.7050  0.1220  0.0273
10585TIP3    H253247   6.266   6.274  15.475 -1.4430 -1.3595 -1.7857
10586TIP3   OH253248   3.901   2.373  11.506  0.3030  0.4793 -0.0463
10586TIP3    H153249   3.959   2.404  11.437 -0.2937 -0.5104 -1.0220
10586TIP3    H253250   3.933   2.285  11.526  1.5505  1.3623  2.1932
10587TIP3   OH253251   5.150   2.940   4.932  0.2641  0.2244 -0.1528
10587TIP3    H153252   5.153   2.861   4.878 -0.8068 -0.5030  0.8143
10587TIP3    H253253   5.200   3.005   4.882  1.0128 -1.0018 -1.0398
10588TIP3   OH253254   4.333   5.629   5.645 -0.5209 -0.3282 -0.5482
10588TIP3    H153255   4.362   5.706   5.693 -1.8693 -0.2470  0.1798
10588TIP3    H253256   4.345   5.556   5.706 -0.9066 -0.4347 -0.5956
10589TIP3   OH253257   4.463   3.139   2.466 -0.1623  0.8582 -0.5696
10589TIP3    H153258   4.484   3.063   2.412  0.1325  1.9047 -1.9913
10589TIP3    H253259   4.544   3.190   2.469 -0.0203  0.6038  1.3066
10590TIP3   OH253260   6.574   6.276   5.244 -0.2627  0.1614 -0.1165
10590TIP3    H153261   6.637   6.206   5.227  0.2974  0.8575 -0.9820
10590TIP3    H253262   6.620   6.356   5.221 -1.3728  0.7094 -0.5255
10591TIP3   OH253263   2.744   5.941  16.430 -0.1546 -0.1695  0.0344
10591TIP3    H153264   2.651   5.960  16.431 -0.3179 -0.9380  1.0631
10591TIP3    H253265   2.749   5.851  16.395  0.2943  0.2479 -1.0299
10592TIP3   OH253266   0.850   2.383  11.408  0.2207 -0.1693 -0.1862
10592TIP3    H153267   0.821   2.323  11.340 -0.6273  0.4498 -0.3823
10592TIP3    H253268   0.811   2.467  11.384  3.0934  1.0251 -1.1345
10593TIP3   OH253269   0.514   2.705   2.566 -0.1511  0.2915  0.5595
10593TIP3    H153270   0.479   2.669   2.484 -0.7441  0.2226  0.8390
10593TIP3    H253271   0.578   2.771   2.537  0.5045 -0.5557  0.0492
10594TIP3   OH253272   4.670   5.072   1.373  0.6998  0.1230 -0.2307
10594TIP3    H153273   4.620   5.105   1.298  0.2137 -0.2258 -0.0618
10594TIP3    H253274   4.696   5.151   1.420  0.8866  0.3375 -0.6876
10595TIP3   OH253275   2.127   2.796  13.844  0.7634  0.0996 -0.4942
10595TIP3    H153276   2.114   2.755  13.929  0.4267  0.6304 -0.2783
10595TIP3    H253277   2.102   2.888  13.858  0.5115  0.1483 -1.2107
10596TIP3   OH253278   6.801   2.791  15.550 -0.5769 -0.2218  0.4527
10596TIP3    H153279   6.864   2.753  15.488 -0.6149 -0.4800  0.5713
10596TIP3    H253280   6.839   2.876  15.573 -1.0736  0.3434 -0.7197
10597TIP3   OH253281   1.125   5.313  16.167  0.0319  0.1383 -0.3524
10597TIP3    H153282   1.107   5.381  16.232  0.5875  1.3798 -1.4655
10597TIP3    H253283   1.095   5.232  16.209 -1.9288  1.2145  0.4734
10598TIP3   OH253284   1.458   3.977   4.644  0.6213 -0.5335  0.8969
10598TIP3    H153285   1.438   3.967   4.551  0.9989  0.1357  0.7392
10598TIP3    H253286   1.416   3.901   4.685 -0.7849 -0.0650  0.3803
10599TIP3   OH253287   3.155   0.588   4.569  0.7354 -0.1013 -0.1767
10599TIP3    H153288   3.238   0.545   4.548  0.8658  0.8088 -1.6896
10599TIP3    H253289   3.122   0.540   4.645  1.7365 -1.6774 -0.6743
10600TIP3   OH253290   4.798   4.610   2.224  0.2807 -0.2254  0.4707
10600TIP3    H153291   4.704   4.625   2.233  0.1415 -0.5492 -0.3604
10600TIP3    H253292   4.826   4.670   2.155  0.8369  0.3968  1.2080
10601TIP3   OH253293   3.751   2.014   6.004  0.0783  0.0669  0.1523
10601TIP3    H153294   3.690   2.043   6.071  1.1618  0.3942  1.0264
10601TIP3    H253295   3.794   2.094   5.974  2.6329 -0.3997  2.1345
10602TIP3   OH253296   1.054   0.120   3.020  0.1364  0.3578  0.1861
10602TIP3    H153297   1.095   0.156   2.942 -0.8364  0.2071 -0.4135
10602TIP3    H253298   1.091   0.170   3.093 -0.5365  1.9931 -0.5524
10603TIP3   OH253299   2.848   1.506   5.358 -0.4052 -0.2827  0.3771
10603TIP3    H153300   2.917   1.440   5.358 -0.3863 -0.2778 -0.6603
10603TIP3    H253301   2.864   1.558   5.279 -1.5230 -0.2259  0.1629
10604TIP3   OH253302   1.190   4.216   4.968 -0.0601  0.1927 -0.2837
10604TIP3    H153303   1.251   4.235   4.897  1.1075  1.3524  0.9622
10604TIP3    H253304   1.242   4.170   5.033 -0.4778  1.2092  0.8089
10605TIP3   OH253305   6.428   0.758   0.627  0.2058 -0.7373  0.2540
10605TIP3    H153306   6.516   0.769   0.662 -0.4659  1.1143  1.5376
10605TIP3    H253307   6.394   0.679   0.668  0.3966 -0.0636  1.7712
10606TIP3   OH253308   4.978   2.902   5.471  0.2059  0.8249  0.8578
10606TIP3    H153309   5.042   2.954   5.519 -0.5244  0.8534  1.8477
10606TIP3    H253310   4.966   2.948   5.388  0.7215  1.3655  1.0783
10607TIP3   OH253311   3.444   2.536  11.079  0.5817 -0.4625  0.1693
10607TIP3    H153312   3.442   2.443  11.100 -0.7219 -0.0867  1.8694
10607TIP3    H253313   3.511   2.573  11.137 -0.0161 -0.1037  0.6460
10608TIP3   OH253314   2.607   1.455  16.161  0.8471  0.3085  0.9099
10608TIP3    H153315   2.543   1.506  16.209  0.5445  0.7472  0.0588
10608TIP3    H253316   2.603   1.489  16.072  0.8364 -0.9998  0.3852
10609TIP3   OH253317   0.807   6.190  14.234 -0.0547 -0.4956  0.3765
10609TIP3    H153318   0.804   6.135  14.312 -0.5519 -0.6006  0.2912
10609TIP3    H253319   0.785   6.130  14.162  0.4150 -0.4027  0.1580
10610TIP3   OH253320   1.693   6.639   0.251  0.1999 -0.0530 -0.0396
10610TIP3    H153321   1.682   6.691   0.331  0.3721 -1.2567  0.7772
10610TIP3    H253322   1.761   6.685   0.201  0.5296  0.3632  0.7877
10611TIP3   OH253323   0.454   4.831  15.380  0.2076 -0.5093 -0.2076
10611TIP3    H153324   0.463   4.896  15.449  1.8355 -0.5274 -0.3656
10611TIP3    H253325   0.368   4.850  15.340 -0.7241 -0.4514  1.7194
10612TIP3   OH253326   2.022   3.256   1.294  0.2471 -0.1762 -0.6050
10612TIP3    H153327   2.080   3.259   1.370 -0.6994  0.3177  0.1110
10612TIP3    H253328   2.080   3.236   1.221  1.5689  1.7393 -0.1439
10613TIP3   OH253329   3.721   6.473  16.430  0.6537  0.4572  0.0181
10613TIP3    H153330   3.764   6.441  16.350 -0.2476 -1.4568  0.2567
10613TIP3    H253331   3.678   6.554  16.403  1.3515  0.4641 -1.1358
10614TIP3   OH253332   4.020   2.707  12.506 -0.0521 -0.0865 -0.1439
10614TIP3    H153333   3.952   2.639  12.509 -0.0359 -0.0613  1.4751
10614TIP3    H253334   4.033   2.723  12.413 -1.9566 -0.4061 -0.5088
10615TIP3   OH253335   2.497   6.515  16.922  0.7177  0.2616  0.0247
10615TIP3    H153336   2.548   6.520  17.003 -0.0647 -0.5589  0.5892
10615TIP3    H253337   2.428   6.581  16.934 -0.9310 -1.5672  1.1795
10616TIP3   OH253338   3.400   1.500   0.384  0.3138 -0.3730  0.1579
10616TIP3    H153339   3.368   1.468   0.469  2.3344 -0.0337  1.1172
10616TIP3    H253340   3.389   1.426   0.325  1.4153 -1.6243  1.4276
10617TIP3   OH253341   5.856   1.241   2.087  0.0666  0.0443 -0.4629
10617TIP3    H153342   5.928   1.300   2.067  0.0103 -0.0338 -0.8861
10617TIP3    H253343   5.886   1.155   2.059  0.1243 -0.1240  0.1012
10618TIP3   OH253344   2.317   0.539  15.842 -0.0259  0.4893 -0.3015
10618TIP3    H153345   2.315   0.525  15.748  1.6817  1.7569 -0.5855
10618TIP3    H253346   2.407   0.515  15.868 -0.5419 -0.1092  1.0658
10619TIP3   OH253347   5.974   2.960  13.402  0.3188  0.1479  0.4358
10619TIP3    H153348   5.984   2.865  13.397  2.1080  0.3399 -1.2777
10619TIP3    H253349   6.064   2.993  13.393 -0.3772  2.0153 -0.0674
10620TIP3   OH253350   5.796   2.348   4.931  0.3981  0.1006 -0.2042
10620TIP3    H153351   5.718   2.296   4.954  0.8983 -0.4634  0.2625
10620TIP3    H253352   5.850   2.345   5.010  0.7295  0.7961 -0.4046
10621TIP3   OH253353   2.966   4.160  11.524 -0.1043 -0.0097  0.2216
10621TIP3    H153354   2.986   4.254  11.523 -1.9231  0.4414  1.2467
10621TIP3    H253355   2.890   4.152  11.466 -0.6356 -0.6514  0.9898
10622TIP3   OH253356   0.682   6.613   3.264 -0.3301 -0.4974  0.9928
10622TIP3    H153357   0.655   6.577   3.179  0.2950 -3.4524  1.9170
10622TIP3    H253358   0.773   6.639   3.252 -0.0650 -1.4501  0.8853
10623TIP3   OH253359   5.167   2.841   1.629  0.5031 -0.3900 -0.2786
10623TIP3    H153360   5.261   2.860   1.636  0.4782 -0.4045  0.1542
10623TIP3    H253361   5.164   2.751   1.596  0.6491 -0.5196  0.0506
10624TIP3   OH253362   2.347   2.367   0.062  0.5134  0.0882 -0.7208
10624TIP3    H153363   2.362   2.273   0.066 -0.3591 -0.1346 -2.2158
10624TIP3    H253364   2.435   2.405   0.053  0.8654 -0.5612 -0.1496
10625TIP3   OH253365   4.973   4.778  11.723 -0.2802 -0.2008 -0.4666
10625TIP3    H153366   5.051   4.817  11.685 -1.0449  2.2165  0.2953
10625TIP3    H253367   5.007   4.716  11.789  0.9730  0.1884 -0.7191
10626TIP3   OH253368   5.252   5.053   0.976 -0.1481 -0.1014  0.0059
10626TIP3    H153369   5.340   5.076   0.945  0.0756  0.2723  0.8725
10626TIP3    H253370   5.241   4.961   0.951  1.1883 -0.6753  1.3635
10627TIP3   OH253371   0.870   4.693   4.334  0.2612 -0.3439 -0.0902
10627TIP3    H153372   0.940   4.627   4.329  1.6788  0.9960  1.0185
10627TIP3    H253373   0.885   4.748   4.257 -0.1773 -0.6083 -0.3663
10628TIP3   OH253374   3.981   3.958   3.745 -0.6808  0.8195  0.5084
10628TIP3    H153375   4.036   3.881   3.734  1.2147  1.7128  2.8218
10628TIP3    H253376   3.920   3.955   3.671 -0.5446 -2.7095  0.3625
10629TIP3   OH253377   4.060   5.036   1.592  0.4413  0.0644 -0.2150
10629TIP3    H153378   4.019   5.044   1.506  0.6011 -0.1015 -0.3078
10629TIP3    H253379   4.153   5.022   1.573  0.5364  0.3957 -0.0077
10630TIP3   OH253380   5.913   5.000  16.512 -0.2458  0.1506  0.5424
10630TIP3    H153381   5.920   4.986  16.606  2.0401  1.5515  0.6595
10630TIP3    H253382   5.846   5.067  16.502  0.8742  1.4465  1.3867
10631TIP3   OH253383   1.872   2.251   4.626  0.2082 -0.0624 -0.2158
10631TIP3    H153384   1.925   2.305   4.685  3.0000 -1.5721 -1.1314
10631TIP3    H253385   1.828   2.189   4.683 -0.2511  0.9301  0.5431
10632TIP3   OH253386   5.195   2.363   3.495  0.1092  0.0613  0.0086
10632TIP3    H153387   5.199   2.457   3.482  1.7012 -0.2223 -2.1271
10632TIP3    H253388   5.250   2.346   3.572  0.3676  0.7928 -0.0170
10633TIP3   OH253389   3.865   1.932   4.872  0.6624  0.0066 -0.4741
10633TIP3    H153390   3.837   1.944   4.963  0.5415  2.2849 -0.7484
10633TIP3    H253391   3.961   1.934   4.876  0.7453 -2.1896 -0.1847
10634TIP3   OH253392   0.909   5.534   2.311  0.4226 -0.4770  0.0281
10634TIP3    H153393   0.891   5.442   2.289  0.3953 -0.3417 -0.5229
10634TIP3    H253394   0.830   5.580   2.285 -0.1403 -0.4777  1.5958
10635TIP3   OH253395   6.796   0.409   2.145  0.2386 -0.1221 -0.1505
10635TIP3    H153396   6.728   0.361   2.097 -0.8325  0.2939  0.8699
10635TIP3    H253397   6.874   0.400   2.092 -0.6464 -0.5287 -1.4394
10636TIP3   OH253398   6.113   5.682   6.287  0.0977  0.3050 -0.3666
10636TIP3    H153399   6.105   5.726   6.372  2.1744  0.7601 -0.3600
10636TIP3    H253400   6.121   5.589   6.309  0.7319  0.4298 -0.0369
10637TIP3   OH253401   3.671   0.018   5.575  0.6275 -0.5513 -0.0482
10637TIP3    H153402   3.636  -0.026   5.497 -0.6825  2.8671 -1.5904
10637TIP3    H253403   3.749   0.064   5.544  0.6153  0.1306  0.8765
10638TIP3   OH253404   2.632   6.563  16.615  0.3625 -0.1991 -0.3846
10638TIP3    H153405   2.579   6.554  16.695  0.1582 -0.3184 -0.5310
10638TIP3    H253406   2.709   6.509  16.631  1.3389  1.4226  0.5839
10639TIP3   OH253407   0.954   2.654   1.379  0.3635  0.1254  0.4728
10639TIP3    H153408   0.891   2.586   1.402  1.1975  0.0171  2.6047
10639TIP3    H253409   1.028   2.639   1.437  2.4771  0.1691 -1.9954
10640TIP3   OH253410   6.003   6.711  15.345  0.0711  0.0573 -0.3143
10640TIP3    H153411   6.051   6.740  15.422 -0.2812 -1.3857  0.4785
10640TIP3    H253412   6.013   6.783  15.282  2.6397  0.1524  0.0629
10641TIP3   OH253413   1.736   3.876  15.281 -0.8060 -0.5961 -0.4671
10641TIP3    H153414   1.831   3.880  15.277 -0.8772  2.1282 -0.9933
10641TIP3    H253415   1.712   3.809  15.217  0.6818  0.1671 -1.8817
10642TIP3   OH253416   0.003   4.512  12.831  0.3437 -0.1699 -0.3083
10642TIP3    H153417   0.052   4.432  12.810  0.8579  0.6020 -2.3582
10642TIP3    H253418  -0.078   4.481  12.872  0.9055 -1.6764 -0.2583
10643TIP3   OH253419   5.513   0.188   3.930 -0.0983  0.3816 -0.2075
10643TIP3    H153420   5.530   0.107   3.883  1.1606  0.6742 -0.2736
10643TIP3    H253421   5.599   0.224   3.950 -0.6248  1.6903 -0.1420
10644TIP3   OH253422   1.247   5.956  14.647 -0.3559 -0.2648  0.0497
10644TIP3    H153423   1.207   6.039  14.619  0.6214 -0.4069 -1.9440
10644TIP3    H253424   1.341   5.975  14.650 -0.2083 -1.0528  0.5390
10645TIP3   OH253425   4.471   5.011  13.448  1.0942  1.0761  0.1853
10645TIP3    H153426   4.522   5.087  13.475  0.6504  1.0065  1.2433
10645TIP3    H253427   4.491   5.001  13.355  1.9769  1.8414  0.2815
10646TIP3   OH253428   3.662   4.187  13.825  0.4206  0.1204  0.1939
10646TIP3    H153429   3.708   4.124  13.880 -0.7880 -1.4847 -0.5584
10646TIP3    H253430   3.731   4.245  13.792  1.5074 -0.5265  1.2440
10647TIP3   OH253431   4.602   2.482  15.381 -0.4238 -0.4480  0.3403
10647TIP3    H153432   4.595   2.479  15.476  0.6401  0.3088  0.4584
10647TIP3    H253433   4.605   2.389  15.355 -0.6506 -0.6594  1.0455
10648TIP3   OH253434   6.765   2.227  13.252  0.0230  0.2366  0.5758
10648TIP3    H153435   6.690   2.271  13.292 -1.6043 -1.8566  0.0155
10648TIP3    H253436   6.820   2.201  13.326 -1.7384 -1.4560  1.3847
10649TIP3   OH253437   1.962   6.574   3.914  0.0539  0.5234 -0.1652
10649TIP3    H153438   1.947   6.631   3.989 -0.6481  0.9093 -0.5895
10649TIP3    H253439   2.057   6.576   3.901 -0.0741  2.8085 -1.0970
10650TIP3   OH253440   4.633   1.268  10.755 -0.2590 -0.0281  0.6534
10650TIP3    H153441   4.603   1.232  10.839 -0.5979  0.5876  0.7970
10650TIP3    H253442   4.683   1.346  10.779 -1.1254  0.6738  0.2355
10651TIP3   OH253443   5.091   3.006   6.215 -0.2711 -0.7312 -0.0446
10651TIP3    H153444   5.128   2.990   6.128  0.3396  0.6638 -0.0597
10651TIP3    H253445   5.056   3.095   6.211  1.5837  0.1710  1.7078
10652TIP3   OH253446   1.299   0.889   3.815  0.1001  0.0319  0.5443
10652TIP3    H153447   1.362   0.848   3.756 -0.6177 -2.2560  1.2487
10652TIP3    H253448   1.214   0.878   3.772  0.0572  2.8270 -0.2637
10653TIP3   OH253449   4.218   2.943  15.886  0.5254  0.2038  0.7198
10653TIP3    H153450   4.286   2.885  15.922  0.5689  0.4944  1.1120
10653TIP3    H253451   4.246   2.959  15.796 -0.1944 -1.4725  0.1700
10654TIP3   OH253452   6.506   6.349   4.669 -0.1880  0.0707  0.2786
10654TIP3    H153453   6.435   6.389   4.719  0.2443  0.7139  0.3949
10654TIP3    H253454   6.498   6.256   4.687 -0.5264  0.2120  0.9206
10655TIP3   OH253455   0.287   1.073   3.884 -0.5167  0.3119 -0.0697
10655TIP3    H153456   0.334   1.031   3.812  3.0492  1.0344  1.6596
10655TIP3    H253457   0.231   1.138   3.841 -0.0284 -0.6552 -2.2789
10656TIP3   OH253458   3.236   3.064   5.355 -0.2127 -0.3108 -0.0495
10656TIP3    H153459   3.255   2.997   5.421  1.1176 -1.1958 -1.2680
10656TIP3    H253460   3.206   3.140   5.406  0.2962 -1.1136  1.5230
10657TIP3   OH253461   0.105   4.198  13.873  0.2810  0.1022  0.5599
10657TIP3    H153462   0.186   4.188  13.924 -0.5510  0.9997  2.1647
10657TIP3    H253463   0.126   4.265  13.808  0.5954  1.0009  1.5489
10658TIP3   OH253464   4.475   6.500   2.756  0.3489 -0.4313 -0.0094
10658TIP3    H153465   4.465   6.593   2.734 -1.0855 -1.1409 -2.7976
10658TIP3    H253466   4.514   6.501   2.843 -0.2140  2.7747  0.3507
10659TIP3   OH253467   4.440   1.414  11.284 -0.6929  0.5126  0.0568
10659TIP3    H153468   4.410   1.353  11.216 -1.8618  0.6110  0.4679
10659TIP3    H253469   4.360   1.455  11.317 -0.1314  0.6261  1.3473
10660TIP3   OH253470   0.785   3.750  12.293  0.1871  0.0620 -0.3382
10660TIP3    H153471   0.730   3.737  12.216  1.2020 -2.0831 -0.7590
10660TIP3    H253472   0.757   3.683  12.355  1.2310 -0.0284  0.0625
10661TIP3   OH253473   1.072   0.897   4.353  0.0886 -0.3029  0.6857
10661TIP3    H153474   1.097   0.868   4.440 -0.1803 -1.3372  0.4347
10661TIP3    H253475   1.106   0.987   4.346  1.0778 -0.5999  1.4427
10662TIP3   OH253476   4.627   4.202  13.162 -0.4449  0.4133 -0.5856
10662TIP3    H153477   4.554   4.254  13.195  0.2019  0.8269  0.2322
10662TIP3    H253478   4.704   4.258  13.176  0.2244 -0.6243  0.0203
10663TIP3   OH253479   0.104   3.197  11.280  1.0861  0.0392 -0.1847
10663TIP3    H153480   0.054   3.203  11.198 -0.5774 -0.3776  0.7518
10663TIP3    H253481   0.087   3.279  11.325  1.1221 -0.1672  0.2106
10664TIP3   OH253482   0.506   3.383  16.431 -0.3910  0.5548 -0.0090
10664TIP3    H153483   0.460   3.386  16.347 -1.0772 -3.2665  0.0385
10664TIP3    H253484   0.599   3.378  16.407 -0.3151  2.5193 -0.3209
10665TIP3   OH253485   1.966   6.554  12.370 -0.7218  0.0373 -0.1215
10665TIP3    H153486   1.923   6.476  12.406  0.6613  0.5565  2.9887
10665TIP3    H253487   1.901   6.623  12.380 -1.1367 -0.2617 -0.7215
10666TIP3   OH253488   6.120   3.331  12.083  0.0555 -0.5362 -0.5796
10666TIP3    H153489   6.166   3.414  12.097  0.4563 -0.8501 -0.0287
10666TIP3    H253490   6.050   3.330  12.148  0.5350 -0.9783 -0.0594
10667TIP3   OH253491   1.844   5.311   3.224  0.6946 -0.8530 -0.1437
10667TIP3    H153492   1.931   5.338   3.254 -0.3014  0.3334  1.8893
10667TIP3    H253493   1.857   5.224   3.187  3.0632  0.0560 -1.7287
10668TIP3   OH253494   6.069   6.820   0.106  0.8215 -0.7433 -1.1556
10668TIP3    H153495   6.048   6.890   0.044  0.3335  1.6191  1.4727
10668TIP3    H253496   5.999   6.755   0.094 -0.8671  0.9917 -1.1940
10669TIP3   OH253497   3.030   1.833  15.184 -0.1705  0.4854  0.5994
10669TIP3    H153498   2.939   1.863  15.179 -0.2130  0.3329  0.4464
10669TIP3    H253499   3.067   1.879  15.259 -0.4443  0.3630  0.8084
10670TIP3   OH253500   6.590   4.327   1.343  0.0738 -0.0258 -0.1239
10670TIP3    H153501   6.594   4.263   1.414  0.4096 -0.2660 -0.3544
10670TIP3    H253502   6.524   4.293   1.283 -1.0719  0.7866  0.6527
10671TIP3   OH253503   0.091   5.380  16.354  0.1979  0.1679 -0.2147
10671TIP3    H153504   0.035   5.421  16.288 -1.3171  1.7739  1.9346
10671TIP3    H253505   0.142   5.452  16.390 -0.9611 -0.1411  2.1822
10672TIP3   OH253506   0.102   2.900   3.566 -0.3492 -0.4000 -0.1675
10672TIP3    H153507   0.109   2.861   3.653 -1.4600 -1.3281 -0.4723
10672TIP3    H253508   0.019   2.948   3.568 -0.5179 -0.6552 -0.7924
10673TIP3   OH253509   0.855   1.276   5.028  0.4285  0.2180  0.4292
10673TIP3    H153510   0.945   1.277   4.996  0.3564 -1.5381  0.0151
10673TIP3    H253511   0.850   1.196   5.081 -0.9359  0.1438  0.2274
10674TIP3   OH253512   4.117   4.561   3.671 -0.4639  0.8748  0.0222
10674TIP3    H153513   4.165   4.514   3.603  1.6136  3.3499 -0.3612
10674TIP3    H253514   4.102   4.495   3.739  1.0095 -0.6924 -1.0627
10675TIP3   OH253515   0.219   2.651   0.951  0.3329  0.0196  0.3899
10675TIP3    H153516   0.204   2.738   0.988 -1.4937  0.3202 -0.9353
10675TIP3    H253517   0.314   2.640   0.954  0.5670  1.8117  1.1041
10676TIP3   OH253518   4.384   3.159   1.240 -0.0799 -0.1098  0.6155
10676TIP3    H153519   4.406   3.133   1.150 -0.9450  1.7148 -0.1754
10676TIP3    H253520   4.300   3.116   1.257 -0.7034  0.8060 -0.0689
10677TIP3   OH253521   3.463   2.360   5.036  0.1495 -0.0044  0.4392
10677TIP3    H153522   3.457   2.324   5.125 -0.8923 -0.3305  0.2566
10677TIP3    H253523   3.548   2.403   5.033 -0.2932  1.0716  1.9955
10678TIP3   OH253524   3.139   0.675   2.959  0.0960 -0.5086 -0.5294
10678TIP3    H153525   3.209   0.739   2.952 -0.5503  0.2163 -0.5862
10678TIP3    H253526   3.109   0.681   3.050  0.2326 -0.9474 -0.4546
10679TIP3   OH253527   5.879   4.496  15.422 -0.1781 -0.0959 -0.5249
10679TIP3    H153528   5.823   4.420  15.436 -1.3037  1.0723  1.6719
10679TIP3    H253529   5.965   4.458  15.405 -0.9413 -1.8695 -0.7364
10680TIP3   OH253530   5.435   5.141  15.416 -0.3116 -0.1392  0.1799
10680TIP3    H153531   5.363   5.189  15.456 -0.1896  0.7125 -0.5987
10680TIP3    H253532   5.444   5.178  15.329  0.2393 -1.1132 -0.1982
10681TIP3   OH253533   5.513   5.479  14.709 -0.2063 -0.4533 -0.3915
10681TIP3    H153534   5.429   5.525  14.707  0.9725  1.9052  0.6875
10681TIP3    H253535   5.548   5.488  14.620  0.5329  1.8983  0.0837
10682TIP3   OH253536   0.959   2.841   0.869 -0.2728  0.0415  0.3934
10682TIP3    H153537   1.010   2.761   0.879 -1.2783 -0.9935 -1.9279
10682TIP3    H253538   1.019   2.902   0.826 -0.1895 -0.2989  0.0115
10683TIP3   OH253539   3.448   1.043  16.680  0.0070 -0.4171  0.5822
10683TIP3    H153540   3.461   0.979  16.610  0.2647 -0.9606  1.1182
10683TIP3    H253541   3.533   1.086  16.688 -0.0003 -0.4095  0.6167
10684TIP3   OH253542   1.974   4.165  10.961 -0.0605  0.4919 -0.7808
10684TIP3    H153543   2.048   4.216  10.928  0.4386  0.5020  0.3085
10684TIP3    H253544   1.957   4.101  10.892  1.6703 -0.2119 -0.6225
10685TIP3   OH253545   0.500   3.098   2.991 -0.1091 -0.3848  0.1394
10685TIP3    H153546   0.478   3.048   2.912  0.4199  0.6674 -0.7060
10685TIP3    H253547   0.421   3.148   3.011  0.2750  0.6226 -0.7442
10686TIP3   OH253548   1.280   0.231  12.892  0.1044 -0.4012 -0.0555
10686TIP3    H153549   1.242   0.170  12.955 -0.9114  0.6579  0.3994
10686TIP3    H253550   1.211   0.242  12.825  0.7968 -0.7730 -0.8454
10687TIP3   OH253551   1.876   1.813   4.848 -0.5458 -0.2159  0.3715
10687TIP3    H153552   1.968   1.834   4.831 -0.5601 -0.6583 -0.3334
10687TIP3    H253553   1.875   1.780   4.938 -0.0596  0.0536  0.4785
10688TIP3   OH253554   1.699   1.797   2.236  0.0671 -0.4221 -0.1494
10688TIP3    H153555   1.680   1.851   2.313  0.6404 -1.2463  0.5937
10688TIP3    H253556   1.614   1.758   2.213 -0.3706  0.8097 -0.7442
10689TIP3   OH253557   3.232   2.096   4.063  0.7667  0.3300  0.6483
10689TIP3    H153558   3.318   2.053   4.053  0.1367 -1.1728  1.3735
10689TIP3    H253559   3.171   2.024   4.076 -0.1986  1.4774  3.0825
10690TIP3   OH253560   6.551   1.817  15.654 -0.5223 -0.1501 -0.0663
10690TIP3    H153561   6.473   1.845  15.606  0.0609  0.3466 -0.7277
10690TIP3    H253562   6.565   1.886  15.719  1.2966  1.5208 -2.1191
10691TIP3   OH253563   1.960   0.624  17.177  0.1296  0.1762  0.2825
10691TIP3    H153564   1.963   0.530  17.159 -0.1829  0.3486 -0.7110
10691TIP3    H253565   2.036   0.640  17.234  1.8083 -0.2286 -1.7409
10692TIP3   OH253566   1.953   5.472   5.143 -0.2417  0.4602 -0.0924
10692TIP3    H153567   2.035   5.425   5.125 -0.2213  0.3722  0.2116
10692TIP3    H253568   1.933   5.449   5.234 -0.5366  0.5845 -0.1261
10693TIP3   OH253569   3.315   5.228  12.947  0.0038  0.0650  0.3276
10693TIP3    H153570   3.299   5.204  13.039  0.5749 -1.8352 -0.0133
10693TIP3    H253571   3.387   5.170  12.920  0.9515  1.7329 -0.8648
10694TIP3   OH253572   5.805   5.188  13.134 -0.4458 -0.3469 -0.6885
10694TIP3    H153573   5.813   5.281  13.115  1.0010 -0.4040 -0.5256
10694TIP3    H253574   5.714   5.176  13.162 -0.1252  1.4107  1.3599
10695TIP3   OH253575   2.704   3.784   5.700 -0.4705 -0.5268  0.2185
10695TIP3    H153576   2.744   3.798   5.614  0.0126 -0.8851  0.3787
10695TIP3    H253577   2.731   3.860   5.752  0.0752 -0.8008  0.3468
10696TIP3   OH253578   5.549   0.859  16.678  0.6523 -0.3588  0.4232
10696TIP3    H153579   5.481   0.838  16.613 -2.2181 -0.4677  3.1787
10696TIP3    H253580   5.596   0.777  16.691 -0.8171 -1.2108  0.6275
10697TIP3   OH253581   6.782   2.974   3.217  0.1937 -0.3811  0.5369
10697TIP3    H153582   6.863   2.955   3.171 -0.0590 -0.3935  0.0943
10697TIP3    H253583   6.736   2.890   3.220  0.0450 -0.3012  0.4887
10698TIP3   OH253584   3.105   2.011   2.496  0.7292  0.2421 -0.0704
10698TIP3    H153585   3.125   1.943   2.560  1.2235  1.0969  0.6966
10698TIP3    H253586   3.152   1.985   2.417 -0.4265 -1.1866 -0.3518
10699TIP3   OH253587   1.778   6.121  16.821 -0.4737 -0.4032 -0.1400
10699TIP3    H153588   1.702   6.073  16.787 -0.3102 -0.2130 -0.7889
10699TIP3    H253589   1.743   6.208  16.841 -0.3448 -0.1785 -0.8474
10700TIP3   OH253590   1.859   3.167   6.210 -0.3562 -0.2899  0.1084
10700TIP3    H153591   1.917   3.099   6.246  0.0951  1.0598  2.1231
10700TIP3    H253592   1.872   3.162   6.116  1.9638 -1.0052  0.4050
10701TIP3   OH253593   1.404   2.063  15.298 -0.1835  0.4548  0.0257
10701TIP3    H153594   1.351   2.143  15.301 -0.1089  0.5348 -0.6954
10701TIP3    H253595   1.340   1.993  15.281 -0.2312  0.3690  0.5265
10702TIP3   OH253596   2.059   5.278   4.622 -0.1155 -0.3175 -0.1221
10702TIP3    H153597   2.047   5.295   4.528 -0.1410 -2.5856 -0.5952
10702TIP3    H253598   2.153   5.266   4.632 -0.1317 -0.2441  0.1138
10703TIP3   OH253599   2.968   1.156   4.013  0.2271  0.7045  0.6226
10703TIP3    H153600   3.008   1.068   4.017 -0.7640  0.0899 -1.4981
10703TIP3    H253601   3.041   1.215   4.031  1.7526 -0.4523 -1.3254
10704TIP3   OH253602   2.869   6.537  14.179 -0.2398  0.6339  0.2248
10704TIP3    H153603   2.933   6.468  14.195  0.5036  0.7549 -1.9049
10704TIP3    H253604   2.921   6.611  14.147 -1.3647  0.8316 -1.2939
10705TIP3   OH253605   1.090   5.005   4.388  0.1913  0.2324  0.1947
10705TIP3    H153606   1.027   5.039   4.325  1.0959  0.8500 -0.4017
10705TIP3    H253607   1.042   5.002   4.471 -0.8489 -0.0725 -0.4024
10706TIP3   OH253608   0.716   1.319  12.903  0.5652  0.2333  0.1216
10706TIP3    H153609   0.675   1.398  12.937 -3.2215 -1.4169 -0.0906
10706TIP3    H253610   0.768   1.285  12.976 -0.0927  1.3994  1.1696
10707TIP3   OH253611   3.591   4.386  16.406  0.1372  0.2722 -0.1986
10707TIP3    H153612   3.685   4.365  16.408  0.0352 -0.2565 -0.6338
10707TIP3    H253613   3.560   4.364  16.494  0.0632 -1.3432 -0.6032
10708TIP3   OH253614   1.179   0.131   3.280 -0.1819 -0.5368 -0.1930
10708TIP3    H153615   1.271   0.142   3.256  0.2468 -0.4441  1.3994
10708TIP3    H253616   1.173   0.040   3.311 -0.3934 -0.2422  0.6495
10709TIP3   OH253617   0.141   6.716   2.498 -0.3467 -0.1514  0.2376
10709TIP3    H153618   0.095   6.711   2.414  1.5170 -2.1854 -0.7663
10709TIP3    H253619   0.186   6.800   2.495 -1.2497  0.3335 -0.2557
10710TIP3   OH253620   2.506   6.623  15.876 -0.5442 -0.0214  0.1044
10710TIP3    H153621   2.556   6.671  15.810 -0.9404 -0.3856 -0.4621
10710TIP3    H253622   2.526   6.531  15.860 -2.2898 -0.2669 -0.8936
10711TIP3   OH253623   2.635   4.944   4.517  0.0462  0.2298  0.5511
10711TIP3    H153624   2.602   4.942   4.427  0.8008 -1.8209  0.2563
10711TIP3    H253625   2.568   4.898   4.568  0.5793 -0.4742  0.6360
10712TIP3   OH253626   6.305   0.544   0.017  0.1906 -0.0359 -0.5676
10712TIP3    H153627   6.366   0.476  -0.013  1.4025  0.9292 -0.3774
10712TIP3    H253628   6.276   0.587  -0.064  1.6343  1.0415 -0.5424
10713TIP3   OH253629   4.147   3.819  13.704 -0.5137 -0.2191  0.6205
10713TIP3    H153630   4.101   3.902  13.721  1.6762  1.2677 -0.2814
10713TIP3    H253631   4.183   3.794  13.789  0.0270  0.5653  0.6342
10714TIP3   OH253632   0.583   3.448  13.370  0.0875 -0.3004 -0.9529
10714TIP3    H153633   0.513   3.414  13.425  0.6803 -1.4735 -0.8930
10714TIP3    H253634   0.632   3.371  13.343  1.4440  0.5078 -0.8895
10715TIP3   OH253635   3.404   0.825  11.009  0.8137  0.0084 -0.7561
10715TIP3    H153636   3.371   0.782  10.930  1.5283 -0.0725 -1.0201
10715TIP3    H253637   3.466   0.890  10.977 -0.4470  1.4599 -0.3805
10716TIP3   OH253638   3.151   4.706  14.991  0.4709 -0.0890 -0.3686
10716TIP3    H153639   3.113   4.700  15.079  0.4780 -1.5855 -0.4501
10716TIP3    H253640   3.214   4.635  14.987 -0.2050 -0.6362 -1.8969
10717TIP3   OH253641   6.064   0.166   3.389 -0.2542  0.1818 -0.4489
10717TIP3    H153642   6.082   0.147   3.297  2.5924 -0.7487  0.1936
10717TIP3    H253643   5.995   0.104   3.413 -1.2161  0.6007 -1.9626
10718TIP3   OH253644   4.933   2.264  15.150  0.1001  0.0264 -0.2505
10718TIP3    H153645   4.942   2.207  15.226 -0.8676  0.3240  0.0931
10718TIP3    H253646   4.985   2.221  15.082 -1.1206 -1.6136 -0.2003
10719TIP3   OH253647   1.906   5.019  13.892  0.7848  0.9255 -0.6436
10719TIP3    H153648   1.895   4.926  13.870  0.7279  0.8712 -0.3978
10719TIP3    H253649   1.999   5.028  13.911  0.5888  0.6390  0.5451
10720TIP3   OH253650   5.340   6.549   3.356  0.3538 -0.3250  0.7186
10720TIP3    H153651   5.415   6.489   3.360  1.3889  0.6935 -1.6567
10720TIP3    H253652   5.368   6.626   3.406  0.9120  0.0275 -0.1101
10721TIP3   OH253653   1.873   6.742   0.084  0.0039 -0.1621 -0.3285
10721TIP3    H153654   1.920   6.825   0.076 -3.6183  2.1003 -0.6808
10721TIP3    H253655   1.887   6.698   0.000  3.4693 -0.9303  0.5173
10722TIP3   OH253656   3.513   0.893  12.352 -0.4186 -0.1931  0.2397
10722TIP3    H153657   3.606   0.910  12.336 -0.4250  0.0468  0.4461
10722TIP3    H253658   3.470   0.977  12.332 -0.6144 -0.3563 -0.0377
10723TIP3   OH253659   5.635   4.350  15.389 -0.1294 -0.1906  0.1977
10723TIP3    H153660   5.586   4.431  15.371  0.9289  0.6615  1.0031
10723TIP3    H253661   5.648   4.352  15.484 -0.6141 -1.6360  0.3131
10724TIP3   OH253662   0.200   0.614   6.630  0.0290 -1.0498  0.1209
10724TIP3    H153663   0.234   0.640   6.544  0.4491  0.9420  0.8359
10724TIP3    H253664   0.141   0.541   6.611 -2.0142  1.0025 -2.2234
10725TIP3   OH253665   4.921   5.199  11.242  0.1121 -0.1532  0.3523
10725TIP3    H153666   4.954   5.127  11.295 -1.4529 -0.4739  0.9289
10725TIP3    H253667   4.861   5.246  11.299 -0.7512  0.1526 -0.7656
10726TIP3   OH253668   2.526   3.807   1.355  0.0470 -0.4069 -0.5776
10726TIP3    H153669   2.564   3.875   1.410 -3.1200  0.6438  0.4848
10726TIP3    H253670   2.598   3.780   1.297  2.5171  0.9131  1.6808
10727TIP3   OH253671   6.819   0.191   1.822  0.1370  0.3940  0.2702
10727TIP3    H153672   6.769   0.142   1.887  0.5720  2.6662  2.4920
10727TIP3    H253673   6.883   0.240   1.873  1.1457  1.6084 -1.9971
10728TIP3   OH253674   2.447   0.137  15.934 -0.0986 -0.5254  0.3110
10728TIP3    H153675   2.480   0.104  16.017 -0.1522 -2.4545 -0.3936
10728TIP3    H253676   2.525   0.171  15.889  0.0960 -0.4616  0.6887
10729TIP3   OH253677   2.944   2.518  14.949 -0.0590 -0.4731  0.0489
10729TIP3    H153678   2.912   2.428  14.945  0.6132 -0.6839 -0.9003
10729TIP3    H253679   2.915   2.550  15.034 -0.7548 -1.4139  0.1800
10730TIP3   OH253680   3.664   6.409   5.468 -0.4495  0.1481  0.1888
10730TIP3    H153681   3.662   6.400   5.564 -0.6678  1.3684  0.3169
10730TIP3    H253682   3.628   6.326   5.436 -1.6244  0.2186  1.2083
10731TIP3   OH253683   5.141   5.473  12.547  0.6917 -0.1295  0.1496
10731TIP3    H153684   5.064   5.528  12.531  1.3564  0.5770 -0.7609
10731TIP3    H253685   5.106   5.384  12.551 -0.0933  0.1013 -1.0450
10732TIP3   OH253686   3.598   6.705  16.317  0.0627  0.0331 -0.2472
10732TIP3    H153687   3.677   6.706  16.263 -1.1000 -0.6981 -2.0726
10732TIP3    H253688   3.526   6.711  16.254 -1.3697 -0.1732  1.2918
10733TIP3   OH253689   4.581   2.938   2.994 -0.4306  0.4931 -0.6191
10733TIP3    H153690   4.492   2.967   3.014 -0.7020  1.2573 -2.6799
10733TIP3    H253691   4.631   3.019   2.985  0.0484  0.1406 -1.1935
10734TIP3   OH253692   0.498   6.552   5.611 -0.2782  0.0753 -0.3636
10734TIP3    H153693   0.592   6.556   5.593 -0.1927  0.3333  0.1151
10734TIP3    H253694   0.472   6.464   5.587  0.7175 -1.1049  2.4938
10735TIP3   OH253695   6.257   2.801   2.138  1.0365  0.1036  0.0214
10735TIP3    H153696   6.206   2.873   2.175 -0.8018 -1.3473  0.4714
10735TIP3    H253697   6.326   2.844   2.087 -1.1859  2.2099 -1.4457
10736TIP3   OH253698   4.611   4.185  17.028 -1.1542  0.7188  0.1238
10736TIP3    H153699   4.632   4.119  16.961 -1.4096  1.0195 -0.2615
10736TIP3    H253700   4.573   4.135  17.100  0.8183  0.1695  0.8273
10737TIP3   OH253701   4.152   1.399  14.613  0.5342 -0.1310  0.0891
10737TIP3    H153702   4.133   1.492  14.610  0.8918 -0.0747 -0.3659
10737TIP3    H253703   4.247   1.393  14.607  0.5096 -0.5277  0.0651
10738TIP3   OH253704   0.459   4.030  15.526 -0.5061 -0.0264 -0.2275
10738TIP3    H153705   0.465   4.114  15.570 -0.1828  0.2137 -0.7203
10738TIP3    H253706   0.522   4.036  15.454 -0.0066 -0.9202  0.1144
10739TIP3   OH253707   5.008   2.272  14.477  0.2622 -0.2548 -0.2123
10739TIP3    H153708   4.951   2.301  14.406  1.6523 -1.3290 -1.8297
10739TIP3    H253709   4.961   2.200  14.518 -0.1766 -0.1829 -0.5866
10740TIP3   OH253710   0.895   3.738   4.774 -0.6246  0.2760  0.2539
10740TIP3    H153711   0.800   3.737   4.763 -0.8027  2.0279  1.4015
10740TIP3    H253712   0.929   3.735   4.684 -1.8637  3.2940 -0.4276
10741TIP3   OH253713   4.814   6.657  15.911  0.0980  0.4547  0.1724
10741TIP3    H153714   4.892   6.620  15.953  0.8742  1.0200 -0.7543
10741TIP3    H253715   4.838   6.746  15.888 -1.5224  1.3886  1.7533
10742TIP3   OH253716   2.466   0.655  11.686  0.3628 -0.1237 -0.4320
10742TIP3    H153717   2.371   0.643  11.676  0.2430 -0.0218  0.5165
10742TIP3    H253718   2.480   0.748  11.668  0.2107 -0.0376 -0.1258
10743TIP3   OH253719   5.939   3.533   0.385 -0.3996 -0.0082  0.2755
10743TIP3    H153720   6.032   3.528   0.367 -0.7194 -0.1497 -1.5102
10743TIP3    H253721   5.913   3.621   0.359 -0.8519 -0.1259  0.3029
10744TIP3   OH253722   5.759   3.968  15.068  0.3427 -0.2622 -0.2577
10744TIP3    H153723   5.850   3.982  15.095  0.4242 -1.7037  0.2668
10744TIP3    H253724   5.748   4.027  14.993  2.1773 -1.1263 -1.2960
10745TIP3   OH253725   3.779   1.272   1.983 -0.1798  0.2153 -0.4091
10745TIP3    H153726   3.697   1.223   1.992  0.9009 -1.7112 -0.3800
10745TIP3    H253727   3.795   1.275   1.889  0.7584 -1.3626 -0.3417
10746TIP3   OH253728   4.533   4.426  15.219 -0.4829  0.2487 -0.2164
10746TIP3    H153729   4.535   4.476  15.301 -1.5972 -3.2472  2.2014
10746TIP3    H253730   4.449   4.448  15.179 -1.3709 -0.2443  1.2675
10747TIP3   OH253731   6.638   0.856  14.958  0.6642 -0.1191  0.0952
10747TIP3    H153732   6.647   0.872  15.051  1.1848 -0.6259  0.1382
10747TIP3    H253733   6.609   0.765  14.952  0.1713  0.0520 -0.2234
10748TIP3   OH253734   5.740   3.344  12.796  0.3056  0.1893 -0.5505
10748TIP3    H153735   5.752   3.284  12.723  2.0415 -0.5255  0.2801
10748TIP3    H253736   5.727   3.288  12.872  0.7733  0.8854  0.0545
10749TIP3   OH253737   4.796   1.120   0.425 -0.4241 -0.0122  0.7022
10749TIP3    H153738   4.830   1.197   0.379 -2.0968 -0.2612 -1.0953
10749TIP3    H253739   4.874   1.068   0.447  0.5229 -0.7399 -3.5211
10750TIP3   OH253740   1.652   4.131  12.896  0.1158 -0.6300  0.6771
10750TIP3    H153741   1.622   4.084  12.818  0.8842  0.1590 -0.1303
10750TIP3    H253742   1.685   4.214  12.862  0.1244 -0.1102  1.9025
10751TIP3   OH253743   2.135   1.050  13.529  0.4052 -0.2776  0.4987
10751TIP3    H153744   2.190   1.102  13.470  0.1365  1.1332  1.4281
10751TIP3    H253745   2.197   1.002  13.585  0.6763 -0.0537  0.3910
10752TIP3   OH253746   5.226   3.376   2.616 -0.2507  0.3420  0.4192
10752TIP3    H153747   5.304   3.323   2.597 -0.4655  0.3000 -0.4129
10752TIP3    H253748   5.205   3.356   2.707  1.1772  0.9727  0.9125
10753TIP3   OH253749   1.664   1.217  17.122  0.3615  0.1519  0.3927
10753TIP3    H153750   1.630   1.191  17.037 -0.1744  2.4570 -0.1716
10753TIP3    H253751   1.613   1.167  17.185  0.6640 -1.4811 -0.5890
10754TIP3   OH253752   1.174   6.168   4.799 -0.0138  0.1430  0.6025
10754TIP3    H153753   1.158   6.196   4.889 -2.8657  0.3444  0.1218
10754TIP3    H253754   1.169   6.249   4.747 -1.5504 -0.3338 -0.0461
10755TIP3   OH253755   5.532   6.233   3.054  0.2081  0.5620  0.4956
10755TIP3    H153756   5.578   6.220   2.971  2.4155  2.8490  1.2356
10755TIP3    H253757   5.467   6.300   3.035 -1.9649 -1.5987 -0.1842
10756TIP3   OH253758   4.496   5.052  13.119  0.0534  0.1060  0.5283
10756TIP3    H153759   4.425   5.097  13.073 -0.2732  1.4175  2.2040
10756TIP3    H253760   4.537   4.997  13.052 -1.9505 -0.0025 -0.6935
10757TIP3   OH253761   2.401   1.225   5.577 -0.3402 -0.5040 -0.0106
10757TIP3    H153762   2.343   1.225   5.500 -1.1918  0.5709  0.5993
10757TIP3    H253763   2.479   1.273   5.548 -0.9009  0.3998 -0.0486
10758TIP3   OH253764   2.988   1.901  15.532  0.1408  0.1948  0.2497
10758TIP3    H153765   2.921   1.932  15.593 -0.0837 -1.5250  0.9226
10758TIP3    H253766   2.940   1.848  15.468  0.5049  1.2246 -0.9365
10759TIP3   OH253767   0.668   3.779   4.472 -0.2637 -0.2217  0.1055
10759TIP3    H153768   0.743   3.792   4.414 -0.1441 -0.0565  0.2958
10759TIP3    H253769   0.599   3.835   4.437 -0.3911 -0.5861 -0.2339
10760TIP3   OH253770   1.362   1.786   2.735 -0.2864  0.6552 -0.9199
10760TIP3    H153771   1.359   1.854   2.667  1.4860  0.8220 -0.8749
10760TIP3    H253772   1.452   1.788   2.767 -1.0527  0.5856  1.4497
10761TIP3   OH253773   2.112   2.932  14.925  0.3057 -0.8490  0.2222
10761TIP3    H153774   2.182   2.991  14.952 -1.7520  1.3994  1.0375
10761TIP3    H253775   2.138   2.901  14.838  1.0558  2.0922 -0.6860
10762TIP3   OH253776   5.877   0.269  15.999 -0.2601  0.1435 -1.0730
10762TIP3    H153777   5.788   0.267  15.964 -0.5656  1.9082 -0.4698
10762TIP3    H253778   5.884   0.188  16.050 -1.9172  0.4933 -0.2188
10763TIP3   OH253779   3.061   0.718  15.222 -1.0288 -0.3808  0.1393
10763TIP3    H153780   3.055   0.666  15.142 -1.3429  1.2589 -0.9552
10763TIP3    H253781   3.154   0.718  15.244 -0.5625  0.9906 -1.5665
10764TIP3   OH253782   1.103   1.153  17.101 -0.1467 -0.2179 -0.3108
10764TIP3    H153783   1.141   1.182  17.018  1.8534 -0.4007  0.4812
10764TIP3    H253784   1.178   1.121  17.152 -1.1635  0.7067  1.9141
10765TIP3   OH253785   4.631   2.056   0.824  0.3353  0.3050 -0.3710
10765TIP3    H153786   4.696   1.986   0.834  1.3368  1.5342  2.8871
10765TIP3    H253787   4.572   2.045   0.899  0.7707  3.1063  0.5057
10766TIP3   OH253788   5.578   1.645  14.146  0.3699 -0.7308 -0.4289
10766TIP3    H153789   5.552   1.652  14.238 -0.0141 -0.0809 -0.5821
10766TIP3    H253790   5.610   1.732  14.123  0.1978 -0.8070 -0.9860
10767TIP3   OH253791   6.771   4.505   0.522  0.4004  0.4545 -0.5484
10767TIP3    H153792   6.741   4.596   0.521  0.6253  0.5461  0.3517
10767TIP3    H253793   6.797   4.489   0.612 -1.9884 -1.2799 -0.0454
10768TIP3   OH253794   4.025   4.138  14.306 -0.6726  0.2976 -0.2959
10768TIP3    H153795   4.026   4.147  14.211 -0.3401 -0.9690 -0.4213
10768TIP3    H253796   4.099   4.192  14.336  1.7098 -2.2792 -1.0826
10769TIP3   OH253797   2.827   2.966   1.954  1.1617  0.5644 -0.0436
10769TIP3    H153798   2.881   2.960   2.033  1.3476  1.0283 -0.1308
10769TIP3    H253799   2.760   3.031   1.977  2.0058  1.7077 -0.7159
10770TIP3   OH253800   5.629   5.187  14.840 -0.0134 -0.7692  0.1677
10770TIP3    H153801   5.698   5.158  14.900 -0.1614  1.2938  1.4191
10770TIP3    H253802   5.634   5.282  14.842 -1.9099 -0.6046 -0.9247
10771TIP3   OH253803   5.187   0.195  12.067  0.8222 -0.2818 -0.6409
10771TIP3    H153804   5.247   0.161  12.000  0.1921  0.8977 -1.8543
10771TIP3    H253805   5.200   0.290  12.065  0.6159 -0.2133  0.7616
10772TIP3   OH253806   5.305   5.667  14.674  0.3510 -0.4718 -0.1193
10772TIP3    H153807   5.250   5.640  14.601  0.3844 -1.6396  0.2674
10772TIP3    H253808   5.330   5.757  14.654  0.6936 -0.9034 -1.7398
10773TIP3   OH253809   2.292   0.253  11.336 -0.0886 -0.5184  0.1217
10773TIP3    H153810   2.261   0.211  11.256 -0.0634 -0.3084  0.0026
10773TIP3    H253811   2.365   0.308  11.308  1.3295 -2.0538  0.5923
10774TIP3   OH253812   0.043   6.183  16.322 -0.0473  0.1650 -0.4302
10774TIP3    H153813   0.010   6.111  16.377 -0.4238 -0.5412 -1.5485
10774TIP3    H253814   0.124   6.210  16.365 -1.8047  1.7142  2.2056
10775TIP3   OH253815   1.578   5.282   1.276 -0.0780 -0.1467  0.6474
10775TIP3    H153816   1.558   5.233   1.196  0.4774  1.1274 -0.3065
10775TIP3    H253817   1.605   5.215   1.339 -0.9026 -1.2175 -0.0898
10776TIP3   OH253818   3.013   3.498   4.465  0.1377 -0.1274 -0.0391
10776TIP3    H153819   2.966   3.510   4.382 -0.8959 -1.8898  0.2232
10776TIP3    H253820   2.958   3.542   4.530 -0.0034 -0.2984 -0.0421
10777TIP3   OH253821   5.927   1.537   5.193 -0.4693  0.2234  0.0226
10777TIP3    H153822   5.971   1.585   5.263 -2.3076  1.0936  0.6581
10777TIP3    H253823   5.947   1.587   5.114 -1.4325  1.4473  0.5126
10778TIP3   OH253824   5.142   4.688  15.685 -0.4190 -0.0908  0.4772
10778TIP3    H153825   5.185   4.731  15.611 -2.1025  0.9367  0.0332
10778TIP3    H253826   5.173   4.736  15.762 -0.0775  0.0381  0.2607
10779TIP3   OH253827   2.403   0.239  10.816 -0.5019 -0.0626  0.2804
10779TIP3    H153828   2.434   0.155  10.783 -0.3077 -0.4800  1.4800
10779TIP3    H253829   2.316   0.250  10.778 -0.0810 -0.2696 -0.7659
10780TIP3   OH253830   5.758   0.661  13.104  0.1439 -0.3045 -0.0922
10780TIP3    H153831   5.778   0.734  13.162 -1.7755 -0.3611  0.6986
10780TIP3    H253832   5.705   0.699  13.034 -1.5857 -1.0091  0.7660
10781TIP3   OH253833   0.429   3.946  14.245 -0.0965  0.0696  0.1777
10781TIP3    H153834   0.360   4.003  14.281  1.2461  0.5368  2.1415
10781TIP3    H253835   0.500   4.006  14.223 -0.3473 -0.3846 -2.0483
10782TIP3   OH253836   1.525   4.425   4.950 -0.6656 -0.1584  0.1175
10782TIP3    H153837   1.619   4.416   4.963 -0.7430 -0.9390  0.2019
10782TIP3    H253838   1.490   4.442   5.038 -0.7322 -1.1704  0.3015
10783TIP3   OH253839   4.073   0.205  13.081  0.3919  0.0987  0.5548
10783TIP3    H153840   4.162   0.213  13.046  0.1691  2.0604  0.3119
10783TIP3    H253841   4.063   0.283  13.136 -1.0200 -0.3529  0.9701
10784TIP3   OH253842   2.855   5.605   2.222  0.0351 -0.1509 -0.1277
10784TIP3    H153843   2.873   5.524   2.174  2.4424 -0.1720  0.6454
10784TIP3    H253844   2.870   5.675   2.158  2.2318 -0.2206  0.2117
10785TIP3   OH253845   6.019   6.768  13.599 -0.8046 -0.4698 -0.0367
10785TIP3    H153846   6.078   6.750  13.526 -0.3120 -1.3013  0.5591
10785TIP3    H253847   5.954   6.828  13.563 -0.4244 -0.6817 -1.0918
10786TIP3   OH253848   3.884   6.631   5.361 -0.3019  0.2945  0.5121
10786TIP3    H153849   3.956   6.571   5.386 -0.0486 -0.4713 -1.8573
10786TIP3    H253850   3.843   6.589   5.286 -2.1037  1.6401  0.6968
10787TIP3   OH253851   2.344   3.885  12.905  0.1284  0.1509 -0.0278
10787TIP3    H153852   2.348   3.968  12.857  1.8074 -0.6767 -1.4380
10787TIP3    H253853   2.434   3.854  12.907 -0.3605 -1.3041  1.1004
10788TIP3   OH253854   4.786   3.958  12.389 -0.2171 -0.1854  0.4122
10788TIP3    H153855   4.826   3.918  12.466 -0.7774  0.8101  1.2532
10788TIP3    H253856   4.696   3.925  12.388  0.4520 -2.1076 -1.2458
10789TIP3   OH253857   6.568   0.627  12.175 -0.1910  0.2735  0.5286
10789TIP3    H153858   6.573   0.660  12.085 -2.2440 -1.1041 -0.1678
10789TIP3    H253859   6.494   0.675  12.214 -0.1114 -0.0362  1.0722
10790TIP3   OH253860   6.822   2.809  14.991  0.2377 -0.0408 -0.0757
10790TIP3    H153861   6.906   2.774  15.020  1.0469  0.9345 -1.1728
10790TIP3    H253862   6.837   2.837  14.901 -1.0928  0.7495 -0.0755
10791TIP3   OH253863   1.798   0.541   5.999 -0.2385 -0.0915 -0.5711
10791TIP3    H153864   1.827   0.456   6.033 -0.6546  0.3310  0.9198
10791TIP3    H253865   1.874   0.576   5.952  1.0164  0.0914  1.4878
10792TIP3   OH253866   0.878   1.567  13.568 -0.1619  0.1675  0.1925
10792TIP3    H153867   0.857   1.530  13.654 -1.6643 -1.0264 -0.6444
10792TIP3    H253868   0.974   1.568  13.565 -0.0570  0.7160  2.0604
10793TIP3   OH253869   5.306   6.585  13.025  0.3430  0.0485  0.2402
10793TIP3    H153870   5.394   6.621  13.020 -0.0480  1.0398  0.2625
10793TIP3    H253871   5.307   6.528  13.101  0.9229  0.1914  0.3404
10794TIP3   OH253872   2.280   1.201   1.652  0.0085 -0.4510  0.0382
10794TIP3    H153873   2.280   1.113   1.688  0.5202 -0.2611  0.5186
10794TIP3    H253874   2.331   1.195   1.572 -0.4613 -0.7093 -0.2481
10795TIP3   OH253875   0.189   2.966   3.037  0.7354  0.0066  0.1963
10795TIP3    H153876   0.223   3.052   3.062  0.3528 -0.1303  1.2143
10795TIP3    H253877   0.133   2.984   2.961 -0.9246  0.9745  1.5687
10796TIP3   OH253878   3.259   0.649   0.066  0.1957 -0.9022 -0.6790
10796TIP3    H153879   3.279   0.642   0.159  0.9043 -0.5538 -0.7949
10796TIP3    H253880   3.216   0.567   0.044 -0.2555 -0.8558  0.0233
10797TIP3   OH253881   6.698   2.546   5.987  0.5966  0.4488  0.3150
10797TIP3    H153882   6.683   2.494   6.065 -1.6506  2.0612  1.0525
10797TIP3    H253883   6.710   2.635   6.019  0.0053  1.0941 -1.1543
10798TIP3   OH253884   4.326   0.359   5.277  0.1474  0.0632  0.4123
10798TIP3    H153885   4.411   0.390   5.245 -0.2089  0.9486  0.2813
10798TIP3    H253886   4.337   0.265   5.291  0.4914 -0.2607 -1.7740
10799TIP3   OH253887   3.987   4.545  12.290  0.3789 -0.1603  0.4586
10799TIP3    H153888   3.966   4.461  12.331 -1.8572  0.1773  0.1379
10799TIP3    H253889   3.968   4.532  12.197  2.1127  0.1016  0.0246
10800TIP3   OH253890   2.680   1.532   0.489  0.2140 -0.0035  0.0167
10800TIP3    H153891   2.658   1.468   0.557  2.2022  0.9112  1.6643
10800TIP3    H253892   2.687   1.482   0.409  1.1216 -1.7855  1.1420
10801TIP3   OH253893   3.631   4.146  14.186  0.0612  0.3238 -0.2606
10801TIP3    H153894   3.696   4.086  14.149  0.0482 -0.4836  0.9670
10801TIP3    H253895   3.547   4.111  14.157  0.1030  0.4612 -0.5516
10802TIP3   OH253896   1.278   4.387  12.025 -0.2573  0.8770  0.2264
10802TIP3    H153897   1.189   4.371  11.991  0.3768 -0.0345 -1.0915
10802TIP3    H253898   1.289   4.482  12.020  0.0201  0.7677 -2.8038
10803TIP3   OH253899   2.329   5.990   3.513  0.1360 -0.0453  0.2660
10803TIP3    H153900   2.399   6.033   3.562 -0.5691  2.3433 -0.6588
10803TIP3    H253901   2.372   5.918   3.468  1.7152  0.4903  0.8257
10804TIP3   OH253902   0.958   4.636  11.737 -0.1155 -0.2899 -0.1462
10804TIP3    H153903   1.034   4.694  11.738  0.1767 -0.6659  0.9131
10804TIP3    H253904   0.929   4.636  11.646  0.1450  1.1634 -0.2486
10805TIP3   OH253905   1.520   6.021  14.575 -0.1882  0.2076  0.2081
10805TIP3    H153906   1.551   5.975  14.497 -1.1619 -0.8120  0.4029
10805TIP3    H253907   1.561   5.974  14.648 -0.9964 -0.2220  0.3966
10806TIP3   OH253908   0.538   0.868   2.201  0.4886 -0.3079 -0.1074
10806TIP3    H153909   0.614   0.891   2.254  0.4784  0.6422 -0.4797
10806TIP3    H253910   0.551   0.915   2.119 -1.4406  1.5028  0.5306
10807TIP3   OH253911   5.639   2.018  12.651  0.1853 -0.0242  0.2968
10807TIP3    H153912   5.670   2.104  12.622  2.4068 -0.5230  1.0306
10807TIP3    H253913   5.660   2.015  12.744 -0.6585 -1.0484  0.4751
10808TIP3   OH253914   3.025   1.062  14.300 -0.9482  0.1750 -0.1412
10808TIP3    H153915   3.016   1.156  14.316  1.3946  0.2228  1.3362
10808TIP3    H253916   3.119   1.047  14.297 -1.2654 -2.0900 -0.8211
10809TIP3   OH253917   1.678   4.960  12.748 -0.1422  0.1665  0.2649
10809TIP3    H153918   1.657   5.040  12.796  1.3309  0.1233  1.0423
10809TIP3    H253919   1.671   4.890  12.813 -2.1913 -0.4878 -0.5861
10810TIP3   OH253920   4.364   2.045   0.317  0.0580  0.2522 -0.4306
10810TIP3    H153921   4.312   1.968   0.342  1.9667 -0.8409  0.4194
10810TIP3    H253922   4.409   2.019   0.237  1.3930  0.0949  0.3298
10811TIP3   OH253923   2.818   1.909  11.705 -0.6939  0.2440 -0.0101
10811TIP3    H153924   2.849   1.954  11.627  0.9294 -1.8475 -0.6794
10811TIP3    H253925   2.853   1.960  11.778  1.8382 -0.3130 -0.7390
10812TIP3   OH253926   1.015   0.023  10.650  0.1261  0.0583 -0.1702
10812TIP3    H153927   1.005  -0.034  10.726  2.5960 -0.6700 -0.3042
10812TIP3    H253928   0.927   0.055  10.632 -0.6417 -0.3258  2.5180
10813TIP3   OH253929   5.532   3.377   5.060  0.9573 -0.3441 -0.1957
10813TIP3    H153930   5.564   3.299   5.105 -0.4080 -1.5099 -1.1578
10813TIP3    H253931   5.606   3.405   5.006  1.0346 -1.8483 -0.9265
10814TIP3   OH253932   2.406   2.036   4.774 -0.2583  0.2178  0.1005
10814TIP3    H153933   2.487   2.005   4.816 -0.7409 -2.2212 -0.6007
10814TIP3    H253934   2.339   2.022   4.840 -0.5827 -0.9969 -0.4468
10815TIP3   OH253935   2.180   4.043  15.139  0.0278 -0.1031 -0.1216
10815TIP3    H153936   2.118   4.116  15.146  1.2631  0.9979 -0.2753
10815TIP3    H253937   2.263   4.084  15.114  1.0650 -1.4227  0.9839
10816TIP3   OH253938   5.701   2.468  16.836  0.1671 -0.1016  0.4894
10816TIP3    H153939   5.751   2.400  16.791  0.7894  0.9124 -0.4138
10816TIP3    H253940   5.615   2.466  16.795  0.3814  0.0612  0.0172
10817TIP3   OH253941   0.503   1.552   5.043  0.2438 -0.5315 -0.0009
10817TIP3    H153942   0.565   1.500   4.991 -0.1384 -2.3139  1.2466
10817TIP3    H253943   0.418   1.512   5.027 -0.2363  0.3643  0.2133
10818TIP3   OH253944   5.029   4.113  15.014  0.1452 -0.5954 -0.2553
10818TIP3    H153945   5.117   4.105  14.977  0.8760 -2.3222  1.6955
10818TIP3    H253946   4.981   4.039  14.977  0.0661 -0.7081  0.0685
10819TIP3   OH253947   2.189   1.434   4.476 -0.6710  0.7832 -0.2781
10819TIP3    H153948   2.111   1.432   4.533  0.0687  0.5171  0.7526
10819TIP3    H253949   2.259   1.398   4.530 -0.3261 -1.3876 -2.0224
10820TIP3   OH253950   3.768   3.498   1.579  0.0884  0.2110  0.2126
10820TIP3    H153951   3.684   3.514   1.621 -0.0381  0.0807  0.0078
10820TIP3    H253952   3.759   3.413   1.536  0.4927 -0.0454  0.6176
10821TIP3   OH253953   0.419   1.026   4.832 -0.0669 -0.6354 -0.1503
10821TIP3    H153954   0.477   1.095   4.801  1.6708 -2.5878 -1.5482
10821TIP3    H253955   0.454   0.946   4.793 -2.6820 -2.1806  0.4289
10822TIP3   OH253956   2.698   2.353   2.739  0.3261  0.7582  0.2619
10822TIP3    H153957   2.667   2.271   2.699 -0.4187  1.5247 -0.8010
10822TIP3    H253958   2.705   2.333   2.832 -1.2762 -0.1064  0.2433
10823TIP3   OH253959   1.395   1.448  15.330 -0.5931  0.4856 -0.0270
10823TIP3    H153960   1.464   1.482  15.274  0.1095 -0.7958  0.0199
10823TIP3    H253961   1.314   1.484  15.293  0.1097  2.6329  0.3801
10824TIP3   OH253962   4.902   3.070  14.692 -0.1229 -0.0237 -0.1812
10824TIP3    H153963   4.867   3.122  14.620  0.7544  0.8539  0.0045
10824TIP3    H253964   4.956   3.003  14.649  0.3532  0.4624 -0.3462
10825TIP3   OH253965   5.846   1.182  12.855 -0.3371  0.6610  0.3587
10825TIP3    H153966   5.927   1.184  12.804 -1.1022  1.5148 -0.8984
10825TIP3    H253967   5.784   1.136  12.798 -0.3344 -1.4815  1.9854
10826TIP3   OH253968   6.621   1.411  14.405  0.0536  0.3072  0.5246
10826TIP3    H153969   6.648   1.357  14.330  0.5122 -1.0395  1.6292
10826TIP3    H253970   6.686   1.482  14.406 -0.5835  0.9660 -0.9695
10827TIP3   OH253971   1.646   0.231   3.168 -0.2062 -0.0214 -0.4862
10827TIP3    H153972   1.597   0.153   3.140 -2.4059  1.3854 -0.7291
10827TIP3    H253973   1.726   0.195   3.207 -0.7246 -2.3626 -1.3687
10828TIP3   OH253974   4.203   0.741   3.578  0.3311 -0.3671  0.8088
10828TIP3    H153975   4.244   0.764   3.661  0.7129 -0.2522  0.5892
10828TIP3    H253976   4.131   0.683   3.603  1.0354 -1.1181  1.1501
10829TIP3   OH253977   1.439   1.455   3.649  0.6499  0.2059  0.6219
10829TIP3    H153978   1.426   1.542   3.612 -1.9717 -0.1248  0.5805
10829TIP3    H253979   1.387   1.397   3.594  2.0714 -1.3764  0.8453
10830TIP3   OH253980   0.672   4.726   1.646  0.1920  0.5705 -0.0466
10830TIP3    H153981   0.733   4.731   1.572 -2.0020  1.6359 -1.8926
10830TIP3    H253982   0.608   4.660   1.620 -0.6935  1.0443  0.8735
10831TIP3   OH253983   4.433   4.748  11.619 -0.1354 -0.1254  0.5196
10831TIP3    H153984   4.428   4.760  11.714  3.4415 -2.1177  1.1551
10831TIP3    H253985   4.355   4.699  11.596 -0.7001 -0.2816  2.5843
10832TIP3   OH253986   6.791   5.953  16.484 -0.5818 -0.1078 -0.6374
10832TIP3    H153987   6.701   5.982  16.472  0.2669  2.4949 -1.4573
10832TIP3    H253988   6.819   5.996  16.566 -0.1972 -1.2501 -0.1534
10833TIP3   OH253989   1.036   4.657   1.825 -0.5424  0.1687 -0.1737
10833TIP3    H153990   1.040   4.605   1.905 -0.9590  2.5110  1.4823
10833TIP3    H253991   0.959   4.713   1.836 -0.1834  1.0788 -1.8919
10834TIP3   OH253992   5.786   3.421  16.427 -0.2833 -0.3307  0.4507
10834TIP3    H153993   5.811   3.381  16.511  3.2011 -1.6441 -1.0419
10834TIP3    H253994   5.772   3.347  16.369  2.2702  0.4886 -1.3436
10835TIP3   OH253995   3.977   6.355  11.920 -0.1247 -0.3745 -0.4585
10835TIP3    H153996   4.009   6.440  11.890 -1.4787  0.6336  0.7725
10835TIP3    H253997   3.882   6.359  11.908 -0.6538 -0.2941  2.7291
10836TIP3   OH253998   2.646   2.603   2.630 -0.2834  0.5768 -0.1377
10836TIP3    H153999   2.653   2.514   2.665 -0.5492  0.9645  0.9664
10836TIP3    H254000   2.646   2.659   2.708 -0.1076  1.5478 -0.8126
10837TIP3   OH254001   5.892   0.468  15.812  0.0629 -0.1206 -0.1527
10837TIP3    H154002   5.891   0.399  15.879 -0.4008 -0.9399 -0.9697
10837TIP3    H254003   5.807   0.512  15.821 -0.3519 -0.7797 -0.7318
10838TIP3   OH254004   1.568   5.813  15.126  0.2204 -0.3659 -0.1026
10838TIP3    H154005   1.510   5.887  15.143  0.2566 -0.5067  0.6652
10838TIP3    H254006   1.650   5.837  15.170  0.1362 -0.9899  0.3939
10839TIP3   OH254007   6.377   1.819  12.950 -0.1614 -0.0656  0.1820
10839TIP3    H154008   6.438   1.848  13.018 -0.8254  2.1379 -0.0724
10839TIP3    H254009   6.376   1.892  12.887 -0.9978 -1.2312 -1.2105
10840TIP3   OH254010   0.751   3.970  15.985  0.2523 -0.1622  0.0402
10840TIP3    H154011   0.841   3.940  15.976  0.2955 -0.0475  0.0997
10840TIP3    H254012   0.706   3.895  16.025  0.0876 -0.6205 -0.9632
10841TIP3   OH254013   1.404   1.110  13.454 -0.0060  0.0301  0.0313
10841TIP3    H154014   1.327   1.153  13.492 -0.3216  2.0608 -2.5958
10841TIP3    H254015   1.372   1.071  13.372  1.4237 -0.5780 -0.2626
10842TIP3   OH254016   5.474   3.930  16.213  0.1290  0.3002  0.4894
10842TIP3    H154017   5.508   4.012  16.248  0.9849  1.1188 -2.0955
10842TIP3    H254018   5.466   3.945  16.119 -2.0293 -1.7898  0.2487
10843TIP3   OH254019   4.318   6.586  10.983 -0.4427  0.1749 -0.2897
10843TIP3    H154020   4.273   6.621  11.060 -0.4647  0.7604 -0.5606
10843TIP3    H254021   4.355   6.664  10.940 -1.6259  0.0172 -1.6471
10844TIP3   OH254022   0.466   5.981  13.912  0.3668  0.7695  0.7766
10844TIP3    H154023   0.390   5.936  13.877  2.4195 -1.4404 -1.2837
10844TIP3    H254024   0.480   6.054  13.852 -1.1299  2.3370  2.2576
10845TIP3   OH254025   5.035   6.088   2.834 -0.4090  0.0354  0.0035
10845TIP3    H154026   4.998   6.172   2.859 -0.9707 -0.0779 -0.4444
10845TIP3    H254027   4.996   6.068   2.749 -0.5438 -0.8408  0.2626
10846TIP3   OH254028   4.814   5.564   4.177  0.5907  0.0132  0.0260
10846TIP3    H154029   4.802   5.619   4.255 -0.7929 -0.6055  0.2836
10846TIP3    H254030   4.798   5.475   4.208  0.0448 -0.2462 -0.9609
10847TIP3   OH254031   6.406   4.440   3.067 -0.6504 -0.0928  0.1156
10847TIP3    H154032   6.328   4.462   3.118 -1.0829 -0.5573 -0.3200
10847TIP3    H254033   6.372   4.391   2.992  0.1467 -1.0859  0.3814
10848TIP3   OH254034   5.940   1.075  16.688 -0.5296  0.1732 -0.1378
10848TIP3    H154035   5.848   1.073  16.661 -0.7499 -0.7955  0.6091
10848TIP3    H254036   5.945   1.009  16.757  0.5752  0.7242  0.3221
10849TIP3   OH254037   4.016   3.194   0.165  0.0550  0.4368  0.5777
10849TIP3    H154038   4.050   3.270   0.117 -0.6993  0.3371 -0.1271
10849TIP3    H254039   4.022   3.121   0.103 -2.5211  0.6460 -0.0450
10850TIP3   OH254040   6.498   5.998  14.541 -0.2064 -0.4261  0.2679
10850TIP3    H154041   6.550   5.930  14.583 -2.3668 -1.9697  0.5954
10850TIP3    H254042   6.525   5.996  14.449  0.2024 -1.2982  0.3998
10851TIP3   OH254043   0.471   1.828  15.709 -0.2871  0.1147 -0.2101
10851TIP3    H154044   0.381   1.859  15.716  0.1566  1.6983 -1.1647
10851TIP3    H254045   0.519   1.901  15.671  1.6564 -0.2393  1.3641
10852TIP3   OH254046   0.236   1.155   1.111 -0.7765  0.2967 -0.1057
10852TIP3    H154047   0.243   1.105   1.029  1.9584 -0.7685  0.6425
10852TIP3    H254048   0.163   1.114   1.158 -0.8839 -0.6287 -1.0441
10853TIP3   OH254049   0.901   2.204  11.828  0.2346 -0.2148  0.4366
10853TIP3    H154050   0.919   2.167  11.741  2.5366  0.0299  0.7530
10853TIP3    H254051   0.924   2.134  11.889  1.1015  0.4585  0.9064
10854TIP3   OH254052   4.911   0.068  12.031 -0.1531 -0.1207 -0.5587
10854TIP3    H154053   4.909   0.089  11.938  0.5992 -2.8952 -1.2805
10854TIP3    H254054   4.977   0.129  12.067 -1.3715  1.8699 -1.5087
10855TIP3   OH254055   5.770   3.903  14.382  0.3225 -0.5365  0.2440
10855TIP3    H154056   5.804   3.960  14.451 -0.4162 -0.0103  0.1862
10855TIP3    H254057   5.827   3.826  14.384  1.5758  0.3583  0.0752
10856TIP3   OH254058   3.073   0.815   4.884 -0.1649 -0.1461 -0.1833
10856TIP3    H154059   2.995   0.792   4.833 -1.5702 -0.3763  1.9101
10856TIP3    H254060   3.038   0.866   4.958  1.6633 -0.3766  0.8958
10857TIP3   OH254061   3.960   2.924  13.108 -0.2696 -0.0983  0.1820
10857TIP3    H154062   4.034   2.945  13.052 -0.1724 -0.3361  0.2205
10857TIP3    H254063   3.943   3.005  13.156 -0.2695  0.0663 -0.0934
10858TIP3   OH254064   3.661   0.092  15.423 -0.2654 -0.2369 -0.0266
10858TIP3    H154065   3.643   0.147  15.348 -0.6765 -0.5796 -0.1866
10858TIP3    H254066   3.602   0.017  15.413 -0.9278  0.1131  1.0682
10859TIP3   OH254067   1.053   3.968   4.865  0.0782  0.7756 -0.2747
10859TIP3    H154068   1.053   3.890   4.809 -1.1410  1.1353 -0.8228
10859TIP3    H254069   1.057   4.041   4.803  0.9405  1.1620  0.2242
10860TIP3   OH254070   4.986   2.325   0.957  0.0325  0.0733 -0.9119
10860TIP3    H154071   4.968   2.360   1.044 -0.4480  1.4664 -1.5375
10860TIP3    H254072   5.027   2.240   0.973  0.9072  0.7482  0.6744
10861TIP3   OH254073   5.390   0.913   4.318  0.1542 -0.0125  0.6915
10861TIP3    H154074   5.430   0.984   4.369  0.7715  0.0304  0.1482
10861TIP3    H254075   5.327   0.958   4.261  0.8676  0.1581  0.0247
10862TIP3   OH254076   4.190   1.003   4.864  0.6371  0.4175  0.0563
10862TIP3    H154077   4.137   0.951   4.803  2.0886 -0.2718 -0.6758
10862TIP3    H254078   4.155   0.982   4.951 -0.7889  0.6135 -0.4452
10863TIP3   OH254079   0.910   6.387  10.883  0.5133  0.3966 -0.6593
10863TIP3    H154080   0.902   6.292  10.873 -0.1438  0.2061  1.3287
10863TIP3    H254081   0.823   6.421  10.864  0.2626  0.4034  0.4610
10864TIP3   OH254082   6.128   1.669  15.369 -0.3790 -0.2045 -0.6867
10864TIP3    H154083   6.045   1.672  15.416 -0.0118 -0.9522  0.0344
10864TIP3    H254084   6.104   1.650  15.278 -0.8762 -3.2001 -0.0142
10865TIP3   OH254085   3.352   4.733   0.243 -0.2321  0.6709 -0.2554
10865TIP3    H154086   3.322   4.658   0.294  1.1445  0.2024 -0.1068
10865TIP3    H254087   3.406   4.783   0.304 -1.2594  1.8840 -0.3075
10866TIP3   OH254088   4.390   0.455  12.124 -0.7142  0.2115  0.1271
10866TIP3    H154089   4.468   0.504  12.149 -1.4631  0.5889  1.8567
10866TIP3    H254090   4.322   0.523  12.113 -0.9812 -0.1700 -0.7193
10867TIP3   OH254091   3.149   3.232   4.081 -1.0041  0.4827 -0.2698
10867TIP3    H154092   3.177   3.237   3.990  1.6191  2.4983  0.5040
10867TIP3    H254093   3.216   3.179   4.124 -1.6953  0.3329  0.6725
10868TIP3   OH254094   1.658   6.317  11.684  0.0631  0.2380  0.4090
10868TIP3    H154095   1.707   6.236  11.680 -1.1963 -0.5120 -0.6231
10868TIP3    H254096   1.651   6.337  11.777  0.4563 -0.7826  0.6615
10869TIP3   OH254097   1.304   5.049  12.868  0.0609  0.0908 -0.0580
10869TIP3    H154098   1.218   5.040  12.909  0.3758  0.2554  0.6639
10869TIP3    H254099   1.290   5.027  12.776 -0.6279 -0.4997  0.1790
10870TIP3   OH254100   3.849   4.357  13.774 -0.0261 -0.0971 -0.0130
10870TIP3    H154101   3.797   4.436  13.757 -0.6626 -0.4015  0.4687
10870TIP3    H254102   3.865   4.359  13.869 -0.0445 -0.5416  0.0010
10871TIP3   OH254103   1.711   4.598   3.558  0.2425  0.2490 -0.9929
10871TIP3    H154104   1.785   4.584   3.499  1.7109  0.4643  0.7290
10871TIP3    H254105   1.714   4.691   3.579  0.6240 -0.0916  0.5343
10872TIP3   OH254106   4.403   1.447  13.804 -0.3209 -0.1467 -0.7836
10872TIP3    H154107   4.331   1.502  13.837  1.1087  1.6819 -0.5454
10872TIP3    H254108   4.458   1.431  13.881 -0.4967 -1.6187 -0.9417
10873TIP3   OH254109   0.501   5.475  11.107 -0.5386 -0.4977  0.3540
10873TIP3    H154110   0.528   5.527  11.182 -0.8359 -0.4933  0.4592
10873TIP3    H254111   0.583   5.444  11.068 -0.2871  1.1672 -0.5266
10874TIP3   OH254112   2.915   6.824   3.294 -0.3773  0.1139 -0.2402
10874TIP3    H154113   2.897   6.907   3.339  0.7461 -0.2663  0.9894
10874TIP3    H254114   2.901   6.842   3.202  2.4937  2.4825 -0.3465
10875TIP3   OH254115   3.487   0.551  13.292  0.1854  0.3398  0.4133
10875TIP3    H154116   3.571   0.574  13.251 -0.0943 -1.9037 -1.6272
10875TIP3    H254117   3.426   0.615  13.257 -0.2541 -2.0057 -3.8389
10876TIP3   OH254118   4.142   1.119   4.365  0.1244 -0.1519 -0.0804
10876TIP3    H154119   4.105   1.188   4.308 -1.2169  0.8023  1.8355
10876TIP3    H254120   4.079   1.047   4.358  0.3412 -0.3213 -0.3300
10877TIP3   OH254121   0.183   2.565   4.595  0.5260 -0.3798 -0.0182
10877TIP3    H154122   0.229   2.512   4.530 -0.1344  0.3324 -1.0891
10877TIP3    H254123   0.100   2.588   4.554 -1.2247 -2.2923  2.1657
10878TIP3   OH254124   2.261   1.893   3.694  0.1139  0.1632 -0.3409
10878TIP3    H154125   2.356   1.900   3.707 -0.0254 -0.1972  1.0525
10878TIP3    H254126   2.239   1.806   3.727 -0.6516  0.0496 -1.1158
10879TIP3   OH254127   1.494   3.544   5.060 -0.6334  0.3028 -0.3118
10879TIP3    H154128   1.570   3.521   5.112 -0.0285 -1.0106 -1.6941
10879TIP3    H254129   1.428   3.478   5.083 -0.8408  0.5526 -0.1910
10880TIP3   OH254130   1.049   1.573  11.453  1.2324  0.0795  0.2260
10880TIP3    H154131   1.054   1.591  11.359 -0.8898  0.5291  0.1443
10880TIP3    H254132   1.129   1.612  11.490  1.9337  0.1764 -1.3272
10881TIP3   OH254133   1.173   6.048  13.517 -0.2250  0.3005  0.2276
10881TIP3    H154134   1.145   6.072  13.606 -1.3609 -0.1729  0.0187
10881TIP3    H254135   1.231   5.973  13.529 -2.9764 -1.9919  0.4628
10882TIP3   OH254136   6.123   6.390  12.952  0.3918 -0.2692  0.4699
10882TIP3    H154137   6.177   6.469  12.952 -0.5111  0.3656  0.7391
10882TIP3    H254138   6.037   6.419  12.984  0.5237 -1.6890  2.3573
10883TIP3   OH254139   4.225   6.658  16.728  1.5168  0.1730  0.3801
10883TIP3    H154140   4.215   6.746  16.694  0.0067  0.6480  1.9351
10883TIP3    H254141   4.184   6.602  16.662  1.5238  0.7347 -0.1063
10884TIP3   OH254142   5.908   2.208   6.354  0.5691 -0.7549  0.1373
10884TIP3    H154143   5.880   2.294   6.387 -2.0418 -0.6329 -1.9734
10884TIP3    H254144   5.863   2.145   6.410  0.8904 -0.6923  0.4649
10885TIP3   OH254145   6.051   4.837   1.028 -0.0636 -0.3735 -0.5217
10885TIP3    H154146   5.988   4.885   1.081 -0.5698 -0.0494 -1.3918
10885TIP3    H254147   6.136   4.868   1.058 -0.3135 -0.5755  0.4432
10886TIP3   OH254148   3.706   0.920  15.410 -0.5540  0.4285  0.0413
10886TIP3    H154149   3.784   0.975  15.420  1.5129 -2.5288  2.1490
10886TIP3    H254150   3.701   0.902  15.316  2.7463 -0.9715 -0.0060
10887TIP3   OH254151   6.372   2.895   1.777  0.2283 -0.1192  0.5671
10887TIP3    H154152   6.428   2.830   1.819 -1.0523 -0.7449  1.3794
10887TIP3    H254153   6.347   2.954   1.848  0.9351  0.9538 -0.0562
10888TIP3   OH254154   1.160   3.789   1.689 -0.1937 -0.4405 -0.0214
10888TIP3    H154155   1.101   3.852   1.646  0.6327  0.9716  0.8285
10888TIP3    H254156   1.245   3.804   1.647 -0.1364 -1.5111 -0.3031
10889TIP3   OH254157   2.377   0.114   3.041  0.0864 -0.0131 -0.0638
10889TIP3    H154158   2.377   0.202   3.076  0.2345  0.5185 -1.3384
10889TIP3    H254159   2.379   0.126   2.946 -0.7703 -1.3688 -0.2869
10890TIP3   OH254160   3.496   2.335   1.002 -0.7305  0.5477  0.0601
10890TIP3    H154161   3.583   2.336   1.042 -0.3040  0.6851 -0.8235
10890TIP3    H254162   3.438   2.305   1.071 -0.1430  1.4425  0.9706
10891TIP3   OH254163   6.395   3.140  13.698  0.1115  0.4539 -0.0965
10891TIP3    H154164   6.447   3.174  13.770 -0.6865 -1.5859  1.5450
10891TIP3    H254165   6.458   3.091  13.644  0.3401  0.0928  0.4873
10892TIP3   OH254166   2.469   3.066  13.261 -0.1323  0.3878  0.1337
10892TIP3    H154167   2.385   3.038  13.225  0.0726 -1.1194  0.7289
10892TIP3    H254168   2.530   3.060  13.188 -0.4669  1.1830 -0.2216
10893TIP3   OH254169   2.535   1.202   3.464  0.2615 -0.2604 -0.2959
10893TIP3    H154170   2.543   1.193   3.559  2.8801  1.2118 -0.2517
10893TIP3    H254171   2.493   1.121   3.435 -0.6156 -0.7407  2.0873
10894TIP3   OH254172   6.736   2.879   5.478 -0.2421  0.2904 -0.0005
10894TIP3    H154173   6.698   2.862   5.564 -2.2483 -0.2104 -0.9247
10894TIP3    H254174   6.784   2.799   5.456 -0.9897 -0.1795  0.0410
10895TIP3   OH254175   0.899   4.475  14.608 -0.1242  0.3423 -0.1419
10895TIP3    H154176   0.955   4.493  14.683 -1.6978 -0.7403  1.3614
10895TIP3    H254177   0.960   4.462  14.535  1.4686  0.8078  1.0471
10896TIP3   OH254178   4.505   0.426   0.186 -0.0493  0.2079  0.3558
10896TIP3    H154179   4.426   0.456   0.230  0.1767  2.0398 -0.4020
10896TIP3    H254180   4.498   0.331   0.186 -1.2573  0.2543  2.0759
10897TIP3   OH254181   6.244   5.525   3.605  0.2588  0.5183 -0.2216
10897TIP3    H154182   6.294   5.569   3.674  0.9633 -1.6729  0.7305
10897TIP3    H254183   6.179   5.474   3.652 -0.1903  0.0939 -1.2730
10898TIP3   OH254184   3.468   3.974   1.822  0.1851 -0.3107 -0.5735
10898TIP3    H154185   3.441   3.883   1.827 -1.0625  0.1129  1.1921
10898TIP3    H254186   3.495   3.997   1.911 -1.6995  1.6157 -0.3919
10899TIP3   OH254187   1.071   1.152  10.301  0.4246  1.1299 -0.0561
10899TIP3    H154188   1.163   1.132  10.314  0.6038  1.6463 -0.5225
10899TIP3    H254189   1.063   1.245  10.324  0.3453  1.5202 -1.5564
10900TIP3   OH254190   3.101   4.533   0.087  0.8008 -0.1780 -0.3389
10900TIP3    H154191   3.047   4.454   0.093 -0.8851  0.9734  0.2381
10900TIP3    H254192   3.127   4.552   0.177 -0.2823  0.8709 -0.2161
10901TIP3   OH254193   0.158   2.574  16.962  0.5627  0.1968  0.0422
10901TIP3    H154194   0.206   2.514  16.904  0.3596  0.4867 -0.4257
10901TIP3    H254195   0.094   2.617  16.906  1.3041  1.5289  0.1752
10902TIP3   OH254196   4.940   4.303  14.287  0.6585  0.9000 -0.4382
10902TIP3    H154197   4.987   4.300  14.204 -2.0499  1.9594 -2.1316
10902TIP3    H254198   4.971   4.383  14.329  1.1031  1.0398 -1.0104
10903TIP3   OH254199   2.751   6.158   3.899 -0.0154 -0.4238  0.1388
10903TIP3    H154200   2.679   6.221   3.897 -0.8620 -1.3039 -2.8143
10903TIP3    H254201   2.780   6.156   3.990 -3.8983 -0.2238  1.5347
10904TIP3   OH254202   0.703   4.096   5.272 -0.3877  0.2387  0.2532
10904TIP3    H154203   0.750   4.161   5.323 -1.0353  0.4697  0.5738
10904TIP3    H254204   0.763   4.070   5.203 -0.4716  1.9133 -0.4854
10905TIP3   OH254205   0.186   1.975   5.202  0.6202  0.5642 -0.1002
10905TIP3    H154206   0.183   1.880   5.189  0.4559  0.4494  0.7459
10905TIP3    H254207   0.258   2.005   5.146  1.5157 -0.2198  0.6186
10906TIP3   OH254208   3.314   1.147  13.788  0.3214 -0.6376  0.1639
10906TIP3    H154209   3.242   1.098  13.827 -0.4911  1.0172  0.8400
10906TIP3    H254210   3.382   1.148  13.855 -0.0010 -0.1145  0.4852
10907TIP3   OH254211   2.170   5.297   5.117  0.1720  0.4794 -0.5381
10907TIP3    H154212   2.151   5.204   5.104 -0.0213  0.3205  0.8287
10907TIP3    H254213   2.218   5.301   5.200 -0.0835  1.6329 -0.4334
10908TIP3   OH254214   3.907   2.829  16.289 -0.2524 -0.2188  0.6566
10908TIP3    H154215   3.997   2.861  16.293 -0.3029 -0.1678  1.7786
10908TIP3    H254216   3.865   2.868  16.366 -1.5884  0.7717 -0.5277
10909TIP3   OH254217   2.263   2.830   3.682 -0.6020  0.0145  0.2408
10909TIP3    H154218   2.347   2.872   3.661 -1.0850  0.7372 -0.2791
10909TIP3    H254219   2.263   2.822   3.777 -0.2919  0.7624  0.3095
10910TIP3   OH254220   1.431   4.169  14.342  0.3714 -0.1192  0.8353
10910TIP3    H154221   1.447   4.167  14.248  0.8510 -0.6882  0.9185
10910TIP3    H254222   1.515   4.194  14.381  0.5680 -1.2375  1.1758
10911TIP3   OH254223   2.079   5.811  14.457  0.0026  0.1570 -0.1368
10911TIP3    H154224   1.984   5.812  14.463 -0.1582  1.3540 -1.9237
10911TIP3    H254225   2.102   5.719  14.447 -0.8360 -0.2632  1.4011
10912TIP3   OH254226   4.563   1.617  13.446  0.3718 -0.4170  0.1328
10912TIP3    H154227   4.565   1.521  13.436  1.7314 -0.2688 -1.7405
10912TIP3    H254228   4.470   1.639  13.447  0.0307 -1.7544  0.5487
10913TIP3   OH254229   3.728   3.148  13.413 -0.0075  0.6704  0.6598
10913TIP3    H154230   3.667   3.172  13.483  0.1326  1.9801  0.3556
10913TIP3    H254231   3.758   3.232  13.378 -1.1915  0.0936 -1.9583
10914TIP3   OH254232   2.438   2.988  11.857  0.6409 -0.2561  0.1837
10914TIP3    H154233   2.344   2.971  11.850  0.2437  2.0608 -1.3192
10914TIP3    H254234   2.450   3.022  11.946 -0.4537  1.8302 -0.4059
10915TIP3   OH254235   4.961   0.874   3.553 -0.9619  0.1002  0.1853
10915TIP3    H154236   4.879   0.892   3.508 -1.0781 -1.7765 -0.4139
10915TIP3    H254237   5.021   0.846   3.483 -0.5663 -0.9416  0.9218
10916TIP3   OH254238   0.144   4.246   2.677 -0.0375  0.4417  0.6306
10916TIP3    H154239   0.179   4.199   2.752  0.1248 -0.6487 -0.0996
10916TIP3    H254240   0.209   4.231   2.608 -1.2197 -0.4223 -0.3385
10917TIP3   OH254241   2.801   0.933  14.216  0.3119  0.3774 -0.5820
10917TIP3    H154242   2.782   1.000  14.150 -0.1157  0.1315 -0.7119
10917TIP3    H254243   2.890   0.952  14.245  0.5259  0.4440 -1.2830
10918TIP3   OH254244   5.786   4.286  13.178 -0.3588 -0.2077  0.1628
10918TIP3    H154245   5.802   4.379  13.166 -1.2652 -0.1994 -1.2632
10918TIP3    H254246   5.870   4.244  13.161 -0.1455  0.2936 -0.0298
10919TIP3   OH254247   5.870   6.569  13.005 -0.4020 -0.5782  0.0607
10919TIP3    H154248   5.794   6.514  12.985 -0.6721  0.1418 -1.0125
10919TIP3    H254249   5.896   6.604  12.920  0.8814 -0.4809  0.4770
10920TIP3   OH254250   2.030   5.471  13.665  0.5904 -0.2532 -0.1406
10920TIP3    H154251   1.965   5.541  13.656 -1.0534 -1.7066 -0.1686
10920TIP3    H254252   2.070   5.487  13.750 -0.5559  0.0976  0.3548
10921TIP3   OH254253   4.513   5.766  13.344  0.2501 -0.1326  0.0248
10921TIP3    H154254   4.527   5.741  13.435  0.6267  0.6276  0.1858
10921TIP3    H254255   4.502   5.861  13.347 -2.7674 -0.3621 -0.3424
10922TIP3   OH254256   5.375   6.025   3.587 -0.1736  0.2965  0.1136
10922TIP3    H154257   5.444   6.082   3.554 -0.1911 -0.9926 -2.4246
10922TIP3    H254258   5.414   5.979   3.660  0.7003  1.6112  0.5018
10923TIP3   OH254259   4.847   5.041  14.932 -0.2589 -0.2484  0.1717
10923TIP3    H154260   4.830   5.082  15.017  1.0032  0.0175  0.3134
10923TIP3    H254261   4.799   4.958  14.936  0.6222 -0.7452  1.5800
10924TIP3   OH254262   2.741   2.682  13.136  0.0699  0.1228 -0.5167
10924TIP3    H154263   2.758   2.734  13.215 -0.2661  0.1704 -0.4738
10924TIP3    H254264   2.733   2.592  13.168  0.8592  0.0123 -0.6168
10925TIP3   OH254265   1.541   2.757   5.075 -0.2893  0.3251  0.1679
10925TIP3    H154266   1.601   2.682   5.074 -1.2305 -0.4513 -1.0477
10925TIP3    H254267   1.534   2.781   5.168 -0.1719 -1.2566  0.6101
10926TIP3   OH254268   0.320   6.124   1.457 -0.5289 -0.3803  0.1563
10926TIP3    H154269   0.276   6.185   1.516 -0.0646  0.5919 -0.4637
10926TIP3    H254270   0.408   6.162   1.444 -0.2551 -1.1432 -0.2971
10927TIP3   OH254271   0.560   2.350   2.993  0.1666 -0.6250 -0.8722
10927TIP3    H154272   0.632   2.360   3.054  0.3784 -1.5343 -0.9580
10927TIP3    H254273   0.602   2.336   2.908 -0.1237  0.3343 -1.1911
10928TIP3   OH254274   0.678   2.739   5.897  0.4506  0.3549  0.4051
10928TIP3    H154275   0.629   2.657   5.885  1.0484 -0.0027  0.3084
10928TIP3    H254276   0.633   2.803   5.842  1.1571 -0.4246 -1.1616
10929TIP3   OH254277   2.574   0.200  12.999 -0.3054  0.1279  0.2681
10929TIP3    H154278   2.518   0.250  12.939 -0.0005  0.0443 -0.0886
10929TIP3    H254279   2.517   0.129  13.030 -0.1729 -0.4251 -0.7103
10930TIP3   OH254280   6.372   0.094   0.809  0.9328 -0.3244 -0.0461
10930TIP3    H154281   6.321   0.014   0.793  1.7827 -1.0432  0.7147
10930TIP3    H254282   6.397   0.124   0.722 -1.6014  0.6374 -0.5228
10931TIP3   OH254283   1.550   3.426   6.198  0.5168  0.5305 -0.1011
10931TIP3    H154284   1.550   3.357   6.265  0.0918  1.3753  0.7973
10931TIP3    H254285   1.458   3.454   6.194  0.2956 -0.2939 -1.8991
10932TIP3   OH254286   1.697   4.866  11.660 -0.2461  0.3089  0.5284
10932TIP3    H154287   1.665   4.844  11.572  0.6747  2.1419 -0.3357
10932TIP3    H254288   1.685   4.961  11.666  0.6450  0.3599  2.0031
10933TIP3   OH254289   2.552   0.213   2.522 -0.0751  0.1002  0.0557
10933TIP3    H154290   2.507   0.155   2.461  0.4093 -0.4003  0.1718
10933TIP3    H254291   2.547   0.300   2.481  0.9594 -0.3552 -1.1067
10934TIP3   OH254292   4.948   0.063   4.949 -0.4339 -1.1884 -0.0951
10934TIP3    H154293   4.867   0.039   4.993  0.6225 -2.1680  1.4291
10934TIP3    H254294   4.973  -0.015   4.899 -1.2452 -0.3310 -1.9052
10935TIP3   OH254295   6.534   5.289   3.591 -0.2811  0.2409 -0.6341
10935TIP3    H154296   6.618   5.260   3.556  0.2786  1.1200 -0.0496
10935TIP3    H254297   6.498   5.345   3.523 -0.3102  0.0285 -0.7976
10936TIP3   OH254298   2.753   5.247   1.845  0.1995 -0.0043 -0.0761
10936TIP3    H154299   2.823   5.213   1.902 -0.1029 -2.1756 -0.8833
10936TIP3    H254300   2.709   5.314   1.897  1.2593 -0.4311  1.4267
10937TIP3   OH254301   5.694   0.713  12.097  0.4065 -0.0431  0.8380
10937TIP3    H154302   5.608   0.751  12.116 -0.0742 -0.8337  0.2551
10937TIP3    H254303   5.692   0.693  12.004  2.2792  2.5817  0.0956
10938TIP3   OH254304   5.585   4.558   1.057  0.1944 -0.4943 -0.0992
10938TIP3    H154305   5.563   4.478   1.106  0.9809 -0.8902 -0.3607
10938TIP3    H254306   5.584   4.627   1.122 -3.2724 -0.1639 -0.3428
10939TIP3   OH254307   3.980   2.308   2.008 -0.2794  0.6130  0.2068
10939TIP3    H154308   3.976   2.293   2.102  1.5895  1.2750  0.4411
10939TIP3    H254309   3.975   2.403   1.998 -1.3586  0.5084 -0.4507
10940TIP3   OH254310   5.393   1.113  13.077 -0.2554  0.2514 -0.2779
10940TIP3    H154311   5.385   1.091  12.985  1.6708 -0.8060 -0.2482
10940TIP3    H254312   5.304   1.107  13.112 -1.0840  1.1286 -2.1372
10941TIP3   OH254313   5.378   5.145  17.253  0.6208  0.2048 -0.1478
10941TIP3    H154314   5.425   5.131  17.170 -0.2251 -1.0300 -0.4486
10941TIP3    H254315   5.295   5.185  17.226  0.3727 -0.1378  0.1002
10942TIP3   OH254316   5.371   4.917   1.894  0.1784 -1.1397  0.6460
10942TIP3    H154317   5.418   4.915   1.810 -0.7040 -0.7685  0.1327
10942TIP3    H254318   5.280   4.897   1.871 -0.4905  1.0286  1.2157
10943TIP3   OH254319   3.065   2.556  10.946 -0.0762 -0.2245  0.0760
10943TIP3    H154320   3.110   2.632  10.908 -0.7557  0.1687  0.0409
10943TIP3    H254321   2.984   2.592  10.982 -0.1092 -0.8342  0.6291
10944TIP3   OH254322   2.527   5.911   1.321 -0.4308 -0.1232 -0.1611
10944TIP3    H154323   2.510   5.895   1.228 -2.7554 -1.0238  0.3509
10944TIP3    H254324   2.587   5.986   1.321  0.8761 -1.0378 -2.3821
10945TIP3   OH254325   6.682   1.907  14.892 -0.6003 -0.3681 -0.0801
10945TIP3    H154326   6.604   1.854  14.909 -1.1996  0.5627  0.1552
10945TIP3    H254327   6.650   1.997  14.893  0.8184  0.2096  2.2084
10946TIP3   OH254328   3.748   1.473   1.731  0.2446  0.2381 -0.0463
10946TIP3    H154329   3.811   1.401   1.739  0.0991  0.3150  3.6547
10946TIP3    H254330   3.783   1.541   1.789 -1.7328  1.4535 -0.1915
10947TIP3   OH254331   3.285   5.812   2.670  0.4127  0.0136 -0.3404
10947TIP3    H154332   3.276   5.743   2.604  0.7640  0.2795 -0.6785
10947TIP3    H254333   3.203   5.860   2.666  0.3819 -0.0515 -0.5001
10948TIP3   OH254334   2.078   4.530  12.173 -0.1370 -0.2085  0.1747
10948TIP3    H154335   2.062   4.499  12.084  1.2041  1.3880 -0.6605
10948TIP3    H254336   1.993   4.565  12.202 -0.2953  0.3594 -0.9283
10949TIP3   OH254337   5.805   5.252  14.159  0.0009 -0.2424 -0.2756
10949TIP3    H154338   5.805   5.306  14.238 -0.2949  0.4801 -0.7545
10949TIP3    H254339   5.868   5.294  14.101  2.0819 -2.1562  0.4543
10950TIP3   OH254340   4.063   3.137  12.418  0.5229  0.0065 -0.5681
10950TIP3    H154341   4.018   3.220  12.435 -0.3520 -0.8621  1.6937
10950TIP3    H254342   4.152   3.162  12.394  0.0891  1.6134 -0.5823
10951TIP3   OH254343   4.954   1.845   2.660 -0.5559 -0.5778  0.1632
10951TIP3    H154344   4.907   1.867   2.580 -1.5830  1.7804  1.3225
10951TIP3    H254345   5.044   1.876   2.646 -1.3941  2.5314  0.8480
10952TIP3   OH254346   6.313   4.558   2.277  0.1635  0.2803 -0.3109
10952TIP3    H154347   6.380   4.550   2.209 -1.2136  0.1257 -1.7377
10952TIP3    H254348   6.272   4.471   2.280  0.8302 -0.0078  1.4610
10953TIP3   OH254349   2.422   2.972   2.940  0.1575 -0.1393 -0.0997
10953TIP3    H154350   2.478   2.894   2.937  0.0331 -0.2062 -2.3479
10953TIP3    H254351   2.458   3.029   2.872 -0.7972  1.0393  0.3550
10954TIP3   OH254352   6.353   1.059  14.657 -0.1535 -0.1298  0.1257
10954TIP3    H154353   6.401   1.134  14.692 -0.7238  0.8852 -1.1919
10954TIP3    H254354   6.374   0.987  14.717  3.2473  0.1442 -0.5119
10955TIP3   OH254355   1.648   1.789   2.777 -0.2073  0.1668  0.2408
10955TIP3    H154356   1.666   1.815   2.868 -0.4149 -1.4860  0.7806
10955TIP3    H254357   1.655   1.871   2.728  1.4813  0.8353  1.4994
10956TIP3   OH254358   2.774   5.946  13.798  0.3669 -0.1818 -0.7121
10956TIP3    H154359   2.682   5.969  13.783  0.4726 -0.9207 -2.9434
10956TIP3    H254360   2.771   5.851  13.813  0.7531 -0.1793 -0.6353
10957TIP3   OH254361   2.416   0.929   4.801 -0.3258 -0.2364  0.2236
10957TIP3    H154362   2.479   0.888   4.860  0.2474  1.5013  0.8971
10957TIP3    H254363   2.335   0.937   4.853 -0.2411  0.0378  0.3178
10958TIP3   OH254364   1.465   4.292   5.884 -0.4930 -0.1915 -0.1782
10958TIP3    H154365   1.475   4.243   5.802  2.3363  0.0378 -0.0956
10958TIP3    H254366   1.428   4.228   5.945 -1.6681 -0.6729 -1.3366
10959TIP3   OH254367   3.802   1.003  12.602  0.4565  0.0207  0.3431
10959TIP3    H154368   3.707   1.014  12.605  0.4125  0.2709 -1.0431
10959TIP3    H254369   3.827   0.981  12.692 -0.8908  0.0689  0.7527
10960TIP3   OH254370   1.597   2.974  12.459 -0.2197  0.2004 -0.4883
10960TIP3    H154371   1.631   2.948  12.544  0.4935 -0.4781 -0.9717
10960TIP3    H254372   1.576   2.892  12.414  0.0967  0.5198 -1.2421
10961TIP3   OH254373   6.284   3.257  17.112 -0.5086 -0.3166  0.7222
10961TIP3    H154374   6.271   3.189  17.178 -2.2065 -0.6960  0.0670
10961TIP3    H254375   6.203   3.256  17.061 -1.3332  3.2657  1.6433
10962TIP3   OH254376   0.162   6.218   4.876 -1.1780  0.3065  0.2563
10962TIP3    H154377   0.171   6.297   4.821 -2.1331 -0.4637 -1.0798
10962TIP3    H254378   0.237   6.164   4.851  2.3523  2.5639  4.5736
10963TIP3   OH254379   1.409   4.412   6.799 -0.2137  0.4232  0.0474
10963TIP3    H154380   1.475   4.379   6.738 -0.6172  1.1916 -0.8175
10963TIP3    H254381   1.326   4.381   6.764 -0.5067  1.4753 -0.1951
10964TIP3   OH254382   1.423   0.486   3.425 -0.3019  0.1018  0.0384
10964TIP3    H154383   1.446   0.394   3.440  0.9239  0.2390 -0.8695
10964TIP3    H254384   1.481   0.534   3.484 -0.8746  0.3027  0.4394
10965TIP3   OH254385   0.256   0.095   1.403  0.1234  0.1769 -0.2313
10965TIP3    H154386   0.313   0.114   1.478  0.2378  0.1252 -0.3040
10965TIP3    H254387   0.254  -0.001   1.399  0.1398  0.1796 -0.3108
10966TIP3   OH254388   1.047   2.508   3.403 -0.5247 -0.3446 -0.5555
10966TIP3    H154389   1.096   2.511   3.321  1.7668  0.3363  0.7424
10966TIP3    H254390   1.090   2.439   3.454  0.1308  1.2389  1.1793
10967TIP3   OH254391   1.841   5.377   6.258  0.1931  0.0753 -0.3554
10967TIP3    H154392   1.913   5.440   6.258  0.4119 -0.1553  0.4484
10967TIP3    H254393   1.853   5.327   6.339 -0.2735 -0.6565 -0.7222
10968TIP3   OH254394   5.667   2.941   4.706 -0.0627 -0.1194 -0.0230
10968TIP3    H154395   5.630   3.028   4.690  1.2559  0.3661 -0.5685
10968TIP3    H254396   5.610   2.881   4.658 -0.5771  0.5137 -0.2110
10969TIP3   OH254397   1.499   2.565  15.573 -0.3239  0.0378  0.5944
10969TIP3    H154398   1.582   2.531  15.607  0.0580  1.5535  1.2506
10969TIP3    H254399   1.504   2.550  15.479 -0.3292 -1.9775  0.8639
10970TIP3   OH254400   3.644   1.765   0.970  0.3581  0.3480 -0.7724
10970TIP3    H154401   3.646   1.688   1.027 -0.2730 -1.1717 -2.7202
10970TIP3    H254402   3.604   1.833   1.024  2.4729 -0.1145  1.5878
10971TIP3   OH254403   6.657   4.344   5.929  1.0125  0.4819 -0.0206
10971TIP3    H154404   6.653   4.432   5.892  0.5898  0.1107 -0.8807
10971TIP3    H254405   6.749   4.332   5.952  1.5270  0.3514 -1.9353
10972TIP3   OH254406   2.592   4.480  14.904  0.5393 -0.5089  0.1332
10972TIP3    H154407   2.555   4.436  14.828  0.8552 -1.2594  0.3992
10972TIP3    H254408   2.674   4.434  14.921  0.4222 -0.4235  0.9936
10973TIP3   OH254409   3.131   0.091   2.170 -0.4029  0.0316 -0.4561
10973TIP3    H154410   3.220   0.055   2.165 -0.6328 -0.6176 -0.0421
10973TIP3    H254411   3.138   0.178   2.131  0.8326  0.7827  1.2871
10974TIP3   OH254412   3.391   3.332  14.101  0.8727  0.2810  0.0884
10974TIP3    H154413   3.454   3.319  14.030 -0.9927 -1.2646 -1.4001
10974TIP3    H254414   3.333   3.402  14.069  0.2845 -0.1235  0.2584
10975TIP3   OH254415   6.669   4.424  14.742 -0.1339 -0.0429  0.7325
10975TIP3    H154416   6.746   4.448  14.690 -0.2981  0.3946  0.6843
10975TIP3    H254417   6.701   4.361  14.806  0.1046 -0.4678  0.2020
10976TIP3   OH254418   5.336   6.654  15.301 -0.1048 -0.3822  0.2807
10976TIP3    H154419   5.338   6.744  15.266  0.9232 -0.2921  0.5431
10976TIP3    H254420   5.367   6.600  15.229 -0.5254 -0.5099  0.1924
10977TIP3   OH254421   5.154   6.367  13.826 -0.5380 -0.3329  0.2030
10977TIP3    H154422   5.072   6.321  13.806 -0.6606  0.0198 -0.1303
10977TIP3    H254423   5.200   6.370  13.743 -1.8341  2.6970 -0.5500
10978TIP3   OH254424   5.596   5.030  11.919  0.5755  0.1462 -0.2671
10978TIP3    H154425   5.645   5.088  11.978 -1.1302  0.2263  1.1593
10978TIP3    H254426   5.640   4.945  11.928  1.5083  0.5933 -0.3951
10979TIP3   OH254427   0.069   4.290   1.950  0.3162  0.1046 -0.3567
10979TIP3    H154428   0.007   4.222   1.925  0.6227 -0.6341  0.8114
10979TIP3    H254429   0.150   4.243   1.970  1.1514  1.0147 -1.4618
10980TIP3   OH254430   5.892   5.210   4.131 -0.0096 -0.1108 -0.4339
10980TIP3    H154431   5.899   5.301   4.103  1.0257 -0.5034 -1.5390
10980TIP3    H254432   5.883   5.160   4.050  1.3609 -1.1369  0.0070
10981TIP3   OH254433   3.253   3.703  15.110  0.2469  0.2689 -0.5743
10981TIP3    H154434   3.235   3.796  15.125 -0.3983 -0.1656  1.6319
10981TIP3    H254435   3.349   3.697  15.111  0.2892  0.6354  1.4429
10982TIP3   OH254436   2.270   1.204  12.670 -0.5859  0.5517 -0.3996
10982TIP3    H154437   2.287   1.219  12.577  0.8291  1.7481  0.0215
10982TIP3    H254438   2.249   1.110  12.675  1.4318 -0.0477 -1.6747
10983TIP3   OH254439   3.643   3.900  12.225 -0.3098  0.7717  0.4799
10983TIP3    H154440   3.588   3.968  12.263  0.1101  1.2056  0.3229
10983TIP3    H254441   3.715   3.947  12.184  0.4634  0.1931  1.1388
10984TIP3   OH254442   4.990   2.214  13.982  0.5185 -0.3395 -0.3165
10984TIP3    H154443   4.910   2.221  13.929 -1.0202  0.1060  1.9278
10984TIP3    H254444   5.041   2.291  13.958 -0.9255  0.7746 -0.0072
10985TIP3   OH254445   1.782   2.766  14.614  0.0896 -0.0274 -0.6164
10985TIP3    H154446   1.855   2.824  14.591 -0.5309  0.3687 -1.6501
10985TIP3    H254447   1.802   2.738  14.703  0.4673  1.7326 -0.0898
10986TIP3   OH254448   3.794   1.209  16.003  0.2430  0.1607 -0.3672
10986TIP3    H154449   3.883   1.173  16.001  0.8668  1.5101  0.8661
10986TIP3    H254450   3.737   1.132  15.993  1.5274 -0.7602 -0.9628
10987TIP3   OH254451   6.801   1.269  12.366  0.7938 -1.2831  0.7924
10987TIP3    H154452   6.864   1.279  12.438 -0.6416  0.0704  1.9353
10987TIP3    H254453   6.741   1.201  12.397 -0.0374 -0.4455  1.0592
10988TIP3   OH254454   1.879   1.645  13.950 -0.2217  0.0163  0.0774
10988TIP3    H154455   1.859   1.609  14.036 -1.6022 -1.2458 -0.7310
10988TIP3    H254456   1.947   1.588  13.914 -0.1190  0.1509  0.0530
10989TIP3   OH254457   4.689   1.828  14.004 -0.4495  1.0906  0.6786
10989TIP3    H154458   4.750   1.902  13.996  1.3417 -0.2854  0.9395
10989TIP3    H254459   4.744   1.750  13.995 -2.2120 -0.2407  0.7992
10990TIP3   OH254460   0.576   1.812  10.450  0.6012  0.2931 -0.1455
10990TIP3    H154461   0.597   1.801  10.543 -0.1512  0.2627  0.0293
10990TIP3    H254462   0.600   1.729  10.410 -1.1805 -0.5525  0.4329
10991TIP3   OH254463   2.778   6.377   6.844  0.2824  0.1502  0.2826
10991TIP3    H154464   2.685   6.383   6.863 -0.4699 -1.1709 -2.4873
10991TIP3    H254465   2.791   6.438   6.771  1.6203  0.3614  0.6684
10992TIP3   OH254466   4.573   0.524  13.333  0.1630  0.2270 -0.1598
10992TIP3    H154467   4.579   0.444  13.386 -1.7338 -1.0273 -1.6773
10992TIP3    H254468   4.650   0.521  13.276 -0.0554 -0.7394 -0.4319
10993TIP3   OH254469   5.943   2.567   5.184 -0.1774  0.3204  0.0097
10993TIP3    H154470   5.952   2.569   5.089 -0.0005 -2.3738 -0.1102
10993TIP3    H254471   5.940   2.474   5.205  1.4312  0.8088  2.8094
10994TIP3   OH254472   1.804   0.961   3.324  0.8317  0.5917 -0.1265
10994TIP3    H154473   1.722   1.006   3.344  0.6999  0.9518 -1.4179
10994TIP3    H254474   1.788   0.870   3.349  1.0861  1.1723  2.4655
10995TIP3   OH254475   6.013   3.581   1.196  0.7212  0.3513  0.0116
10995TIP3    H154476   6.015   3.608   1.104  1.2292  0.3621  0.0252
10995TIP3    H254477   5.951   3.641   1.237  0.1755  0.0835 -0.4052
10996TIP3   OH254478   4.789   4.663  14.693  0.3986  0.6339 -0.2055
10996TIP3    H154479   4.874   4.705  14.706  0.8232 -0.0727 -0.6532
10996TIP3    H254480   4.775   4.665  14.599 -0.3513  1.2462 -0.0905
10997TIP3   OH254481   2.866   3.479   1.950  0.0251  0.4947 -0.2325
10997TIP3    H154482   2.906   3.548   1.897 -1.2044 -0.1625 -2.0996
10997TIP3    H254483   2.864   3.402   1.893  0.6701 -0.9077  1.5410
10998TIP3   OH254484   5.070   3.118   0.907 -0.4373 -0.3140  0.0343
10998TIP3    H154485   4.986   3.104   0.949 -0.1334  2.0990  1.6730
10998TIP3    H254486   5.134   3.084   0.969 -0.0719  1.7013  0.8480
10999TIP3   OH254487   3.334   5.707  14.429 -0.0460  0.9507 -0.0368
10999TIP3    H154488   3.289   5.772  14.375 -0.3838  1.4665  0.8394
10999TIP3    H254489   3.281   5.628  14.422  0.7755  0.4940 -1.7238
11000TIP3   OH254490   0.349   5.279   6.593  0.0539  0.0320  0.5214
11000TIP3    H154491   0.410   5.236   6.534 -1.3499  0.7981 -1.5926
11000TIP3    H254492   0.332   5.215   6.661 -0.5345 -2.0762 -1.4997
11001TIP3   OH254493   1.338   6.122  14.297 -0.2613  0.3347 -0.0832
11001TIP3    H154494   1.381   6.120  14.211 -1.5066 -2.4031 -0.7758
11001TIP3    H254495   1.407   6.096  14.358 -0.1147 -0.9471 -0.7471
11002TIP3   OH254496   2.283   1.810   1.833  0.6949 -0.1982  0.3156
11002TIP3    H154497   2.241   1.781   1.915  1.5975 -0.4125  0.7089
11002TIP3    H254498   2.326   1.732   1.799 -0.1771 -0.2596 -0.7012
11003TIP3   OH254499   2.849   6.748  13.149 -0.4485  0.2332 -0.2374
11003TIP3    H154500   2.912   6.680  13.127  1.0263  0.5426  2.5497
11003TIP3    H254501   2.864   6.817  13.085  2.1934  0.3216  0.3477
11004TIP3   OH254502   2.548   4.412   4.463  0.0795  0.1841  0.3470
11004TIP3    H154503   2.533   4.319   4.478  0.9535  0.3687  2.9571
11004TIP3    H254504   2.639   4.418   4.435  1.0940  0.3531  3.2632
11005TIP3   OH254505   4.033   1.668   0.331  0.3576 -0.1117  0.3065
11005TIP3    H154506   4.111   1.702   0.376  0.3740  0.8702 -0.4344
11005TIP3    H254507   3.969   1.739   0.338 -0.0854 -0.4698 -0.0922
11006TIP3   OH254508   6.781   4.469  15.457  0.3814  0.6214  0.0915
11006TIP3    H154509   6.803   4.557  15.488  0.9837  0.4863  0.0569
11006TIP3    H254510   6.790   4.413  15.534 -0.3433  0.6397  0.1964
11007TIP3   OH254511   3.222   0.281   1.005 -0.0253 -0.1463  0.6284
11007TIP3    H154512   3.302   0.268   1.055  1.7416  1.5909 -1.5175
11007TIP3    H254513   3.169   0.339   1.059  0.3213 -0.9527  1.8806
11008TIP3   OH254514   6.597   1.427   4.965  0.0489 -0.5900  0.1482
11008TIP3    H154515   6.575   1.410   5.057  1.1150 -0.1141  0.5062
11008TIP3    H254516   6.691   1.445   4.966  0.0050 -0.2422 -0.9933
11009TIP3   OH254517   2.070   3.046  13.778 -0.2336 -0.7310  0.6025
11009TIP3    H154518   2.079   3.058  13.683 -2.1272 -2.4667  0.1220
11009TIP3    H254519   2.017   3.120  13.807 -0.7128 -0.8712  0.0838
11010TIP3   OH254520   2.284   0.752  13.661  0.0390 -0.3552  0.0448
11010TIP3    H154521   2.252   0.734  13.573  1.5037 -3.2257 -0.0174
11010TIP3    H254522   2.359   0.810  13.649  0.1819 -0.6717 -0.6180
11011TIP3   OH254523   5.711   3.509  13.976  0.1569  0.5410 -0.2748
11011TIP3    H154524   5.756   3.425  13.971  1.0952  0.9946  0.1329
11011TIP3    H254525   5.656   3.513  13.898 -0.1155 -0.5634 -0.1515
11012TIP3   OH254526   6.505   4.789  16.718  0.3365  0.6132  0.3188
11012TIP3    H154527   6.521   4.826  16.631  2.1598  0.8522  0.7014
11012TIP3    H254528   6.417   4.819  16.742  0.2248  1.4152 -1.0092
11013TIP3   OH254529   3.936   0.458  16.190 -0.2190 -0.2622  0.2863
11013TIP3    H154530   3.949   0.499  16.276  0.2885 -0.0210  0.0964
11013TIP3    H254531   3.910   0.368  16.210 -0.6868 -0.0456  0.6997
11014TIP3   OH254532   2.027   2.473  14.270  0.8636  0.2570 -0.1794
11014TIP3    H154533   1.977   2.500  14.347 -0.4533 -0.1976 -0.8500
11014TIP3    H254534   1.965   2.423  14.217  1.8490  0.2408 -1.3619
11015TIP3   OH254535   5.716   3.796  11.235 -0.2698 -1.0090 -0.0823
11015TIP3    H154536   5.792   3.818  11.182  0.3800 -1.4446  0.6553
11015TIP3    H254537   5.644   3.847  11.196  1.0229  2.0606  1.1534
11016TIP3   OH254538   1.065   1.705   6.446 -0.2942  0.1305  0.1320
11016TIP3    H154539   0.994   1.703   6.510 -1.3407 -1.0973 -1.0021
11016TIP3    H254540   1.055   1.624   6.397  3.2563 -1.2508  1.3191
11017TIP3   OH254541   1.239   3.222   4.591  0.1127  0.2920 -0.0500
11017TIP3    H154542   1.287   3.160   4.645 -0.1929  0.3242  0.2618
11017TIP3    H254543   1.203   3.285   4.653 -1.4848 -0.4937 -0.1314
11018TIP3   OH254544   5.476   0.315  16.166  0.1234 -0.1822  0.0644
11018TIP3    H154545   5.528   0.395  16.161 -2.3415  1.5069 -0.2913
11018TIP3    H254546   5.464   0.300  16.259  0.5948 -0.1751  0.1315
11019TIP3   OH254547   4.654   6.263  17.116 -0.2445 -0.3815 -0.4537
11019TIP3    H154548   4.650   6.349  17.074  0.2037  0.0123  0.2986
11019TIP3    H254549   4.689   6.205  17.048 -0.0410  0.1407 -0.8004
11020TIP3   OH254550   5.156   1.402  13.111  0.2828 -0.2993  0.6230
11020TIP3    H154551   5.239   1.417  13.066 -0.8450  0.7062 -1.2309
11020TIP3    H254552   5.137   1.485  13.155  0.7468 -0.8759  1.9969
11021TIP3   OH254553   3.185   6.727   1.169  0.3225 -0.0478 -0.0124
11021TIP3    H154554   3.268   6.735   1.215 -0.0097  0.7037  0.4862
11021TIP3    H254555   3.120   6.757   1.233 -0.3536 -0.8423 -0.3159
11022TIP3   OH254556   0.826   3.747  15.314  0.4655 -0.1335 -0.1963
11022TIP3    H154557   0.849   3.783  15.228  0.1151  0.3789 -0.0773
11022TIP3    H254558   0.880   3.797  15.376 -2.7560  2.9952  0.3788
11023TIP3   OH254559   0.345   5.997   4.318 -0.4486 -0.7118  0.1161
11023TIP3    H154560   0.262   6.037   4.294 -0.3369 -1.7097 -2.1816
11023TIP3    H254561   0.401   6.009   4.242  0.9808 -1.5026  0.9851
11024TIP3   OH254562   0.186   2.081   6.160 -0.3579  0.5052 -0.1500
11024TIP3    H154563   0.223   2.148   6.218 -0.8433  0.4963  0.1794
11024TIP3    H254564   0.206   1.998   6.203 -0.1149  0.4615 -0.3478
11025TIP3   OH254565   4.149   1.047   0.976  0.0937 -0.4522 -0.1518
11025TIP3    H154566   4.109   0.994   0.907  0.4139 -1.5497  0.4764
11025TIP3    H254567   4.142   0.993   1.055  1.3447  0.0206  0.3062
11026TIP3   OH254568   2.244   6.168  16.701  0.4638 -0.4712 -0.2151
11026TIP3    H154569   2.215   6.223  16.774 -2.1057 -1.7410 -0.1543
11026TIP3    H254570   2.248   6.079  16.738 -1.0346 -1.1600 -1.5855
11027TIP3   OH254571   4.859   1.783  12.469  0.4356 -0.0663 -0.0496
11027TIP3    H154572   4.876   1.756  12.559  0.0224  0.6626  0.2567
11027TIP3    H254573   4.932   1.841  12.446 -1.1011  2.4527  1.0040
11028TIP3   OH254574   5.579   0.913  17.156  0.3122 -0.2425  0.0929
11028TIP3    H154575   5.618   0.882  17.074  2.5007  0.2276  0.8875
11028TIP3    H254576   5.556   1.004  17.138 -0.9374 -0.6602 -0.5316
11029TIP3   OH254577   5.601   5.676  13.182  0.1318 -0.0930  0.0801
11029TIP3    H154578   5.685   5.650  13.217  1.4184  0.6533 -2.2299
11029TIP3    H254579   5.581   5.759  13.225  1.6826  0.8275 -0.9023
11030TIP3   OH254580   4.208   3.465   3.795 -0.6310  0.3882 -0.3339
11030TIP3    H154581   4.209   3.466   3.699  0.9613  0.3730 -0.3353
11030TIP3    H254582   4.203   3.373   3.818 -0.5704  0.3698 -0.3956
11031TIP3   OH254583   3.323   6.207   0.024 -0.2862  0.0023 -0.3865
11031TIP3    H154584   3.257   6.142  -0.001 -1.4630  1.1405 -0.3024
11031TIP3    H254585   3.338   6.258  -0.055  1.4805 -1.0190 -0.7822
11032TIP3   OH254586   4.174   5.958  12.760 -0.7866 -0.4475 -0.3025
11032TIP3    H154587   4.108   5.890  12.744 -1.2290 -0.2091  0.4187
11032TIP3    H254588   4.222   5.965  12.678 -2.6948  0.4915 -1.4044
11033TIP3   OH254589   4.330   1.766  16.785  0.6442  0.4136  0.4652
11033TIP3    H154590   4.344   1.855  16.817 -0.9772  1.2217 -0.9602
11033TIP3    H254591   4.338   1.773  16.690 -0.6507 -0.7233  0.2433
11034TIP3   OH254592   6.271   4.266   5.787 -0.7563 -0.3941 -0.5149
11034TIP3    H154593   6.250   4.233   5.874  0.3548  1.2902  0.4492
11034TIP3    H254594   6.234   4.355   5.785  3.2954  1.5157  0.1591
11035TIP3   OH254595   5.889   5.926  14.402  0.0289  0.8617  0.1721
11035TIP3    H154596   5.832   5.850  14.416  1.4374  0.1978  3.4974
11035TIP3    H254597   5.834   6.001  14.426 -0.1996  0.4740  0.9104
11036TIP3   OH254598   5.873   5.408  11.779 -0.4802 -0.0571 -0.3770
11036TIP3    H154599   5.800   5.434  11.835 -1.1019 -0.1895 -1.1093
11036TIP3    H254600   5.831   5.365  11.704  0.4341 -2.9481  0.6021
11037TIP3   OH254601   0.297   6.075  14.706  0.6845  0.1279 -0.1452
11037TIP3    H154602   0.214   6.041  14.740  0.2801 -0.3459 -1.5190
11037TIP3    H254603   0.272   6.150  14.652  1.3268  1.0190  0.7702
11038TIP3   OH254604   1.345   0.494   2.825 -0.7088  0.0101 -0.1213
11038TIP3    H154605   1.345   0.565   2.761 -1.9932  0.1249 -0.0294
11038TIP3    H254606   1.435   0.489   2.857 -0.0919  0.0858 -1.7819
11039TIP3   OH254607   1.732   1.935  13.743  0.0987 -0.5539 -0.2389
11039TIP3    H154608   1.699   1.860  13.792  0.9238 -1.9515 -1.7308
11039TIP3    H254609   1.666   1.952  13.676 -1.1555  1.5178  1.3818
11040TIP3   OH254610   5.295   4.193  16.014  0.1003  0.3160  0.2451
11040TIP3    H154611   5.300   4.102  15.983 -2.2534  0.1919  0.0947
11040TIP3    H254612   5.376   4.233  15.983  0.3928 -1.2782 -1.2008
11041TIP3   OH254613   6.655   3.311  15.285 -0.6667 -0.1813 -0.2637
11041TIP3    H154614   6.647   3.241  15.220 -2.0765 -1.8860  1.5952
11041TIP3    H254615   6.577   3.365  15.272  0.1523  0.8045 -1.3443
11042TIP3   OH254616   2.020   5.088  12.843 -0.6458 -0.7407  0.2815
11042TIP3    H154617   1.950   5.153  12.836 -1.0198 -1.2008 -0.2991
11042TIP3    H254618   2.040   5.065  12.752 -0.5506 -1.4714  0.4854
11043TIP3   OH254619   3.172   3.529  15.313 -0.4512 -0.4555 -0.0608
11043TIP3    H154620   3.196   3.447  15.270  0.3930  0.1560 -0.7819
11043TIP3    H254621   3.177   3.595  15.245 -3.1787 -0.0650 -0.0135
11044TIP3   OH254622   2.677   0.579   5.964 -0.1209  0.1074  0.2032
11044TIP3    H154623   2.704   0.551   5.877  0.2184  1.1918 -0.0607
11044TIP3    H254624   2.742   0.541   6.023  0.0425 -0.0691 -0.0872
11045TIP3   OH254625   3.204   2.507  12.906  0.1593 -0.1930  0.7693
11045TIP3    H154626   3.149   2.558  12.846  2.3470  1.2609 -0.0820
11045TIP3    H254627   3.212   2.421  12.864 -1.3436 -0.4123  0.8737
11046TIP3   OH254628   5.870   5.594  14.269 -0.3780  0.1059  0.5733
11046TIP3    H154629   5.937   5.530  14.290 -1.1779 -0.5343  1.2447
11046TIP3    H254630   5.910   5.650  14.203  0.4361 -0.9018  0.1928
11047TIP3   OH254631   6.112   6.739   0.455  0.2337  0.4705 -0.3979
11047TIP3    H154632   6.193   6.688   0.462 -0.2939 -0.2044  1.0155
11047TIP3    H254633   6.059   6.690   0.392  0.4066  0.1898 -0.3285
11048TIP3   OH254634   4.547   0.747  16.494 -0.0115  0.7326 -0.7837
11048TIP3    H154635   4.581   0.791  16.417 -2.0110  0.7339 -1.7395
11048TIP3    H254636   4.458   0.720  16.469 -0.2517 -0.4011  1.0826
11049TIP3   OH254637   2.096   2.222  16.628 -0.2267 -0.3135  0.1976
11049TIP3    H154638   2.127   2.250  16.542  0.6308  0.7713  0.8317
11049TIP3    H254639   2.079   2.128  16.618 -2.0703  0.1467 -1.6877
11050TIP3   OH254640   2.291   4.343  11.114 -0.7551  0.3439  0.1138
11050TIP3    H154641   2.225   4.403  11.149 -1.1218  0.1351 -0.2099
11050TIP3    H254642   2.250   4.305  11.037  0.0918  0.9051 -0.6335
11051TIP3   OH254643   3.415   3.980  13.690  0.9442  0.2389 -0.5888
11051TIP3    H154644   3.332   4.016  13.721  2.1014  1.2118  1.6507
11051TIP3    H254645   3.437   4.031  13.613 -0.0942  0.5726 -0.6725
11052TIP3   OH254646   1.332   4.662  12.028 -0.2628 -0.4191  0.2968
11052TIP3    H154647   1.278   4.737  12.053 -0.8378 -1.3228  1.9182
11052TIP3    H254648   1.396   4.698  11.966 -0.7489  1.3231  0.7432
11053TIP3   OH254649   5.597   1.246   5.290 -0.0997  0.0748  0.4833
11053TIP3    H154650   5.513   1.275   5.324  0.1648  1.0826  0.3141
11053TIP3    H254651   5.662   1.302   5.333  0.4215 -0.1769  0.0479
11054TIP3   OH254652   0.039   4.079  15.388 -0.0775 -0.4035 -0.5405
11054TIP3    H154653  -0.022   4.015  15.353 -0.3817  0.0238 -0.8067
11054TIP3    H254654  -0.015   4.136  15.443  0.6206 -1.9313  1.8498
11055TIP3   OH254655   2.893   3.034   4.665 -0.0298  0.1305  0.0220
11055TIP3    H154656   2.803   3.048   4.695 -0.5893 -3.2645  0.3246
11055TIP3    H254657   2.946   3.051   4.743 -0.7662 -1.0531  0.8193
11056TIP3   OH254658   3.042   3.305   0.189 -0.4684  0.0595 -0.1321
11056TIP3    H154659   3.000   3.219   0.198 -0.4832  0.1473  0.6973
11056TIP3    H254660   3.128   3.285   0.150 -0.5913 -0.2924 -0.2319
11057TIP3   OH254661   0.375   6.316  17.287  0.3148  0.5268 -0.0283
11057TIP3    H154662   0.438   6.285  17.221  1.1329 -0.1603  1.0490
11057TIP3    H254663   0.290   6.295  17.249  0.7957 -2.8967  0.4659
11058TIP3   OH254664   4.362   5.392  12.350 -0.7884 -0.6211 -0.3147
11058TIP3    H154665   4.325   5.304  12.356 -0.2248 -0.8676 -0.3902
11058TIP3    H254666   4.287   5.450  12.359 -1.2348 -1.1158 -0.7648
11059TIP3   OH254667   2.943   1.832  16.520  0.2142 -0.5628  0.0332
11059TIP3    H154668   2.988   1.759  16.478  0.1320  0.0519 -1.1512
11059TIP3    H254669   2.851   1.804  16.524  0.3722 -1.0160  0.6965
11060TIP3   OH254670   4.950   0.545   3.063  0.3901 -0.4613 -0.0691
11060TIP3    H154671   5.005   0.575   2.991 -0.9873  0.3469 -0.8155
11060TIP3    H254672   4.862   0.538   3.026 -0.5540  0.9326  1.7345
11061TIP3   OH254673   0.156   2.086   0.418  0.0744 -0.0609 -0.3568
11061TIP3    H154674   0.125   2.008   0.373  1.9811 -0.9540 -0.2554
11061TIP3    H254675   0.078   2.127   0.453 -0.9521 -2.2578  0.0990
11062TIP3   OH254676   3.333   4.086   2.134 -0.3428 -0.3341 -0.5167
11062TIP3    H154677   3.308   4.002   2.172 -1.2562  0.4070  0.6403
11062TIP3    H254678   3.256   4.114   2.084 -0.5683  0.3886  0.1970
11063TIP3   OH254679   5.150   6.238  17.214  0.1102 -0.2886  0.4455
11063TIP3    H154680   5.192   6.215  17.131 -1.3777  0.2223 -0.4821
11063TIP3    H254681   5.084   6.303  17.191 -1.4469 -1.3185  1.7718
11064TIP3   OH254682   2.149   2.988  12.074  0.4758  0.6848  0.3662
11064TIP3    H154683   2.174   3.071  12.034 -0.1048  1.2105  1.0591
11064TIP3    H254684   2.061   2.971  12.042  0.6472  0.2592  0.1139
11065TIP3   OH254685   2.605   4.086   2.175  0.0401  0.0914 -0.2305
11065TIP3    H154686   2.564   4.048   2.098 -1.4642  0.5805  0.2922
11065TIP3    H254687   2.532   4.107   2.234  1.2087 -1.3768  1.8634
11066TIP3   OH254688   1.207   4.043  15.891 -0.4080  0.4388  0.0404
11066TIP3    H154689   1.135   4.104  15.907 -1.2372 -0.7385  1.0157
11066TIP3    H254690   1.246   4.030  15.977  0.4088  0.3586 -0.3343
11067TIP3   OH254691   1.811   4.253   2.743 -0.0399  0.0563  0.1413
11067TIP3    H154692   1.760   4.173   2.742 -0.8613  0.5725  0.3821
11067TIP3    H254693   1.757   4.316   2.695  0.7529  0.3783 -0.3538
11068TIP3   OH254694   5.505   2.902  16.110  0.3291  0.1258 -0.3857
11068TIP3    H154695   5.426   2.891  16.057  0.4459  0.5419 -0.6505
11068TIP3    H254696   5.577   2.884  16.049  0.4715  0.8472 -0.4381
11069TIP3   OH254697   1.150   6.678  14.575 -0.7194  0.2674 -0.0422
11069TIP3    H154698   1.098   6.729  14.513 -0.5473 -1.2905 -1.5629
11069TIP3    H254699   1.086   6.630  14.627 -0.8532 -0.1006 -0.5383
11070TIP3   OH254700   0.915   0.104   1.541 -0.2364  0.1101 -0.4997
11070TIP3    H154701   0.947   0.147   1.462 -1.5978  1.0273 -0.5778
11070TIP3    H254702   0.973   0.028   1.552  2.4354  2.0632 -0.1818
11071TIP3   OH254703   4.475   6.036   2.211  0.0912  0.0344  0.4110
11071TIP3    H154704   4.536   6.046   2.138  0.4427  0.6349  0.7812
11071TIP3    H254705   4.408   5.976   2.178  0.0936  0.5178 -0.4981
11072TIP3   OH254706   5.300   1.789   5.716 -0.3068 -0.2138  0.8299
11072TIP3    H154707   5.204   1.793   5.715 -0.3624  0.7338 -2.7203
11072TIP3    H254708   5.320   1.696   5.701 -0.7288 -0.1822 -0.0013
11073TIP3   OH254709   2.684   5.122  15.076  0.8578  0.3974 -0.2642
11073TIP3    H154710   2.659   5.196  15.131  0.0565  0.2773 -0.4473
11073TIP3    H254711   2.773   5.142  15.047  0.8329  1.0436  0.0907
11074TIP3   OH254712   0.758   3.144  17.025  0.3401  0.8259  0.2958
11074TIP3    H154713   0.808   3.079  17.074  0.1088 -0.4497 -1.0884
11074TIP3    H254714   0.818   3.176  16.958  0.3147  1.7333  0.6989
11075TIP3   OH254715   1.514   2.771  11.890 -0.3600 -0.0599  0.8062
11075TIP3    H154716   1.583   2.789  11.953 -1.8867  0.5799  2.3983
11075TIP3    H254717   1.436   2.812  11.928 -1.1944  1.1431 -1.9306
11076TIP3   OH254718   2.777   2.364  15.699 -0.1276  0.0309  0.2282
11076TIP3    H154719   2.791   2.422  15.624 -1.0456  0.2242  0.1839
11076TIP3    H254720   2.820   2.408  15.772  1.4604 -0.5475 -0.3263
11077TIP3   OH254721   2.371   5.947   4.209 -0.2505 -0.5061  0.2563
11077TIP3    H154722   2.282   5.918   4.226  0.1060 -1.8586 -0.0522
11077TIP3    H254723   2.413   5.872   4.167  0.1449  1.1556 -2.5293
11078TIP3   OH254724   2.994   1.701   4.661 -0.1033  0.2642  0.2402
11078TIP3    H154725   3.068   1.698   4.601 -1.1054 -1.0078 -0.9669
11078TIP3    H254726   3.032   1.678   4.746  1.3229  2.0721  0.1514
11079TIP3   OH254727   6.166   6.795  16.311 -0.4535  0.1725  0.6124
11079TIP3    H154728   6.237   6.836  16.261 -0.4656 -0.2360  0.2495
11079TIP3    H254729   6.112   6.751  16.245  0.1549 -1.3321  1.0540
11080TIP3   OH254730   0.280   5.775   6.850  0.1226  0.7841  0.2200
11080TIP3    H154731   0.188   5.800   6.855  0.6743  3.1683 -0.5292
11080TIP3    H254732   0.297   5.762   6.757  0.4789 -0.0275  0.3847
11081TIP3   OH254733   4.088   0.373   2.321  0.0701  0.4222  0.4369
11081TIP3    H154734   4.063   0.284   2.345 -1.4239  0.4720 -0.7854
11081TIP3    H254735   4.053   0.427   2.392  2.6654 -0.0467  2.2143
11082TIP3   OH254736   6.218   1.634  16.672 -0.6020  0.2132  0.6457
11082TIP3    H154737   6.149   1.684  16.627  0.3315  1.5021  0.6088
11082TIP3    H254738   6.270   1.596  16.602  0.2038  1.3264  0.6134
11083TIP3   OH254739   5.318   0.045   3.262 -0.0514  0.9227  0.4915
11083TIP3    H154740   5.379   0.004   3.201  0.8001  1.1623  1.1789
11083TIP3    H254741   5.320   0.138   3.239 -0.1434  0.9347  0.5322
11084TIP3   OH254742   6.216   1.818   5.105  0.0088  0.6016  0.2356
11084TIP3    H154743   6.221   1.733   5.148 -1.9230  0.4543  0.2395
11084TIP3    H254744   6.307   1.848   5.101  0.5014 -0.4581  2.2194
11085TIP3   OH254745   4.140   5.533  12.309 -0.1540 -0.4510 -0.0100
11085TIP3    H154746   4.051   5.511  12.280 -0.2672 -0.3315  0.2433
11085TIP3    H254747   4.129   5.614  12.359  0.1904 -0.0631 -0.5438
11086TIP3   OH254748   5.101   3.993  11.783  0.0823  0.6211 -0.5267
11086TIP3    H154749   5.103   3.929  11.854 -0.1641 -0.3128 -1.3316
11086TIP3    H254750   5.026   3.967  11.730  1.3158  0.1281 -2.1345
11087TIP3   OH254751   2.031   2.984   3.080  0.3390  0.4882  0.1050
11087TIP3    H154752   2.108   3.038   3.100 -0.1052  2.1683 -2.1814
11087TIP3    H254753   2.009   3.009   2.990 -3.3459  0.6728  0.9269
11088TIP3   OH254754   3.603   1.591  16.105 -0.5610 -0.4407  0.2493
11088TIP3    H154755   3.691   1.552  16.095 -0.1298  0.4258  0.5871
11088TIP3    H254756   3.551   1.522  16.145  0.6803 -0.0877  2.6394
11089TIP3   OH254757   5.916   3.079   2.446 -0.1357  0.3502 -0.2886
11089TIP3    H154758   5.863   3.127   2.509  1.1867 -0.2062  1.3345
11089TIP3    H254759   5.949   3.003   2.496  3.6413  1.6046 -0.5713
11090TIP3   OH254760   2.029   6.806   5.796 -0.5428 -0.2568  1.0262
11090TIP3    H154761   2.110   6.809   5.847  1.8728  1.9337 -2.4635
11090TIP3    H254762   1.994   6.895   5.801 -1.4690 -0.5915  0.6568
11091TIP3   OH254763   0.146   3.933  12.746 -0.1774 -0.2090  0.4036
11091TIP3    H154764   0.214   3.873  12.776 -0.3963  0.3334  2.0759
11091TIP3    H254765   0.065   3.882  12.751 -0.3503  0.1381  1.7425
11092TIP3   OH254766   1.759   3.999  14.929 -0.2069 -0.3239  0.0283
11092TIP3    H154767   1.840   3.952  14.908 -0.8537 -2.0243  1.0492
11092TIP3    H254768   1.777   4.041  15.013 -0.4118 -0.7984  0.3123
11093TIP3   OH254769   0.107   1.468   3.067  0.3243 -0.7632 -0.1296
11093TIP3    H154770   0.146   1.541   3.019 -1.0994 -1.6045 -2.7642
11093TIP3    H254771   0.062   1.509   3.141 -0.2638  1.0347 -1.4079
11094TIP3   OH254772   2.740   5.713  12.129 -0.0294  0.2465 -0.0996
11094TIP3    H154773   2.813   5.705  12.190  0.6097  2.3415 -0.4736
11094TIP3    H254774   2.663   5.688  12.179  0.7781 -0.6934  0.7160
11095TIP3   OH254775   3.321   3.824  13.419  0.0713  0.0526  0.2903
11095TIP3    H154776   3.385   3.761  13.453 -0.4475 -0.8892 -0.4462
11095TIP3    H254777   3.367   3.868  13.347 -0.1192 -0.6543 -0.2670
11096TIP3   OH254778   0.539   4.484  13.599  0.1282  0.5795  0.0090
11096TIP3    H154779   0.554   4.565  13.550 -0.4649 -0.0325 -1.1961
11096TIP3    H254780   0.627   4.453  13.621  0.4805  0.0985 -1.9363
11097TIP3   OH254781   2.253   6.709  15.419  0.1601  0.3820 -0.1741
11097TIP3    H154782   2.188   6.703  15.349  1.3735  0.8491 -1.3947
11097TIP3    H254783   2.230   6.639  15.479  1.1783 -2.5402 -2.8891
11098TIP3   OH254784   6.566   4.471  16.080  0.0146 -0.3147 -0.1652
11098TIP3    H154785   6.649   4.500  16.043  0.8795 -0.6877  1.4069
11098TIP3    H254786   6.563   4.511  16.167 -1.8911  0.4388 -0.5110
11099TIP3   OH254787   3.290   5.734   3.901 -0.3528  0.1070 -0.5168
11099TIP3    H154788   3.298   5.770   3.990  0.0082  0.4590 -0.6878
11099TIP3    H254789   3.216   5.673   3.907 -0.4212  0.2281 -0.0081
11100TIP3   OH254790   2.109   5.160  17.289 -0.3019 -0.0646  0.0176
11100TIP3    H154791   2.099   5.234  17.229 -0.1775 -0.7702 -0.8971
11100TIP3    H254792   2.019   5.140  17.317 -0.6658 -1.2183 -1.8046
11101TIP3   OH254793   3.234   0.135   5.299  0.5457  0.2014  0.2678
11101TIP3    H154794   3.154   0.145   5.246  1.4807 -1.1566 -1.4972
11101TIP3    H254795   3.204   0.096   5.381 -0.3925 -2.5019 -1.2596
11102TIP3   OH254796   1.303   3.889   6.388  0.2780 -0.4006 -0.6655
11102TIP3    H154797   1.209   3.907   6.381  0.1295 -1.3228 -1.2669
11102TIP3    H254798   1.343   3.974   6.406 -0.7683 -0.1446  0.5728
11103TIP3   OH254799   5.922   2.711  14.817 -0.8661  0.1564 -0.1461
11103TIP3    H154800   5.931   2.717  14.722  1.0394  0.4966  0.0095
11103TIP3    H254801   5.993   2.766  14.851  0.4422 -2.3285  1.4522
11104TIP3   OH254802   5.883   2.292   5.526 -0.4272 -0.3542  0.0451
11104TIP3    H154803   5.889   2.284   5.431  0.0293 -0.9141  0.1137
11104TIP3    H254804   5.795   2.263   5.548 -1.4291  2.0628 -0.4128
11105TIP3   OH254805   2.943   4.200  12.361  0.1100 -0.5064 -0.0800
11105TIP3    H154806   2.964   4.134  12.428 -1.8471 -0.5953  0.5086
11105TIP3    H254807   2.873   4.160  12.310 -1.6190  1.3451  0.7139
11106TIP3   OH254808   2.770   6.120  15.688 -0.4164 -0.5612  0.6082
11106TIP3    H154809   2.705   6.148  15.624 -1.2836  0.8199  2.0225
11106TIP3    H254810   2.740   6.034  15.717 -1.0300 -0.3885  0.4920
11107TIP3   OH254811   1.755   3.663   3.467  0.2544 -0.5337  0.2813
11107TIP3    H154812   1.674   3.676   3.418 -0.8834 -1.6204  1.7805
11107TIP3    H254813   1.823   3.702   3.412 -1.1051 -0.6356 -1.5602
11108TIP3   OH254814   4.331   6.179  16.486  0.5733 -0.1263  0.0612
11108TIP3    H154815   4.421   6.198  16.460  0.7264  0.5402  1.0249
11108TIP3    H254816   4.278   6.199  16.409  1.4556 -3.1027 -1.4827
11109TIP3   OH254817   6.688   3.259   3.046  0.6804  0.2057 -0.5556
11109TIP3    H154818   6.594   3.252   3.066  0.9569 -0.4009  0.6197
11109TIP3    H254819   6.731   3.258   3.131  1.6976  1.8570 -0.9999
11110TIP3   OH254820   1.194   0.415   0.848 -0.8882  0.0081  0.1148
11110TIP3    H154821   1.139   0.483   0.809  0.5829  1.0936 -0.1647
11110TIP3    H254822   1.161   0.406   0.937 -0.3097  2.0682  0.5902
11111TIP3   OH254823   1.442   1.542  14.992  0.2090  0.0200 -0.4492
11111TIP3    H154824   1.355   1.532  15.031  0.0557 -0.5974 -0.9444
11111TIP3    H254825   1.451   1.637  14.979 -0.6767  0.0348 -1.0446
11112TIP3   OH254826   4.610   6.714  15.592  0.1728 -0.4376 -0.0159
11112TIP3    H154827   4.632   6.634  15.641 -1.3919 -0.7623  0.2161
11112TIP3    H254828   4.574   6.773  15.658  1.4659  0.5327 -0.1617
11113TIP3   OH254829   1.575   3.702   0.256  0.4127  0.1258  0.2378
11113TIP3    H154830   1.662   3.689   0.218 -0.3346  0.8930 -1.8684
11113TIP3    H254831   1.517   3.647   0.203 -0.8621  2.1746 -0.6192
11114TIP3   OH254832   5.687   3.789  17.153 -0.3315 -0.1026 -0.1908
11114TIP3    H154833   5.652   3.761  17.068  1.5156 -1.5851 -0.5304
11114TIP3    H254834   5.712   3.708  17.197 -0.2702  0.7065  1.3352
11115TIP3   OH254835   4.714   2.951  11.409 -0.0146 -0.2656 -0.1952
11115TIP3    H154836   4.665   3.021  11.452 -0.2497 -0.7525  0.3396
11115TIP3    H254837   4.656   2.875  11.412  0.4326 -0.6166 -0.3306
11116TIP3   OH254838   0.437   5.437   5.185  0.2199  0.3615 -0.3345
11116TIP3    H154839   0.472   5.352   5.157  0.1879  0.4093 -0.5204
11116TIP3    H254840   0.425   5.486   5.104  2.2299  1.3425 -0.1082
11117TIP3   OH254841   2.450   6.781  11.802 -0.3397  0.5200  0.0741
11117TIP3    H154842   2.497   6.749  11.879 -0.8195 -0.9816 -0.2266
11117TIP3    H254843   2.520   6.811  11.743  0.0374  1.5118  0.9859
11118TIP3   OH254844   5.127   6.029   3.744 -0.3890  0.5427 -0.4365
11118TIP3    H154845   5.118   6.005   3.836 -1.2259 -1.1729 -0.9258
11118TIP3    H254846   5.212   6.072   3.739 -0.9595  2.0119  1.3788
11119TIP3   OH254847   2.985   0.506   4.271  0.1524  0.3525  0.3711
11119TIP3    H154848   2.975   0.432   4.332 -0.6570  0.4029  0.3053
11119TIP3    H254849   3.077   0.530   4.278  0.2354 -0.1273  1.0190
11120TIP3   OH254850   1.191   2.378   0.260 -0.6780 -0.7912  0.1735
11120TIP3    H154851   1.096   2.382   0.252 -0.7003  0.7576  0.8468
11120TIP3    H254852   1.207   2.301   0.314 -1.6549 -0.2855  1.2356
11121TIP3   OH254853   0.626   0.705   0.310 -0.4177  0.4958  0.1168
11121TIP3    H154854   0.698   0.650   0.283 -0.2758 -0.1447  1.6623
11121TIP3    H254855   0.560   0.644   0.343 -0.9872  1.1463  0.2062
11122TIP3   OH254856   0.754   5.981   2.445 -0.5213  0.4338 -0.1456
11122TIP3    H154857   0.680   5.946   2.495  0.6726  0.8348  2.0154
11122TIP3    H254858   0.831   5.955   2.495  0.7241  1.1630 -1.6296
11123TIP3   OH254859   6.179   6.417   0.409  0.6408  0.0045  0.3648
11123TIP3    H154860   6.154   6.372   0.328  1.2468 -1.1363  0.7993
11123TIP3    H254861   6.254   6.471   0.383  1.0396 -0.6040  0.2248
11124TIP3   OH254862   3.563   3.171   0.623 -0.4051 -0.1579  0.0192
11124TIP3    H154863   3.543   3.244   0.682  3.1378  1.7078 -0.7928
11124TIP3    H254864   3.589   3.213   0.541  0.6667 -2.4008 -0.8780
11125TIP3   OH254865   2.291   0.149  11.063  0.0130 -0.6180 -0.0602
11125TIP3    H154866   2.325   0.191  10.984  1.4691  0.3949  1.0582
11125TIP3    H254867   2.339   0.066  11.068  0.6982 -0.2061  0.3083
11126TIP3   OH254868   3.424   5.350  17.023  0.0247  0.0192  0.4057
11126TIP3    H154869   3.427   5.433  16.976 -1.3612 -0.0083  0.2130
11126TIP3    H254870   3.359   5.297  16.976  2.2299 -1.9462 -0.6447
11127TIP3   OH254871   2.745   3.085  16.930 -0.1441 -0.2712 -0.0877
11127TIP3    H154872   2.695   3.006  16.909  0.2767 -0.1736 -1.5271
11127TIP3    H254873   2.829   3.051  16.961 -0.5904 -0.4027  1.0366
11128TIP3   OH254874   5.784   3.261   3.842  0.2027  0.6624  0.7537
11128TIP3    H154875   5.775   3.226   3.754 -2.2837  0.8176  0.8647
11128TIP3    H254876   5.878   3.265   3.858  0.6653 -1.7940 -0.9012
11129TIP3   OH254877   3.553   2.652   0.864  0.3215 -0.3064  0.4220
11129TIP3    H154878   3.503   2.692   0.793 -1.3640 -1.1038  1.1132
11129TIP3    H254879   3.524   2.699   0.942  1.4502 -0.0845  0.7237
11130TIP3   OH254880   5.582   4.839  14.270 -0.2391  0.1297 -0.1931
11130TIP3    H154881   5.518   4.823  14.338 -2.8638 -1.2215 -2.7492
11130TIP3    H254882   5.586   4.935  14.262 -3.3275  0.2897 -1.0200
11131TIP3   OH254883   4.335   4.898   6.493 -0.3366 -0.5726  0.1599
11131TIP3    H154884   4.303   4.966   6.434 -1.8824 -1.7294 -0.4009
11131TIP3    H254885   4.259   4.843   6.510  0.5805 -1.4779  1.5682
11132TIP3   OH254886   0.364   4.854  16.353 -0.5315  0.3821 -0.1611
11132TIP3    H154887   0.308   4.888  16.283  0.4543  1.6823 -0.3340
11132TIP3    H254888   0.322   4.884  16.434 -1.2025 -0.4018 -0.2057
11133TIP3   OH254889   1.278   1.122  11.900  0.3796  0.0840 -0.5409
11133TIP3    H154890   1.368   1.130  11.933 -0.5485  0.9304  2.0386
11133TIP3    H254891   1.248   1.213  11.891 -1.0454 -0.1514  1.2727
11134TIP3   OH254892   3.391   0.125  13.884 -0.1808 -0.4594 -0.2602
11134TIP3    H154893   3.378   0.208  13.929 -0.1878 -0.9670  0.7064
11134TIP3    H254894   3.303   0.096  13.861 -0.1019  0.3777 -1.7077
11135TIP3   OH254895   2.152   4.566  16.118  0.2632 -0.0471 -0.2865
11135TIP3    H154896   2.057   4.556  16.113  0.2080 -0.3254  1.1543
11135TIP3    H254897   2.165   4.660  16.132  0.2391  0.0621 -0.9360
11136TIP3   OH254898   3.844   6.475   2.041 -0.3306  0.3525 -0.6052
11136TIP3    H154899   3.859   6.480   1.947  1.7494 -0.2555 -0.3676
11136TIP3    H254900   3.840   6.567   2.070  0.0195  0.5529 -1.1701
11137TIP3   OH254901   1.455   1.028   6.105  0.1644  0.3459 -0.2250
11137TIP3    H154902   1.377   1.031   6.161  0.9290  0.9791  0.8494
11137TIP3    H254903   1.471   0.935   6.091 -0.3106  0.1875  0.2349
11138TIP3   OH254904   4.294   3.321   2.619 -0.3626 -0.0121 -0.0248
11138TIP3    H154905   4.344   3.279   2.689  0.0256 -0.2808 -0.4590
11138TIP3    H254906   4.296   3.414   2.641  0.7223  0.0367 -0.2742
11139TIP3   OH254907   6.650   0.785   1.108 -0.4656 -0.0018 -0.1340
11139TIP3    H154908   6.584   0.743   1.053 -0.4909 -0.1015 -0.0282
11139TIP3    H254909   6.661   0.872   1.070  0.4845 -0.5300 -1.0994
11140TIP3   OH254910   4.169   0.916   5.132  0.3233 -0.4440 -0.4839
11140TIP3    H154911   4.207   1.004   5.129  0.9964 -0.7166 -0.2102
11140TIP3    H254912   4.244   0.858   5.123 -0.3383 -1.0117 -3.5955
11141TIP3   OH254913   0.675   3.115   3.348 -0.0650  0.4455 -0.3517
11141TIP3    H154914   0.588   3.137   3.380  0.1772  1.6322 -0.4673
11141TIP3    H254915   0.693   3.181   3.280  1.1121  0.5213  0.0082
11142TIP3   OH254916   6.660   4.908  16.962  0.0569 -0.0738  0.1619
11142TIP3    H154917   6.606   4.945  16.893  0.0948 -0.3881 -0.0338
11142TIP3    H254918   6.630   4.818  16.972 -0.3795  0.1477  0.9867
11143TIP3   OH254919   1.688   1.663  15.244 -0.2552  0.1704 -0.1092
11143TIP3    H154920   1.769   1.701  15.211 -0.0765  1.3439  1.5450
11143TIP3    H254921   1.695   1.569  15.224  1.0072  0.4177 -0.9388
11144TIP3   OH254922   0.083   2.565  14.696 -0.5135  0.0360 -0.4208
11144TIP3    H154923   0.073   2.489  14.639 -0.3611  0.1664 -0.6235
11144TIP3    H254924   0.033   2.544  14.774 -1.5242  0.2617 -0.9958
11145TIP3   OH254925   4.154   1.119   3.333  0.7759  0.2352 -0.1110
11145TIP3    H154926   4.186   1.122   3.243  1.9296  0.2574  0.2848
11145TIP3    H254927   4.207   1.052   3.376 -0.9678 -1.0715  0.1303
11146TIP3   OH254928   3.011   1.877   3.504 -0.5011  0.1084  0.5599
11146TIP3    H154929   3.065   1.908   3.576  0.5297  1.6294 -0.7948
11146TIP3    H254930   3.047   1.920   3.426  0.6219 -3.9831 -1.4747
11147TIP3   OH254931   3.963   3.401  12.439  0.2075  0.2297  0.1877
11147TIP3    H154932   3.868   3.406  12.455  0.4800  1.1084  1.7218
11147TIP3    H254933   3.974   3.436  12.350 -0.7327  2.1457  0.7631
11148TIP3   OH254934   2.860   3.620  11.704 -0.2413 -0.1941 -0.2393
11148TIP3    H154935   2.784   3.641  11.650 -0.3741  0.5011  0.2071
11148TIP3    H254936   2.931   3.672  11.666 -0.2748  0.0960  0.0981
11149TIP3   OH254937   0.413   2.535  13.631 -0.1523 -1.0916 -0.7312
11149TIP3    H154938   0.498   2.567  13.660 -1.2178  1.0450  0.3199
11149TIP3    H254939   0.413   2.551  13.536  0.3773 -0.5037 -0.6386
11150TIP3   OH254940   1.083   2.319  12.650  0.4278 -0.1344  0.1494
11150TIP3    H154941   1.065   2.349  12.561 -0.0825 -0.0876  0.2643
11150TIP3    H254942   1.133   2.390  12.690  1.0937 -0.3715 -0.2561
11151TIP3   OH254943   6.745   0.464   0.588 -0.0280 -0.1795  0.2532
11151TIP3    H154944   6.709   0.508   0.512  1.0877  1.1805  0.4714
11151TIP3    H254945   6.827   0.425   0.557  0.5941  0.6504  0.7920
11152TIP3   OH254946   6.504   2.420  13.205 -0.1019 -1.2726 -0.7218
11152TIP3    H154947   6.567   2.445  13.272  0.8680 -0.4322 -1.8942
11152TIP3    H254948   6.441   2.363  13.250  0.1479 -0.2228  1.0213
11153TIP3   OH254949   5.785   5.890   6.391 -1.0201 -0.4710  0.8485
11153TIP3    H154950   5.734   5.939   6.327  0.4153  0.6938  0.5462
11153TIP3    H254951   5.726   5.822   6.422 -1.6500 -1.4073 -2.0767
11154TIP3   OH254952   6.599   2.278  11.655  0.2357 -0.1710 -0.3773
11154TIP3    H154953   6.525   2.278  11.593  0.5383 -0.6305 -0.7542
11154TIP3    H254954   6.629   2.187  11.655  1.4212  0.1994 -0.9874
11155TIP3   OH254955   2.163   0.140   4.856 -0.0670  0.4914  0.5760
11155TIP3    H154956   2.228   0.069   4.848  1.1445  1.5890  0.2942
11155TIP3    H254957   2.080   0.098   4.835  0.8687 -0.4335 -1.6289
11156TIP3   OH254958   3.078   6.437  14.795 -0.5046 -0.1945 -0.2499
11156TIP3    H154959   3.161   6.394  14.776  0.0137 -0.0457  1.4792
11156TIP3    H254960   3.085   6.523  14.753  1.2099  0.7218  1.7481
11157TIP3   OH254961   0.268   5.882   2.781  0.5715  0.1684 -0.4121
11157TIP3    H154962   0.229   5.837   2.706 -0.8956  0.5896  0.0588
11157TIP3    H254963   0.215   5.961   2.791  2.3052  1.4006 -0.4586
11158TIP3   OH254964   5.154   4.535  15.253  0.9273 -0.1922  0.0417
11158TIP3    H154965   5.094   4.460  15.243 -0.2944  0.8467 -0.8606
11158TIP3    H254966   5.099   4.611  15.234  2.2037  0.9184  0.6976
11159TIP3   OH254967   5.907   1.766   3.520 -0.3994 -0.0438 -0.5335
11159TIP3    H154968   5.933   1.733   3.606  1.6386  1.4757 -0.5004
11159TIP3    H254969   5.824   1.722   3.502 -0.3869 -1.1572  1.7543
11160TIP3   OH254970   6.647   2.042  15.783 -0.0176  0.1213  0.3750
11160TIP3    H154971   6.605   2.100  15.720 -0.9354  0.7154  1.4959
11160TIP3    H254972   6.719   2.095  15.820  0.5000 -0.2145 -0.1415
11161TIP3   OH254973   1.311   4.363  12.433  0.2681 -0.2141  0.8548
11161TIP3    H154974   1.345   4.274  12.441 -0.0227 -0.5232 -0.9003
11161TIP3    H254975   1.232   4.354  12.380 -0.5637  0.9398  1.8327
11162TIP3   OH254976   2.361   4.444  12.149 -0.1130 -0.0816  0.4180
11162TIP3    H154977   2.418   4.521  12.144 -0.6960  0.3254 -0.1297
11162TIP3    H254978   2.273   4.478  12.134 -0.2450 -1.0198 -1.2689
11163TIP3   OH254979   3.599   0.377   3.646  0.2800  0.1185  0.2302
11163TIP3    H154980   3.610   0.468   3.674 -1.5533  0.6129 -0.5402
11163TIP3    H254981   3.516   0.375   3.600  0.3061 -1.9521  0.1489
11164TIP3   OH254982   1.564   2.425  13.830 -0.2621 -0.3997 -0.2551
11164TIP3    H154983   1.566   2.343  13.879  0.7263 -0.4749 -0.4056
11164TIP3    H254984   1.651   2.462  13.841 -0.2776 -0.0234 -1.2744
11165TIP3   OH254985   2.565   0.094  12.551 -0.2700 -0.2060  0.0084
11165TIP3    H154986   2.529   0.181  12.531 -0.4612 -0.2974 -0.0532
11165TIP3    H254987   2.570   0.050  12.466 -1.2813 -0.6688  0.1634
11166TIP3   OH254988   3.576   0.060  12.733 -0.3366  0.2177  0.5262
11166TIP3    H154989   3.656   0.107  12.758  1.2522 -1.8143 -0.4138
11166TIP3    H254990   3.580   0.055  12.637 -1.7206  0.2498  0.4491
11167TIP3   OH254991   4.496   3.842   5.650 -0.2862  1.0521 -0.2539
11167TIP3    H154992   4.477   3.886   5.568  1.6032  1.2843 -0.5954
11167TIP3    H254993   4.578   3.881   5.680  0.8802 -1.4220 -0.0085
11168TIP3   OH254994   2.478   0.231  11.562 -0.6764  0.4956 -0.4041
11168TIP3    H154995   2.546   0.164  11.570 -0.5740  0.4836 -1.2344
11168TIP3    H254996   2.431   0.208  11.482  0.3384  2.2552 -1.5954
11169TIP3   OH254997   0.617   5.843   5.675  0.0652 -0.2977  0.6160
11169TIP3    H154998   0.617   5.797   5.591  0.3102  2.2379 -0.8752
11169TIP3    H254999   0.709   5.861   5.693 -0.0269 -0.3725  1.1748
11170TIP3   OH255000   5.413   1.728  13.550 -0.3309 -0.2460  0.7585
11170TIP3    H155001   5.468   1.775  13.613 -2.3214  2.8521  0.3801
11170TIP3    H255002   5.416   1.782  13.471 -1.5388 -1.5778 -0.2408
11171TIP3   OH255003   4.264   6.287  17.062 -0.4514  1.1722 -0.3079
11171TIP3    H155004   4.173   6.258  17.073 -0.0785  0.4156  0.9699
11171TIP3    H255005   4.259   6.382  17.066 -1.1256  1.1209  0.4549
11172TIP3   OH255006   5.710   2.139   6.156 -0.0927  0.2758  0.0662
11172TIP3    H155007   5.644   2.193   6.200  0.0270 -0.4339  1.1558
11172TIP3    H255008   5.784   2.137   6.217 -0.3298 -1.5889  0.3608
11173TIP3   OH255009   1.925   4.682  11.626  0.1862 -0.0677 -0.4699
11173TIP3    H155010   2.021   4.677  11.620  0.2609  0.6656  0.0740
11173TIP3    H255011   1.907   4.772  11.653 -0.5843 -0.6005  0.8687
11174TIP3   OH255012   2.229   2.835   2.794  0.0969  0.2283 -0.3746
11174TIP3    H155013   2.291   2.895   2.834 -1.9156  0.4956  2.7791
11174TIP3    H255014   2.162   2.891   2.755  0.2580 -0.0072 -0.9930
11175TIP3   OH255015   1.709   6.139   3.692  0.2379 -0.0642 -0.4347
11175TIP3    H155016   1.803   6.120   3.686  0.3332  0.3546 -0.2759
11175TIP3    H255017   1.668   6.070   3.639  0.6068 -0.4586 -0.2135
11176TIP3   OH255018   1.951   2.134  12.643 -0.6453 -0.5567 -0.3238
11176TIP3    H155019   1.914   2.218  12.619 -1.1109 -0.5042  0.5595
11176TIP3    H255020   2.040   2.136  12.607 -0.7213  0.2176 -0.4814
11177TIP3   OH255021   4.193   4.365   6.671  0.2122 -0.5275  0.4255
11177TIP3    H155022   4.165   4.455   6.653 -0.0131 -0.8287 -0.8751
11177TIP3    H255023   4.278   4.374   6.712  0.1793  0.2873  0.3381
11178TIP3   OH255024   0.021   2.577   4.344  0.0996 -0.2303 -0.4883
11178TIP3    H155025   0.102   2.530   4.324  0.3238  0.6726 -1.8072
11178TIP3    H255026  -0.046   2.532   4.292  0.0756  0.0938 -0.7384
11179TIP3   OH255027   0.199   1.942   2.249 -0.0971 -0.2430  0.4419
11179TIP3    H155028   0.247   1.876   2.298 -0.2452 -2.1795 -1.8065
11179TIP3    H255029   0.266   2.001   2.215  0.6053 -1.8659 -1.1522
11180TIP3   OH255030   6.680   0.212   2.613 -0.0497 -0.1587 -0.1103
11180TIP3    H155031   6.692   0.298   2.653 -0.4855  0.7600 -1.8290
11180TIP3    H255032   6.736   0.214   2.535 -0.0790 -1.4227 -0.1850
11181TIP3   OH255033   0.600   2.118  16.523 -0.3256 -0.3124 -0.5169
11181TIP3    H155034   0.683   2.163  16.535 -1.4019  1.7078 -0.2307
11181TIP3    H255035   0.579   2.083  16.610 -0.5650  0.6367 -0.1853
11182TIP3   OH255036   2.907   5.166  14.550  0.3328  0.0251 -0.2515
11182TIP3    H155037   2.897   5.132  14.639  1.5492  0.5157  0.0946
11182TIP3    H255038   2.858   5.105  14.495  1.2059 -1.4275  0.5229
11183TIP3   OH255039   4.993   2.044   0.899 -0.3619 -0.3341  0.1105
11183TIP3    H155040   4.983   2.002   0.985 -1.1965 -1.5919 -0.5641
11183TIP3    H255041   5.087   2.037   0.881 -0.0418  0.6607  1.2448
11184TIP3   OH255042   0.858   3.510   2.186 -0.5483 -0.3734  0.4428
11184TIP3    H155043   0.813   3.537   2.266  0.9364  0.0294  1.1802
11184TIP3    H255044   0.932   3.571   2.179 -0.0853 -1.0484 -0.6883
11185TIP3   OH255045   3.581   3.610   4.190  0.3267 -0.9074  0.3204
11185TIP3    H155046   3.582   3.591   4.284 -0.5463 -3.4293 -0.0929
11185TIP3    H255047   3.492   3.637   4.172  0.1069 -1.7651  0.0408
11186TIP3   OH255048   0.670   4.326   4.290  0.4758  0.0965  0.2623
11186TIP3    H155049   0.754   4.350   4.251 -0.0025 -0.5170 -1.2523
11186TIP3    H255050   0.609   4.391   4.256  0.3181  0.4824  1.2807
11187TIP3   OH255051   0.866   5.214  14.411  0.8370 -0.2461  0.2493
11187TIP3    H155052   0.944   5.160  14.427  0.1291 -0.9492  1.4109
11187TIP3    H255053   0.867   5.279  14.482  0.9696  0.4726 -0.3950
11188TIP3   OH255054   4.110   5.223  11.833 -0.2280  0.2897 -0.1474
11188TIP3    H155055   4.193   5.185  11.804 -0.0295  1.9945 -2.1181
11188TIP3    H255056   4.131   5.270  11.913  0.2371 -0.9580  0.4803
11189TIP3   OH255057   4.547   4.083  16.559 -0.0239  0.0239 -0.5422
11189TIP3    H155058   4.577   4.002  16.601 -1.2886 -0.8655 -1.2918
11189TIP3    H255059   4.608   4.096  16.486 -0.1649 -0.5967 -0.7811
11190TIP3   OH255060   3.272   2.814  14.104 -0.0492 -0.2497  0.3601
11190TIP3    H155061   3.182   2.847  14.110 -0.1576 -0.2963 -0.9058
11190TIP3    H255062   3.326   2.893  14.097  0.1697 -0.1445  2.4463
11191TIP3   OH255063   4.604   4.758   0.348  0.4951 -0.3582  0.2972
11191TIP3    H155064   4.689   4.732   0.385 -0.1819 -0.3896  1.9394
11191TIP3    H255065   4.603   4.854   0.357  1.2207 -0.1032 -1.7715
11192TIP3   OH255066   3.398   4.757  14.408 -0.6234  0.0511  0.0002
11192TIP3    H155067   3.422   4.677  14.455  2.4259  0.7836 -0.0855
11192TIP3    H255068   3.480   4.786  14.366 -2.2820  1.6263 -2.4408
11193TIP3   OH255069   2.672   4.095  16.724  0.0238  0.4028  0.1644
11193TIP3    H155070   2.729   4.145  16.666 -0.3482  0.4862 -0.1256
11193TIP3    H255071   2.648   4.156  16.793 -1.3057  0.9663 -0.7557
11194TIP3   OH255072   1.102   1.895   5.511  0.0116  0.1128  0.8318
11194TIP3    H155073   1.182   1.930   5.550 -0.7507  1.4788  1.2216
11194TIP3    H255074   1.103   1.802   5.534  2.4104 -0.3342 -0.7740
11195TIP3   OH255075   0.741   2.401  11.962  0.4951  0.0487 -0.2474
11195TIP3    H155076   0.655   2.389  11.922  0.5537 -0.9473 -0.1147
11195TIP3    H255077   0.799   2.346  11.908  0.9142  0.1616  0.0847
11196TIP3   OH255078   3.315   6.399   4.328 -0.4661  0.3388  0.5105
11196TIP3    H155079   3.337   6.476   4.381 -1.7900 -0.5980  2.5368
11196TIP3    H255080   3.222   6.410   4.308  0.0501  0.7969 -1.9560
11197TIP3   OH255081   2.003   6.325   2.477  0.9580 -0.5658  0.0719
11197TIP3    H155082   1.907   6.324   2.476  0.9506 -0.4445  0.5167
11197TIP3    H255083   2.027   6.349   2.388  0.5461  2.0620  0.5816
11198TIP3   OH255084   6.807   1.595  12.370 -0.0841  0.0028  0.3136
11198TIP3    H155085   6.801   1.676  12.320  1.8789 -0.2345 -0.3846
11198TIP3    H255086   6.732   1.543  12.340 -0.5315  0.9710 -0.3074
11199TIP3   OH255087   3.443   0.970  13.172 -0.1811  0.5449  0.4276
11199TIP3    H155088   3.423   0.914  13.247  1.4395 -1.1077 -0.2998
11199TIP3    H255089   3.444   1.059  13.208  0.2603 -0.1778  2.3108
11200TIP3   OH255090   1.667   5.040  12.371  0.4466  0.8322  0.2395
11200TIP3    H155091   1.664   5.122  12.322  1.5938  0.5711 -0.3007
11200TIP3    H255092   1.694   4.975  12.307 -1.3054 -0.1568  0.4600
11201TIP3   OH255093   3.556   4.749   3.972 -0.9341  0.5786 -0.4040
11201TIP3    H155094   3.469   4.724   3.941 -0.3356 -0.9661 -0.9312
11201TIP3    H255095   3.611   4.747   3.894  0.6946 -3.7256  0.5548
11202TIP3   OH255096   5.202   6.475  16.357 -0.1072 -0.1363 -0.0283
11202TIP3    H155097   5.154   6.479  16.440 -2.3692  0.7146 -1.2720
11202TIP3    H255098   5.182   6.388  16.322  1.2063 -0.6627  0.4889
11203TIP3   OH255099   5.814   6.351  15.209 -0.1321 -0.9201 -0.3439
11203TIP3    H155100   5.760   6.413  15.258 -1.3819 -0.4931 -2.1664
11203TIP3    H255101   5.872   6.312  15.275 -0.1918  1.2272  1.0738
11204TIP3   OH255102   5.191   6.166  12.835 -0.3208  0.0287  0.1007
11204TIP3    H155103   5.123   6.211  12.886 -1.1084 -0.7700 -0.2007
11204TIP3    H255104   5.195   6.078  12.873  0.4143  0.0037 -0.0198
11205TIP3   OH255105   4.423   4.842  15.203  0.4955  0.4182  0.5474
11205TIP3    H155106   4.428   4.895  15.283  1.5632  1.6157 -0.2795
11205TIP3    H255107   4.504   4.791  15.203  0.4947  0.4169  0.2239
11206TIP3   OH255108   3.382   1.243  14.621 -0.1530  0.2046  0.2475
11206TIP3    H155109   3.459   1.272  14.669  0.3126  0.5278 -0.6743
11206TIP3    H255110   3.417   1.198  14.544 -0.8819 -0.2578  0.1748
11207TIP3   OH255111   5.149   5.187  16.314  0.1744 -0.0392  0.1683
11207TIP3    H155112   5.225   5.128  16.312  0.4700  0.1328  2.8146
11207TIP3    H255113   5.087   5.144  16.373 -0.8404  0.9079 -0.1817
11208TIP3   OH255114   5.842   3.519   3.696  0.2482  0.8451 -0.8019
11208TIP3    H155115   5.884   3.526   3.782 -0.4028  0.9668 -0.4820
11208TIP3    H255116   5.888   3.448   3.652  1.0090  1.1994 -0.5958
11209TIP3   OH255117   3.526   1.435  15.097 -0.2388 -0.9033 -0.4665
11209TIP3    H155118   3.556   1.416  15.008  0.2429 -0.4934 -0.3969
11209TIP3    H255119   3.454   1.374  15.112  1.2498 -2.6696 -0.2339
11210TIP3   OH255120   6.426   2.153   3.898  0.0138 -0.0015 -0.0403
11210TIP3    H155121   6.487   2.169   3.827  0.6495  2.2697  0.9159
11210TIP3    H255122   6.445   2.064   3.927 -0.2277 -0.9514 -2.6070
11211TIP3   OH255123   5.157   4.566   5.965 -0.1672  0.4909  0.0537
11211TIP3    H155124   5.245   4.531   5.949  0.5020  1.1095  2.1339
11211TIP3    H255125   5.108   4.492   6.001 -0.7337 -0.0109 -1.6113
11212TIP3   OH255126   1.378   6.360   6.443 -0.6710 -0.3580 -0.1253
11212TIP3    H155127   1.470   6.336   6.439  0.2164  2.2719  1.7594
11212TIP3    H255128   1.345   6.315   6.521 -0.2695  0.7257  0.6829
11213TIP3   OH255129   4.788   3.515   3.508  0.9620 -0.7291 -0.0270
11213TIP3    H155130   4.707   3.464   3.510  1.1245 -1.0034 -0.3718
11213TIP3    H255131   4.843   3.475   3.576  1.4964 -1.7084 -1.0004
11214TIP3   OH255132   4.818   3.520   3.225 -0.7388  0.5703 -0.4235
11214TIP3    H155133   4.860   3.519   3.311  0.3185  0.2688 -0.9227
11214TIP3    H255134   4.740   3.574   3.237 -0.7369  0.3291  0.7799
11215TIP3   OH255135   5.183   2.368  15.871  0.8061  0.5628 -0.1048
11215TIP3    H155136   5.171   2.463  15.875 -3.4733  0.2072  0.2726
11215TIP3    H255137   5.149   2.343  15.785  2.4630 -0.6453 -0.4684
11216TIP3   OH255138   3.901   5.890  13.720  0.0765 -0.5129  0.4239
11216TIP3    H155139   3.985   5.849  13.699  1.0491  1.3063  0.5127
11216TIP3    H255140   3.912   5.921  13.810 -0.4485  0.3073  0.2144
11217TIP3   OH255141   6.532   3.198  11.340  0.3213 -0.0373 -0.4020
11217TIP3    H155142   6.528   3.153  11.256 -0.0876 -1.5868  0.4157
11217TIP3    H255143   6.610   3.164  11.382  0.4735  0.6655 -0.1008
11218TIP3   OH255144   4.435   0.930   3.146 -0.6945 -0.0173  0.1986
11218TIP3    H155145   4.389   1.003   3.104 -0.2096  0.9275  1.2671
11218TIP3    H255146   4.366   0.883   3.192 -0.8550  0.3791  0.3698
11219TIP3   OH255147   1.543   6.754   0.814 -0.0700  0.5544  0.2067
11219TIP3    H155148   1.636   6.770   0.832 -0.2513  1.8220  0.1053
11219TIP3    H255149   1.501   6.761   0.900 -0.0998  0.0547  0.2404
11220TIP3   OH255150   0.711   0.528   0.615 -0.0942 -0.3187 -0.0506
11220TIP3    H155151   0.660   0.454   0.647 -2.2343  1.1015  0.0161
11220TIP3    H255152   0.677   0.603   0.664  0.4656  1.0460 -1.6551
11221TIP3   OH255153   2.287   5.317  13.700 -0.2726 -0.0122  0.3232
11221TIP3    H155154   2.260   5.402  13.734  2.2194  0.4509  1.4033
11221TIP3    H255155   2.249   5.253  13.761 -0.8908  0.4442  0.4147
11222TIP3   OH255156   0.836   2.156  15.058 -0.5815 -0.0705  0.0803
11222TIP3    H155157   0.764   2.105  15.020 -0.3461 -0.7256  0.4991
11222TIP3    H255158   0.804   2.184  15.143 -0.1417 -0.8538  0.5163
11223TIP3   OH255159   1.108   4.505  16.261 -0.3345  0.6827  0.5868
11223TIP3    H155160   1.016   4.495  16.235 -1.1278  0.1860  3.3170
11223TIP3    H255161   1.131   4.595  16.236 -0.5104 -0.1088 -2.9150
11224TIP3   OH255162   6.525   6.367   1.999  0.5387 -0.1515 -0.3541
11224TIP3    H155163   6.521   6.430   1.927 -0.7770  0.1122 -0.0722
11224TIP3    H255164   6.442   6.378   2.045  1.4794 -0.0723  1.4111
11225TIP3   OH255165   0.111   1.173  13.471  0.2098  0.6549 -0.5049
11225TIP3    H155166   0.178   1.109  13.445  0.6613  1.4989 -1.4700
11225TIP3    H255167   0.056   1.182  13.393  0.1080  1.4021 -0.3485
11226TIP3   OH255168   3.472   4.433  12.244  0.1829  0.3847  0.2917
11226TIP3    H155169   3.430   4.460  12.325  1.9584  1.2660  0.9880
11226TIP3    H255170   3.480   4.514  12.193 -0.5900 -0.0973 -0.6182
11227TIP3   OH255171   4.572   4.066   2.543 -0.4723  0.2482 -0.2072
11227TIP3    H155172   4.533   4.138   2.494  0.5420  0.0665 -1.3309
11227TIP3    H255173   4.558   4.089   2.635 -0.6920  1.5661 -0.5509
11228TIP3   OH255174   2.658   6.563   3.461  0.0908 -0.4847  0.0956
11228TIP3    H155175   2.641   6.656   3.446  0.0335  0.2698  3.7407
11228TIP3    H255176   2.576   6.519   3.439 -0.8530  0.7625  0.9673
11229TIP3   OH255177   6.196   5.905  11.733 -0.0398  0.2129 -0.6336
11229TIP3    H155178   6.160   5.967  11.669 -1.3613  0.8531  0.6828
11229TIP3    H255179   6.270   5.864  11.687 -0.1821  1.5274 -2.1301
11230TIP3   OH255180   5.823   0.333  16.342  0.6197 -0.6699 -0.7698
11230TIP3    H155181   5.844   0.398  16.276  0.6604 -0.0201 -0.1299
11230TIP3    H255182   5.888   0.263  16.329  1.9798  0.4082 -0.0858
11231TIP3   OH255183   0.973   6.084  13.326 -0.0103  0.2008 -0.2085
11231TIP3    H155184   1.003   6.026  13.256 -3.0731 -2.6348  0.5796
11231TIP3    H255185   1.041   6.077  13.393  0.5736 -1.0656 -0.8879
11232TIP3   OH255186   6.656   2.693   0.554 -0.3463 -0.0502  0.4661
11232TIP3    H155187   6.656   2.609   0.600  1.4599 -0.9209 -1.0302
11232TIP3    H255188   6.745   2.726   0.565 -0.5162  0.7788 -0.5535
11233TIP3   OH255189   1.339   2.106  16.487  0.1050 -0.6219 -0.3943
11233TIP3    H155190   1.425   2.145  16.473  0.0701 -0.2054  0.5051
11233TIP3    H255191   1.291   2.126  16.406 -0.9008  3.9146  0.9775
11234TIP3   OH255192   5.459   2.402   6.026 -0.0639  0.3024  0.1175
11234TIP3    H155193   5.494   2.357   6.103  0.5243 -2.4563 -1.6135
11234TIP3    H255194   5.369   2.425   6.050  0.2854  0.0208  1.7989
11235TIP3   OH255195   2.635   4.459   4.943 -0.2291  0.6587  0.1079
11235TIP3    H155196   2.719   4.470   4.988 -0.7823  0.7689  1.1375
11235TIP3    H255197   2.627   4.536   4.887  1.7718 -0.7899 -2.4278
11236TIP3   OH255198   0.197   3.496   3.876 -0.1258  0.3939 -0.4892
11236TIP3    H155199   0.135   3.520   3.808  0.8109  2.1400 -0.7566
11236TIP3    H255200   0.278   3.540   3.852  0.5722  0.0273  1.0882
11237TIP3   OH255201   4.106   3.527  16.938  0.3819 -0.1285  0.7185
11237TIP3    H155202   4.127   3.530  16.845  0.1643  1.2634  0.6887
11237TIP3    H255203   4.107   3.434  16.960  1.8896 -0.3980 -0.3322
11238TIP3   OH255204   4.094   1.722   4.341  0.5271  0.1355  0.1398
11238TIP3    H155205   4.139   1.637   4.342  0.3105  0.0198  1.8938
11238TIP3    H255206   4.001   1.699   4.337  0.4562  0.2693  0.8914
11239TIP3   OH255207   0.869   1.315   2.010  0.6895  0.8108  0.0126
11239TIP3    H155208   0.835   1.339   1.923  1.8457 -0.5001 -0.8487
11239TIP3    H255209   0.904   1.397   2.045  0.6086  1.2849 -0.9547
11240TIP3   OH255210   5.144   2.879  12.604 -1.0161 -0.4289 -0.3002
11240TIP3    H155211   5.080   2.922  12.660 -1.0465  0.0841 -0.7157
11240TIP3    H255212   5.131   2.786  12.618  0.0149 -0.3149  1.7150
11241TIP3   OH255213   4.311   0.618   0.031 -0.6165 -0.8058 -0.5000
11241TIP3    H155214   4.217   0.605   0.043 -0.4002 -1.5461  0.5220
11241TIP3    H255215   4.338   0.546  -0.027 -0.3789 -1.7112  0.6975
11242TIP3   OH255216   4.639   1.257   5.192 -0.2952 -0.2232 -0.4052
11242TIP3    H155217   4.593   1.289   5.270 -0.9473 -0.3778 -0.7278
11242TIP3    H255218   4.730   1.282   5.207 -0.2355 -1.1085  0.8606
11243TIP3   OH255219   1.311   5.562   0.358 -0.0920 -0.0252  0.2632
11243TIP3    H155220   1.347   5.540   0.444 -0.0018  0.9785  0.4936
11243TIP3    H255221   1.227   5.517   0.355 -1.0076  1.4640  1.7017
11244TIP3   OH255222   1.503   4.404  12.685  0.0376 -0.5395 -0.2016
11244TIP3    H155223   1.546   4.452  12.755  0.2832  1.8420 -1.8563
11244TIP3    H255224   1.427   4.364  12.727  0.0325  1.0163  1.3972
11245TIP3   OH255225   5.181   0.944  15.724 -0.4686  0.5735 -0.6432
11245TIP3    H155226   5.166   0.889  15.801 -0.6539  1.5773  0.0652
11245TIP3    H255227   5.274   0.966  15.728 -0.6009  1.1060 -0.3616
11246TIP3   OH255228   1.779   3.990  14.139 -0.0546 -0.1807 -0.2700
11246TIP3    H155229   1.787   3.917  14.078  2.0432 -0.2575  0.0285
11246TIP3    H255230   1.738   3.952  14.216  1.6180 -1.2595  0.1402
11247TIP3   OH255231   5.392   1.523  12.983 -0.5416  0.4380  0.1117
11247TIP3    H155232   5.383   1.618  12.982  0.7110  0.5842 -0.8238
11247TIP3    H255233   5.435   1.503  12.900  0.5020 -0.7982  0.9107
11248TIP3   OH255234   2.101   5.494  16.451  0.7454 -0.4975  0.2162
11248TIP3    H155235   2.156   5.562  16.490 -1.2655  0.8501  0.8678
11248TIP3    H255236   2.132   5.487  16.361  1.4034  0.8318  0.3126
11249TIP3   OH255237   1.077   6.414   6.042  0.2974 -0.6090 -0.3222
11249TIP3    H155238   1.103   6.498   6.004 -2.8386  0.7138  0.1885
11249TIP3    H255239   1.122   6.411   6.127  0.3204  0.6506 -0.2772
11250TIP3   OH255240   5.441   2.324   0.075 -0.4233 -0.4422  0.0998
11250TIP3    H155241   5.349   2.347   0.063 -0.0357  1.6548  0.7862
11250TIP3    H255242   5.489   2.397   0.036  0.9361 -0.5783  1.4298
11251TIP3   OH255243   1.538   6.401   2.990  0.1667 -0.2151 -0.2307
11251TIP3    H155244   1.598   6.332   3.019  0.9072 -0.0234 -1.2576
11251TIP3    H255245   1.535   6.462   3.064  0.6652 -0.5938  0.1166
11252TIP3   OH255246   4.919   5.757  12.540  0.1616 -0.9125 -0.1098
11252TIP3    H155247   4.832   5.781  12.570 -0.1006  1.0945 -2.2334
11252TIP3    H255248   4.904   5.684  12.479  0.0766 -1.1312  0.1697
11253TIP3   OH255249   1.037   2.943   1.547  0.5847 -1.0219  0.0373
11253TIP3    H155250   1.022   2.852   1.572 -1.8046 -0.7288 -0.1063
11253TIP3    H255251   0.982   2.994   1.606  0.2667  0.1697 -1.2181
11254TIP3   OH255252   6.151   5.919   5.404 -0.7135  0.1440  0.0855
11254TIP3    H155253   6.229   5.893   5.356 -0.6860  0.0459  0.1842
11254TIP3    H255254   6.106   5.837   5.424  1.4349 -0.2840  3.9990
11255TIP3   OH255255   0.011   4.788   5.364  0.5046  0.3435  0.2932
11255TIP3    H155256   0.090   4.825   5.323  0.4212  0.9136  0.6300
11255TIP3    H255257   0.045   4.737   5.438  0.5352  1.0723  0.7964
11256TIP3   OH255258   0.673   1.670   0.272  0.0911 -0.3546 -0.1943
11256TIP3    H155259   0.699   1.746   0.323 -0.4783 -0.2285 -0.0897
11256TIP3    H255260   0.692   1.595   0.328  2.3677 -0.4395 -0.9778
11257TIP3   OH255261   6.421   4.593   6.496  0.8673 -0.3846  0.2603
11257TIP3    H155262   6.434   4.500   6.514 -1.4938 -0.9687 -0.6365
11257TIP3    H255263   6.416   4.598   6.400  0.6468  0.5925  0.3106
11258TIP3   OH255264   2.190   3.913   1.186 -0.1343  0.0853 -0.2060
11258TIP3    H155265   2.222   3.837   1.234 -0.1065 -0.1916 -0.6631
11258TIP3    H255266   2.130   3.956   1.247 -2.7319 -2.0883 -1.0384
11259TIP3   OH255267   1.992   4.363  15.554  0.3951  0.1660  0.0190
11259TIP3    H155268   2.079   4.340  15.587  0.6486 -0.4724 -1.0515
11259TIP3    H255269   1.933   4.343  15.626  0.8075 -2.2328 -0.2407
11260TIP3   OH255270   0.294   5.201  14.563 -0.1840  0.0204  0.9314
11260TIP3    H155271   0.283   5.116  14.604 -0.6685 -0.7270 -0.6861
11260TIP3    H255272   0.222   5.208  14.501  1.6279  0.1679 -1.3099
11261TIP3   OH255273   1.057   4.433  10.744  0.0599  0.4791 -0.4691
11261TIP3    H155274   1.007   4.358  10.712  0.3718  0.2888 -0.5169
11261TIP3    H255275   1.133   4.395  10.789  0.4636  0.7641 -0.8914
11262TIP3   OH255276   0.137   6.594  16.538  0.3842 -0.2525  0.4600
11262TIP3    H155277   0.100   6.562  16.456  1.8821 -0.7925 -0.0532
11262TIP3    H255278   0.187   6.672  16.513  0.3421 -0.0631  0.9599
11263TIP3   OH255279   0.494   2.799   3.564  0.0534  0.0573  0.1250
11263TIP3    H155280   0.412   2.779   3.519 -0.1421 -0.9786  0.9020
11263TIP3    H255281   0.469   2.813   3.655  0.7122 -0.1341  0.3409
11264TIP3   OH255282   2.941   5.816  11.286 -0.6486  0.3478 -0.3717
11264TIP3    H155283   2.978   5.776  11.208 -0.4252 -0.1082 -0.0383
11264TIP3    H255284   2.894   5.745  11.330  0.9167  0.0624  0.9541
11265TIP3   OH255285   0.192   5.133  15.613  0.1508 -0.5858  0.3750
11265TIP3    H155286   0.111   5.120  15.565 -0.3161  0.3201  0.8822
11265TIP3    H255287   0.256   5.078  15.568 -0.3331  0.0001 -1.0903
11266TIP3   OH255288   4.260   1.062  14.540  0.1224 -0.5523  0.2405
11266TIP3    H155289   4.254   0.967  14.532 -1.4880 -0.4836  0.1817
11266TIP3    H255290   4.347   1.078  14.576  0.5780 -2.0129 -0.1474
11267TIP3   OH255291   6.794   1.426   1.319 -0.4028 -0.4176  0.0218
11267TIP3    H155292   6.828   1.402   1.232 -1.4914 -1.6367 -0.0943
11267TIP3    H255293   6.701   1.404   1.315 -0.9735  1.6550  0.7601
11268TIP3   OH255294   4.427   0.569  13.000 -0.5038  0.3518  0.2373
11268TIP3    H155295   4.494   0.501  13.009 -0.6084  0.2687  0.3883
11268TIP3    H255296   4.377   0.564  13.082  0.0795  1.2400  0.6615
11269TIP3   OH255297   1.879   4.498   3.765  0.1464  0.2283 -0.2768
11269TIP3    H155298   1.880   4.422   3.823  1.5313 -0.4034 -1.0774
11269TIP3    H255299   1.814   4.477   3.698  0.1413 -0.0190 -0.1951
11270TIP3   OH255300   3.524   1.153   2.015  0.4645 -0.0775  0.0803
11270TIP3    H155301   3.444   1.189   2.052 -0.9911 -1.8084 -1.1786
11270TIP3    H255302   3.537   1.071   2.063  2.4710  0.9260  1.3976
11271TIP3   OH255303   1.564   6.059   1.096 -0.4485 -0.4345  0.7417
11271TIP3    H155304   1.600   5.990   1.151 -1.6918 -3.1237 -1.5563
11271TIP3    H255305   1.508   6.110   1.154  0.9946 -0.9363  2.6536
11272TIP3   OH255306   2.918   0.547  15.394  0.1844 -0.1108  0.0262
11272TIP3    H155307   2.908   0.455  15.368  4.5876 -1.2539  1.4394
11272TIP3    H255308   2.940   0.593  15.312  1.7933 -1.1811 -0.1913
11273TIP3   OH255309   5.163   0.541  15.352  0.2217 -0.0608  0.2114
11273TIP3    H155310   5.118   0.576  15.276 -1.2003 -3.1992 -0.5501
11273TIP3    H255311   5.099   0.549  15.423  0.4495  0.1787  0.3932
11274TIP3   OH255312   4.999   2.184   4.122  0.8481  0.6449 -0.2723
11274TIP3    H155313   5.042   2.248   4.178 -1.0425 -0.3120  2.4634
11274TIP3    H255314   4.906   2.206   4.126  0.4065 -0.8502 -1.1561
11275TIP3   OH255315   1.456   0.047  11.190 -0.7538  0.2721  0.1272
11275TIP3    H155316   1.551   0.055  11.203 -0.9026  2.2066  0.2877
11275TIP3    H255317   1.446   0.020  11.099 -0.0619 -0.6087  0.2903
11276TIP3   OH255318   5.580   0.053  14.055 -0.4214 -0.0990  0.4661
11276TIP3    H155319   5.582   0.018  14.144  1.1699 -0.3564  0.3521
11276TIP3    H255320   5.623   0.139  14.062  0.1350 -0.3245 -0.1271
11277TIP3   OH255321   3.914   0.420   6.324 -0.6682  0.0939 -0.1665
11277TIP3    H155322   3.941   0.512   6.323 -1.4682  0.4385  2.6939
11277TIP3    H255323   3.824   0.421   6.356 -1.8630 -1.5392 -3.0797
11278TIP3   OH255324   6.112   0.741  13.147  0.0618  0.4541  0.3732
11278TIP3    H155325   6.097   0.729  13.053  1.6861  0.3903  0.0922
11278TIP3    H255326   6.092   0.656  13.186  0.7232  0.0643 -0.1150
11279TIP3   OH255327   2.585   1.856  16.815  0.0581 -0.2919 -0.5954
11279TIP3    H155328   2.615   1.871  16.905  0.4167 -2.0791 -0.3700
11279TIP3    H255329   2.542   1.937  16.790  0.1172  0.3129  1.1282
11280TIP3   OH255330   1.194   2.944  16.449 -0.0066 -0.6166  0.0729
11280TIP3    H155331   1.220   2.856  16.422 -1.7708 -1.7188  1.7303
11280TIP3    H255332   1.258   3.002  16.407  0.7312 -2.5981 -1.7030
11281TIP3   OH255333   3.313   2.204   1.197  0.0948  0.1905  0.0411
11281TIP3    H155334   3.269   2.286   1.219  2.1988  1.2472  0.5860
11281TIP3    H255335   3.278   2.140   1.258  0.7967  1.4838  1.8768
11282TIP3   OH255336   5.960   6.782  10.259 -0.0922  0.4074  0.2730
11282TIP3    H155337   5.902   6.801  10.332 -0.0019  2.4210 -0.1189
11282TIP3    H255338   5.965   6.686  10.256  0.4377  0.2458  3.2902
11283TIP3   OH255339   4.093   6.455   4.576 -0.4476  0.4384 -0.1378
11283TIP3    H155340   4.028   6.525   4.570  0.9593  1.7857 -0.0274
11283TIP3    H255341   4.072   6.410   4.659 -1.4832  0.5793 -0.3119
11284TIP3   OH255342   3.279   3.007   3.411 -0.0322 -0.7770 -0.0167
11284TIP3    H155343   3.331   2.949   3.466  0.9309  0.7843  0.8022
11284TIP3    H255344   3.336   3.028   3.337  0.5679  0.9663  0.8987
11285TIP3   OH255345   4.671   1.205  16.514 -0.4706  0.2111 -0.1645
11285TIP3    H155346   4.718   1.286  16.493  0.3525 -0.1807  0.1255
11285TIP3    H255347   4.682   1.195  16.608 -0.1189 -0.5038 -0.2746
11286TIP3   OH255348   1.092   1.293   5.733 -0.2788  0.4413  0.1425
11286TIP3    H155349   1.087   1.384   5.764 -0.9896  0.5281 -0.2153
11286TIP3    H255350   1.002   1.262   5.735 -0.0285 -0.2845  0.3263
11287TIP3   OH255351   4.726   3.198   1.846  1.0132  0.4596 -0.2616
11287TIP3    H155352   4.649   3.214   1.792  1.8817  0.6732 -1.4794
11287TIP3    H255353   4.796   3.248   1.804  1.6621  0.8833  1.2466
11288TIP3   OH255354   5.784   3.349  13.736 -0.2154  0.0394  0.1738
11288TIP3    H155355   5.806   3.259  13.761  0.6761  0.3304  0.4972
11288TIP3    H255356   5.718   3.339  13.667  0.5112 -0.8982 -0.4217
11289TIP3   OH255357   6.655   4.751   6.073 -0.4040  0.2761  0.3329
11289TIP3    H155358   6.679   4.705   5.992  2.2213  1.1261  0.5597
11289TIP3    H255359   6.585   4.811   6.046  0.7845  0.9258 -1.4637
11290TIP3   OH255360   4.007   1.738  11.954 -0.0424 -0.0891 -0.5197
11290TIP3    H155361   3.973   1.780  11.874  0.4562 -0.6268 -1.0261
11290TIP3    H255362   3.933   1.687  11.987 -0.0244 -0.5043 -1.0924
11291TIP3   OH255363   3.348   2.167   0.176 -0.3402 -0.1749 -0.1728
11291TIP3    H155364   3.397   2.094   0.140 -1.2919 -0.5515 -0.7329
11291TIP3    H255365   3.409   2.208   0.238  0.1244 -1.5660  0.3311
11292TIP3   OH255366   3.969   1.411  14.391  0.4716 -0.1160  0.4083
11292TIP3    H155367   4.020   1.365  14.325 -1.4953 -0.2659 -1.1048
11292TIP3    H255368   4.030   1.472  14.431  1.4722  0.9572 -2.4965
11293TIP3   OH255369   2.938   6.503   3.369  0.3483  0.0963  0.6108
11293TIP3    H155370   2.852   6.527   3.336  0.4971  0.8158  0.7290
11293TIP3    H255371   2.968   6.581   3.417  0.2194 -0.8488  2.3008
11294TIP3   OH255372   3.910   1.270  13.337 -0.2542 -0.0901  0.1284
11294TIP3    H155373   3.945   1.358  13.350  0.4186 -0.4670  0.9769
11294TIP3    H255374   3.843   1.261  13.405 -1.2345  0.2213 -0.7775
11295TIP3   OH255375   0.556   5.525  15.535 -0.3467 -0.1174  0.2531
11295TIP3    H155376   0.479   5.502  15.587 -0.5346 -0.5226 -0.1934
11295TIP3    H255377   0.617   5.452  15.547  0.4097  0.6695  1.4221
11296TIP3   OH255378   6.705   2.602   0.247 -0.6710  0.3737 -0.3044
11296TIP3    H155379   6.629   2.568   0.199 -1.9651  0.0058  1.8783
11296TIP3    H255380   6.675   2.611   0.337  1.9166  0.1847  0.6658
11297TIP3   OH255381   0.310   1.446   6.061 -0.2829  0.5063 -0.3291
11297TIP3    H155382   0.306   1.451   6.157  0.1890  0.0027 -0.2738
11297TIP3    H255383   0.249   1.375   6.039  2.4555 -2.1608 -0.0545
11298TIP3   OH255384   3.544   2.736  11.607 -0.1038 -0.1166 -0.1158
11298TIP3    H155385   3.496   2.660  11.574  0.4653 -0.9054  0.8084
11298TIP3    H255386   3.561   2.789  11.530 -0.8296 -0.7492 -0.7285
11299TIP3   OH255387   2.784   2.499  14.406  0.1739  0.0282 -0.6039
11299TIP3    H155388   2.733   2.541  14.475 -3.5292 -0.0497 -3.0304
11299TIP3    H255389   2.783   2.406  14.428 -1.4485 -0.0636 -0.9627
11300TIP3   OH255390   0.220   5.479   5.343 -0.1040  0.1581  0.2034
11300TIP3    H155391   0.298   5.475   5.287  0.6783  1.5979  1.1414
11300TIP3    H255392   0.173   5.557   5.314 -0.9605 -0.4170 -0.0145
11301TIP3   OH255393   4.083   4.681   3.427  0.2168 -0.9604  0.3944
11301TIP3    H155394   4.019   4.611   3.410 -0.9747 -0.0850  1.1570
11301TIP3    H255395   4.074   4.701   3.520  0.6211  0.1356  0.2184
11302TIP3   OH255396   0.615   1.061  17.090  0.0446  0.0817 -0.0358
11302TIP3    H155397   0.569   1.085  17.010 -0.3909  1.3007  0.5569
11302TIP3    H255398   0.667   0.985  17.066  3.4694  2.9393 -2.7174
11303TIP3   OH255399   4.585   4.608   2.573 -0.0658  0.5043 -0.3563
11303TIP3    H155400   4.628   4.649   2.648  1.0999  0.6047 -1.0606
11303TIP3    H255401   4.655   4.564   2.525 -1.1358 -1.4734 -0.1937
11304TIP3   OH255402   5.059   2.579  13.877 -0.2478 -0.1447 -0.1691
11304TIP3    H155403   5.080   2.529  13.799 -0.5215  1.2964 -1.2104
11304TIP3    H255404   5.105   2.534  13.948  1.0952 -0.7217 -1.3645
11305TIP3   OH255405   1.205   4.076  11.857 -0.0365 -0.4860 -0.1405
11305TIP3    H155406   1.129   4.133  11.843  0.8177  1.2729  1.8362
11305TIP3    H255407   1.169   3.998  11.899 -1.0133 -0.7735 -1.4326
11306TIP3   OH255408   5.897   3.245  12.246 -0.1726  0.4728  0.0186
11306TIP3    H155409   5.839   3.169  12.250 -1.9838  1.7762 -0.1994
11306TIP3    H255410   5.838   3.320  12.232  1.6802  1.7133 -1.7625
11307TIP3   OH255411   5.312   5.952  15.849  0.2267 -0.1149 -0.1499
11307TIP3    H155412   5.353   5.972  15.934  0.9150  1.9138 -0.9082
11307TIP3    H255413   5.236   6.009  15.845  1.6464  1.8073 -1.9373
11308TIP3   OH255414   4.692   6.603  11.628  0.6047 -0.1999  0.1157
11308TIP3    H155415   4.597   6.604  11.625  0.5564  0.9448  1.0849
11308TIP3    H255416   4.714   6.534  11.690  0.4200 -0.6255 -0.2888
11309TIP3   OH255417   5.797   4.496   5.960  0.5175 -0.3069  0.1845
11309TIP3    H155418   5.808   4.523   6.051  0.1336  2.3456 -0.4745
11309TIP3    H255419   5.860   4.425   5.949  1.8576  0.4846  2.0620
11310TIP3   OH255420   0.562   0.522   5.556 -0.3580 -0.3127 -0.2479
11310TIP3    H155421   0.608   0.483   5.630 -0.9595  1.1628  0.9618
11310TIP3    H255422   0.558   0.615   5.577 -0.7768  0.1110 -2.0325
11311TIP3   OH255423   3.893   4.588  13.059  0.7256 -0.0030  0.0543
11311TIP3    H155424   3.947   4.523  13.105 -0.0247 -1.4964 -1.0989
11311TIP3    H255425   3.895   4.560  12.968  0.5847  1.7795 -0.5316
11312TIP3   OH255426   1.550   3.514   6.748 -0.0691  0.0601 -0.0420
11312TIP3    H155427   1.569   3.598   6.788  1.4918 -0.3470  0.1174
11312TIP3    H255428   1.596   3.515   6.664 -2.0549  0.3003 -1.2077
11313TIP3   OH255429   6.073   0.994   1.170  0.0765 -0.1693 -0.6621
11313TIP3    H155430   6.025   0.945   1.236 -0.6985  0.5323 -0.6961
11313TIP3    H255431   6.159   0.951   1.167  1.3217  1.6100  3.0477
11314TIP3   OH255432   5.538   0.724   2.637  0.7520  0.5384 -0.4144
11314TIP3    H155433   5.620   0.676   2.624  1.3676  1.0749  1.1462
11314TIP3    H255434   5.539   0.792   2.570  0.4789 -0.7941 -1.8382
11315TIP3   OH255435   1.905   5.717   5.688 -0.2634  0.8453 -0.1347
11315TIP3    H155436   1.919   5.787   5.624 -0.2229  0.3883 -0.6215
11315TIP3    H255437   1.975   5.654   5.672 -0.8988  0.1891 -0.3691
11316TIP3   OH255438   5.331   1.754  17.283 -0.2607 -0.0257 -0.4082
11316TIP3    H155439   5.340   1.796  17.369  1.5597  0.7430 -0.9364
11316TIP3    H255440   5.264   1.687  17.297 -0.6073  0.6235  1.3915
11317TIP3   OH255441   0.750   0.422   1.541  0.5123 -0.2186  0.3031
11317TIP3    H155442   0.717   0.504   1.578 -0.5147  0.6084 -2.2508
11317TIP3    H255443   0.811   0.389   1.607  0.6019  2.3445  1.6164
11318TIP3   OH255444   5.725   4.508   2.913  0.4801 -0.3091  0.0202
11318TIP3    H155445   5.818   4.508   2.888  0.4646  0.0103 -0.0438
11318TIP3    H255446   5.688   4.432   2.868  1.1482 -1.6960  1.7225
11319TIP3   OH255447   1.549   2.391  11.304 -0.1762 -0.1954  0.3918
11319TIP3    H155448   1.489   2.403  11.377 -1.0089 -3.0600  0.3173
11319TIP3    H255449   1.627   2.353  11.343 -0.4723 -1.3662 -0.1087
11320TIP3   OH255450   3.763   3.417  10.797  0.7176 -0.0240 -0.4333
11320TIP3    H155451   3.722   3.461  10.723  1.1811  1.7543  0.3226
11320TIP3    H255452   3.842   3.468  10.815 -0.1599  0.5409  2.2360
11321TIP3   OH255453   3.719   6.816   2.764  0.1998 -0.3164  0.2641
11321TIP3    H155454   3.658   6.878   2.724 -1.0415 -1.4055  0.3839
11321TIP3    H255455   3.771   6.868   2.825 -2.8946  0.1762  2.7515
11322TIP3   OH255456   0.319   1.638   3.439  0.1125 -0.0174  0.2188
11322TIP3    H155457   0.261   1.652   3.365  1.5165  2.4052 -0.5246
11322TIP3    H255458   0.275   1.681   3.513  0.4753  0.9593 -0.1210
11323TIP3   OH255459   4.987   4.922  14.075 -0.3463 -0.2741 -0.0509
11323TIP3    H155460   5.031   4.977  14.140 -1.1045  0.2038  0.0814
11323TIP3    H255461   4.912   4.975  14.046 -0.3520 -0.7175 -0.8857
11324TIP3   OH255462   3.958   5.062   1.865  0.1531 -0.5985 -0.6269
11324TIP3    H155463   3.960   5.085   1.772  0.6774  1.0379 -0.2394
11324TIP3    H255464   3.966   4.966   1.865  0.6916 -0.6006 -2.2534
11325TIP3   OH255465   0.594   4.989   4.156  0.7034 -0.3841 -0.3239
11325TIP3    H155466   0.611   4.916   4.215 -1.2813 -1.5231 -1.0319
11325TIP3    H255467   0.570   4.948   4.073 -1.5606  0.9868 -0.4389
11326TIP3   OH255468   2.210   1.857   0.411 -0.1481  0.1630  0.0361
11326TIP3    H155469   2.264   1.842   0.489 -0.7241  1.0956  0.6245
11326TIP3    H255470   2.122   1.832   0.438 -0.3591  0.5371 -0.3051
11327TIP3   OH255471   5.016   0.295   1.770 -0.2828  0.1837  0.4079
11327TIP3    H155472   4.992   0.378   1.811 -1.7592 -0.3905  0.8002
11327TIP3    H255473   5.022   0.315   1.676  1.3407  1.1249  0.6767
11328TIP3   OH255474   4.886   5.712  11.561 -0.1973 -0.4498 -0.2728
11328TIP3    H155475   4.934   5.774  11.616  0.3117  0.0547 -1.2471
11328TIP3    H255476   4.841   5.768  11.497  0.2824 -1.0734 -1.1814
11329TIP3   OH255477   5.524   2.349   2.038 -0.2540  0.8700 -0.3574
11329TIP3    H155478   5.440   2.303   2.048 -1.0454  2.2854 -0.2910
11329TIP3    H255479   5.531   2.366   1.945  0.7346 -0.5915 -0.5896
11330TIP3   OH255480   1.765   0.162  12.032 -0.3279  0.3083 -0.0890
11330TIP3    H155481   1.806   0.112  11.962 -0.3419 -0.8073  0.6624
11330TIP3    H255482   1.697   0.213  11.989 -0.4990 -0.5474 -0.8593
11331TIP3   OH255483   6.597   2.879  14.520 -0.4894  0.6733 -0.0037
11331TIP3    H155484   6.553   2.875  14.606 -0.1538  2.2455  0.2679
11331TIP3    H255485   6.539   2.933  14.466 -0.9035 -0.6458 -0.9165
11332TIP3   OH255486   0.035   3.605   3.528  0.2841  0.1361  0.1457
11332TIP3    H155487  -0.034   3.551   3.491  1.4379 -0.6658 -0.9112
11332TIP3    H255488   0.034   3.685   3.476 -0.5729  0.6248  0.8779
11333TIP3   OH255489   5.140   3.018  12.894 -0.0980 -0.4829  0.7471
11333TIP3    H155490   5.055   2.984  12.865  0.6045 -1.4092 -0.2985
11333TIP3    H255491   5.140   3.005  12.989 -0.4425 -2.1153  0.5461
11334TIP3   OH255492   6.045   5.999  14.178 -0.1237 -0.6394  0.1396
11334TIP3    H155493   6.006   5.995  14.265  0.3136  0.8405  0.4242
11334TIP3    H255494   5.973   5.980  14.119 -0.9390  0.5035  0.7326
11335TIP3   OH255495   2.999   0.746  13.537 -0.2829 -0.3161  0.0873
11335TIP3    H155496   2.969   0.830  13.574 -1.1792 -1.1839  1.4541
11335TIP3    H255497   2.928   0.685  13.558 -0.7104 -0.9842 -2.8849
11336TIP3   OH255498   5.985   3.466  12.854  0.2588  0.2221  0.2063
11336TIP3    H155499   6.016   3.404  12.920  0.5326  0.5377  0.3817
11336TIP3    H255500   5.904   3.428  12.820 -0.4621  0.5670  1.4763
11337TIP3   OH255501   6.519   0.079  12.398  0.2666 -0.3909  0.0639
11337TIP3    H155502   6.464   0.111  12.327  0.8290  3.1232  1.0086
11337TIP3    H255503   6.595   0.041  12.355 -0.0186  0.4548 -1.2326
11338TIP3   OH255504   3.460   1.084   4.735 -0.1438 -0.1437 -0.5514
11338TIP3    H155505   3.492   1.012   4.791  0.1496  1.4331  1.4051
11338TIP3    H255506   3.373   1.056   4.707  0.7263 -2.1139 -1.4845
11339TIP3   OH255507   2.068   6.150  12.027  0.7914  0.2521 -0.3777
11339TIP3    H155508   2.082   6.056  12.020  1.3366  0.1897  1.1402
11339TIP3    H255509   2.157   6.187  12.031  0.7477  1.1836 -3.9609
11340TIP3   OH255510   0.046   0.690  11.484 -0.1291  0.5568 -0.5362
11340TIP3    H155511   0.100   0.686  11.562 -0.5968  1.2582 -0.1646
11340TIP3    H255512   0.108   0.690  11.411  0.3586  1.0216 -0.1254
11341TIP3   OH255513   6.055   5.933  16.137  0.1074  0.1951 -0.2886
11341TIP3    H155514   6.092   5.880  16.066 -1.3764  1.5551 -2.2134
11341TIP3    H255515   6.117   6.004  16.148  1.3283 -1.0412  1.2239
11342TIP3   OH255516   5.032   4.901   2.123 -0.2595  0.0207 -0.4649
11342TIP3    H155517   5.068   4.872   2.039  0.0790  0.0625 -0.3334
11342TIP3    H255518   5.096   4.872   2.188 -0.0395  0.8360 -0.3071
11343TIP3   OH255519   6.687   2.732   3.162 -0.0939 -0.3007  0.2789
11343TIP3    H155520   6.661   2.773   3.079  0.4114 -0.1793  0.1762
11343TIP3    H255521   6.698   2.639   3.141  0.6537 -0.1733  0.0488
11344TIP3   OH255522   5.879   0.929   0.974  0.6315  0.0386 -0.0401
11344TIP3    H155523   5.939   0.960   0.906  1.7411 -1.0899  0.3776
11344TIP3    H255524   5.916   0.962   1.056  0.2513 -0.0215  0.1590
11345TIP3   OH255525   5.636   0.010  16.117  0.2145  0.1295  0.1934
11345TIP3    H155526   5.630   0.084  16.177  0.1420 -0.5060  0.9911
11345TIP3    H255527   5.584  -0.059  16.159  0.3704 -0.4078 -0.4753
11346TIP3   OH255528   6.009   4.117  17.244  0.2949  0.3971 -0.2477
11346TIP3    H155529   6.065   4.191  17.268 -0.6741  0.7543  1.0178
11346TIP3    H255530   5.982   4.079  17.327 -1.3032  0.2189 -0.8115
11347TIP3   OH255531   4.409   2.955  13.937  0.2680 -0.9041 -0.1948
11347TIP3    H155532   4.453   2.870  13.939  1.0543 -0.5142  2.3396
11347TIP3    H255533   4.476   3.017  13.911  0.9854 -0.5050  2.3308
11348TIP3   OH255534   4.090   4.424   1.818  0.2253 -0.0044 -0.5771
11348TIP3    H155535   4.177   4.457   1.796  1.1732 -1.9954 -0.1104
11348TIP3    H255536   4.105   4.365   1.892 -1.1393 -2.0876 -1.8340
11349TIP3   OH255537   0.388   2.719  15.475 -0.2014 -0.1000  0.2056
11349TIP3    H155538   0.364   2.627  15.488  0.9114 -0.4505 -0.1099
11349TIP3    H255539   0.461   2.716  15.412  0.9982  0.8677  1.5038
11350TIP3   OH255540   0.228   1.696  13.060 -0.0778  0.2675 -0.6506
11350TIP3    H155541   0.180   1.763  13.011 -2.0623  1.3318  2.4434
11350TIP3    H255542   0.280   1.745  13.123 -1.2317 -1.0004  1.3977
11351TIP3   OH255543   1.871   1.158   4.982 -0.1162  0.1896  0.0276
11351TIP3    H155544   1.821   1.239   4.966 -1.3719 -0.3435  1.0086
11351TIP3    H255545   1.963   1.185   4.979 -0.4258  1.1607 -2.1286
11352TIP3   OH255546   1.502   2.811   4.679 -0.2659  0.1763  0.1279
11352TIP3    H155547   1.438   2.863   4.726 -0.8034 -0.7679  0.4792
11352TIP3    H255548   1.453   2.768   4.609  0.4895  1.4049 -1.1970
11353TIP3   OH255549   6.808   5.180  12.252  0.2690  0.2231 -0.1518
11353TIP3    H155550   6.771   5.149  12.335  0.0392 -0.1107 -0.3786
11353TIP3    H255551   6.895   5.213  12.275  0.4300 -0.3954  0.1250
11354TIP3   OH255552   2.412   5.102   2.918  0.6813  0.1228  0.1722
11354TIP3    H155553   2.475   5.129   2.986 -0.5809 -0.9766  1.8700
11354TIP3    H255554   2.421   5.007   2.914  1.8034  0.2694 -2.3808
11355TIP3   OH255555   1.118   6.233   5.071 -0.8404  0.4377  0.6050
11355TIP3    H155556   1.040   6.193   5.031  0.8498 -3.0153  0.4302
11355TIP3    H255557   1.106   6.220   5.165 -0.4798 -0.0760  0.5795
11356TIP3   OH255558   6.322   2.562  13.588 -0.1015  0.5323 -0.4977
11356TIP3    H155559   6.281   2.478  13.610  0.5987  0.5995  1.2069
11356TIP3    H255560   6.256   2.607  13.536 -0.6672 -0.8924 -1.0676
11357TIP3   OH255561   2.371   4.067   0.270  0.5573 -0.3314  0.2025
11357TIP3    H155562   2.366   3.976   0.301 -0.6082  0.1422  1.5432
11357TIP3    H255563   2.295   4.077   0.213  0.9510 -0.3174 -0.3259
11358TIP3   OH255564   0.068   6.797   4.196  0.0293 -0.2138 -0.0647
11358TIP3    H155565   0.029   6.766   4.115  0.1552  1.0503 -0.6382
11358TIP3    H255566  -0.003   6.796   4.260 -0.3942  0.0300 -0.5340
11359TIP3   OH255567   1.576   0.736   4.467  0.1431  0.0003 -0.6705
11359TIP3    H155568   1.533   0.771   4.389  0.4014  1.8715 -0.0328
11359TIP3    H255569   1.565   0.641   4.460 -0.5588  0.1688 -2.5443
11360TIP3   OH255570   4.323   4.662  14.286  0.1550 -0.5748  0.2196
11360TIP3    H155571   4.347   4.752  14.264  0.9813 -0.4204  1.6098
11360TIP3    H255572   4.231   4.667  14.310  0.0391 -0.2186 -0.2815
11361TIP3   OH255573   6.794   5.181   4.409  1.6094  0.0515 -0.1098
11361TIP3    H155574   6.836   5.172   4.324  1.5790  0.3242 -0.1539
11361TIP3    H255575   6.764   5.092   4.430  0.0896  0.2566 -1.1817
11362TIP3   OH255576   4.575   5.536   0.734 -0.2983  0.7606  0.2075
11362TIP3    H155577   4.596   5.450   0.770 -0.5010  0.8051  0.4309
11362TIP3    H255578   4.553   5.518   0.642 -0.6219  0.5305  0.3251
11363TIP3   OH255579   5.946   4.488  13.509 -0.2000  0.0069 -0.1592
11363TIP3    H155580   5.969   4.430  13.582  0.4365  0.3325 -0.0941
11363TIP3    H255581   5.865   4.531  13.537 -1.0783 -1.3641 -0.5035
11364TIP3   OH255582   4.692   5.008   5.835  0.1043  0.0218 -0.3922
11364TIP3    H155583   4.616   5.027   5.781 -0.5570  3.2627  1.3693
11364TIP3    H255584   4.760   5.067   5.802  0.4687  0.2158  0.6428
11365TIP3   OH255585   1.480   4.132   0.059  0.7204 -0.2634  0.2069
11365TIP3    H155586   1.442   4.054   0.100 -0.5998  0.5486  0.5666
11365TIP3    H255587   1.481   4.198   0.128 -1.2165  1.0156 -0.8930
11366TIP3   OH255588   6.285   3.604  13.126 -0.0185 -0.1311  0.2430
11366TIP3    H155589   6.254   3.613  13.216 -2.5474  0.7956 -0.6236
11366TIP3    H255590   6.343   3.679  13.113  1.2782 -0.9043  1.4002
11367TIP3   OH255591   0.872   5.132   0.388  0.8218 -0.1806  0.4549
11367TIP3    H155592   0.830   5.124   0.473 -1.7087  0.0815 -0.7007
11367TIP3    H255593   0.950   5.186   0.404 -0.3297  0.9980  2.3714
11368TIP3   OH255594   6.655   5.230  16.814 -0.3710 -0.1143 -0.2695
11368TIP3    H155595   6.722   5.251  16.749  1.5511 -0.0286  1.6360
11368TIP3    H255596   6.574   5.219  16.762  0.1184  3.8704 -2.2718
11369TIP3   OH255597   1.601   6.747   1.532  0.3831 -0.0704 -0.4509
11369TIP3    H155598   1.614   6.789   1.447 -0.4122  0.6593 -0.2218
11369TIP3    H255599   1.682   6.763   1.580  1.1875 -1.2290 -1.3657
11370TIP3   OH255600   0.105   2.766   0.677  0.4921 -0.1217 -0.2841
11370TIP3    H155601   0.103   2.842   0.735 -1.3172  0.5904 -1.1994
11370TIP3    H255602   0.168   2.707   0.717  1.7604  1.7292  0.6085
11371TIP3   OH255603   1.665   0.437   0.750 -0.0417  0.0023 -0.1006
11371TIP3    H155604   1.588   0.475   0.792 -0.1403 -0.9017  0.5690
11371TIP3    H255605   1.631   0.377   0.684  0.0593 -0.6423  0.4140
11372TIP3   OH255606   0.383   3.593  16.605  0.2294 -0.3059  0.5025
11372TIP3    H155607   0.432   3.583  16.523  0.2648  0.0751  0.4743
11372TIP3    H255608   0.321   3.664  16.587 -0.0471 -0.5000  0.6742
11373TIP3   OH255609   0.586   4.266   3.618 -0.5358  0.1625 -0.2419
11373TIP3    H155610   0.510   4.322   3.634 -1.0314 -0.2270 -1.1270
11373TIP3    H255611   0.630   4.308   3.544 -0.1055  0.1722  0.0190
11374TIP3   OH255612   3.226   4.662   1.357  0.3286 -0.5083 -0.1963
11374TIP3    H155613   3.181   4.604   1.295  1.2551  0.1896 -1.5785
11374TIP3    H255614   3.299   4.609   1.389 -0.7659 -1.2506  1.1912
11375TIP3   OH255615   5.096   1.534   3.704 -0.6263 -0.0808  0.6940
11375TIP3    H155616   5.055   1.620   3.706 -1.6665 -0.4753 -1.1650
11375TIP3    H255617   5.122   1.517   3.795  0.8582  2.7340  0.8984
11376TIP3   OH255618   6.471   3.736  12.151 -0.3067  0.1486  0.1945
11376TIP3    H155619   6.533   3.772  12.215 -0.7615  0.3083  0.5554
11376TIP3    H255620   6.433   3.813  12.109 -0.7817  0.0720  0.4815
11377TIP3   OH255621   1.783   3.664   4.166 -0.6182 -0.0719 -0.3120
11377TIP3    H155622   1.763   3.570   4.172 -1.2996  0.1029  0.5065
11377TIP3    H255623   1.855   3.677   4.228  0.7776 -0.3673 -1.8308
11378TIP3   OH255624   6.140   5.629  17.116  0.5448 -0.1629 -0.3627
11378TIP3    H155625   6.152   5.634  17.021  0.5305 -1.4520 -0.4483
11378TIP3    H255626   6.165   5.539  17.139  1.4437  0.4007  0.9955
11379TIP3   OH255627   3.539   0.131   2.371 -0.4406  0.1973 -0.2428
11379TIP3    H155628   3.582   0.060   2.324  0.0121  1.2580 -1.4899
11379TIP3    H255629   3.498   0.184   2.303 -1.5510  0.6444  0.7299
11380TIP3   OH255630   0.440   2.690   4.427  0.3501  0.7673  0.1343
11380TIP3    H155631   0.388   2.702   4.507  0.7339 -1.3333  0.7452
11380TIP3    H255632   0.527   2.722   4.450  0.4534  0.1913  0.5785
11381TIP3   OH255633   1.043   1.072   2.840 -0.3985  0.1663 -0.1215
11381TIP3    H155634   1.010   1.146   2.891 -1.5243 -0.7961  0.5874
11381TIP3    H255635   1.016   0.995   2.889  0.8280 -0.7330 -0.8064
11382TIP3   OH255636   1.438   0.545  14.833 -0.3240 -0.3813 -0.4364
11382TIP3    H155637   1.461   0.510  14.919 -0.5452  2.9314  1.1069
11382TIP3    H255638   1.346   0.570  14.841 -0.4185 -0.2450 -1.7452
11383TIP3   OH255639   5.743   0.107  13.731 -0.5641  0.1887  0.3537
11383TIP3    H155640   5.783   0.186  13.766 -0.1926 -0.0009  0.3550
11383TIP3    H255641   5.650   0.116  13.753 -0.1600 -0.5670  2.6052
11384TIP3   OH255642   5.322   2.817   1.351 -0.0702 -0.2055 -0.0124
11384TIP3    H155643   5.299   2.854   1.266  2.4048 -3.1502 -2.1878
11384TIP3    H255644   5.410   2.849   1.369  0.7162 -2.0833 -0.2384
11385TIP3   OH255645   2.508   0.722   4.389 -0.0902 -0.1708  0.6440
11385TIP3    H155646   2.499   0.637   4.434 -1.3088 -0.7614 -0.6408
11385TIP3    H255647   2.460   0.783   4.445  1.2431 -0.1867  1.8563
11386TIP3   OH255648   5.998   3.505   6.222 -0.1937  0.7716  0.1152
11386TIP3    H155649   5.993   3.576   6.286 -0.3614 -1.3545  2.6054
11386TIP3    H255650   6.064   3.445   6.258  0.9770  0.2569 -2.6131
11387TIP3   OH255651   5.214   4.419   2.543 -0.3519 -0.8161 -0.3520
11387TIP3    H155652   5.239   4.498   2.496  2.1492 -1.4668 -0.2589
11387TIP3    H255653   5.132   4.391   2.502 -0.0599  0.5433 -1.9407
11388TIP3   OH255654   0.008   5.039  14.817 -0.4914  0.4141  0.0314
11388TIP3    H155655  -0.030   5.006  14.736  1.3544  1.1338 -1.2002
11388TIP3    H255656   0.004   5.134  14.809 -0.2303  0.4924  0.7546
11389TIP3   OH255657   3.616   0.920   2.819  0.4306  0.2383 -0.4387
11389TIP3    H155658   3.584   0.942   2.906  0.3045 -1.8435  0.1062
11389TIP3    H255659   3.545   0.868   2.780  0.5383  1.0184 -1.7433
11390TIP3   OH255660   5.735   2.079   4.415  0.6152 -0.0422  0.1486
11390TIP3    H155661   5.824   2.115   4.406  0.4459  0.1558 -0.9095
11390TIP3    H255662   5.727   2.059   4.508  1.9943 -0.6459  0.1648
11391TIP3   OH255663   2.041   5.599  13.320  0.1181 -0.0038  0.3020
11391TIP3    H155664   2.128   5.609  13.280 -0.2771  1.0137 -0.3249
11391TIP3    H255665   1.980   5.630  13.254 -0.7769 -1.0570  0.5969
11392TIP3   OH255666   0.458   4.599   1.556  0.1488  0.2868 -0.3811
11392TIP3    H155667   0.375   4.556   1.535  0.3392  0.6932 -2.0922
11392TIP3    H255668   0.497   4.619   1.471  2.9048 -1.5419  0.2986
11393TIP3   OH255669   1.502   6.721  10.925  0.3231  0.2880 -0.2571
11393TIP3    H155670   1.514   6.628  10.905  0.3293  0.1487  0.3768
11393TIP3    H255671   1.479   6.761  10.841 -0.1649 -0.3703 -0.4460
11394TIP3   OH255672   5.777   2.032  14.843 -0.1818 -0.4882  0.2965
11394TIP3    H155673   5.858   2.080  14.864 -1.0238  0.4775  1.5387
11394TIP3    H255674   5.806   1.944  14.820  1.2677  0.0285  0.0614
11395TIP3   OH255675   5.070   6.734   2.671 -0.2897 -0.3664 -0.3066
11395TIP3    H155676   5.079   6.812   2.725  0.0696 -0.3286 -0.4174
11395TIP3    H255677   5.131   6.748   2.598  0.4726 -1.1566  0.1627
11396TIP3   OH255678   3.633   1.831  10.361 -0.3066  0.9496 -0.7268
11396TIP3    H155679   3.660   1.740  10.346  0.7256  1.2013 -0.4684
11396TIP3    H255680   3.710   1.873  10.399 -0.6956  2.0001 -1.0631
11397TIP3   OH255681   6.011   1.416   3.655 -0.0670  0.1976 -0.1825
11397TIP3    H155682   6.054   1.408   3.570  0.8154 -0.8588  0.3428
11397TIP3    H255683   6.080   1.450   3.713  0.4124 -2.3575  0.8820
11398TIP3   OH255684   5.863   4.633  11.428  0.5315 -0.4165 -0.7850
11398TIP3    H155685   5.900   4.628  11.516 -1.9255 -0.4484  0.3290
11398TIP3    H255686   5.780   4.680  11.440  1.5864  2.5107 -3.6179
11399TIP3   OH255687   0.823   0.822  10.803 -0.7493 -0.3340 -0.3170
11399TIP3    H155688   0.851   0.899  10.852 -1.4403 -1.1486  1.4517
11399TIP3    H255689   0.905   0.776  10.782 -0.4467 -0.0019  0.1311
11400TIP3   OH255690   3.046   4.183   0.725  0.0290  0.4365 -0.2078
11400TIP3    H155691   2.955   4.152   0.723  0.9535 -2.6639  0.2266
11400TIP3    H255692   3.040   4.272   0.760 -2.8976  0.7358 -1.1643
11401TIP3   OH255693   0.886   4.314   5.242 -0.1102 -0.0282  0.3377
11401TIP3    H155694   0.960   4.357   5.200  0.3434 -0.4197  0.7261
11401TIP3    H255695   0.902   4.325   5.336  0.1741 -1.3008  0.4487
11402TIP3   OH255696   1.357   5.482  12.593 -0.1007 -0.1268 -0.7161
11402TIP3    H155697   1.322   5.419  12.655  2.2373 -2.5015 -1.6433
11402TIP3    H255698   1.424   5.434  12.545 -1.0782  1.8184 -4.4308
11403TIP3   OH255699   4.917   6.499  15.082 -0.0437 -0.0274 -0.1817
11403TIP3    H155700   4.854   6.542  15.024 -2.3293 -1.2395  1.2190
11403TIP3    H255701   4.928   6.559  15.155  0.9937  0.4590 -0.7089
11404TIP3   OH255702   4.847   2.823  15.014 -0.5428  0.4530 -0.2005
11404TIP3    H155703   4.791   2.747  15.029  0.5852 -0.5045 -0.6706
11404TIP3    H255704   4.846   2.870  15.097 -0.0087 -0.9386  0.6350
11405TIP3   OH255705   1.954   2.107  15.841 -0.3046  0.3409  0.1088
11405TIP3    H155706   1.942   2.020  15.879  1.2743 -0.5581 -1.2854
11405TIP3    H255707   2.043   2.132  15.867 -0.4860  1.2221 -0.0882
11406TIP3   OH255708   5.289   6.815  12.217  0.5257  0.5476  0.5934
11406TIP3    H155709   5.244   6.733  12.197 -0.4533  0.7238  1.9573
11406TIP3    H255710   5.236   6.883  12.175  1.0828  0.5401 -0.1463
11407TIP3   OH255711   0.678   6.266  13.903  0.0006 -0.2320 -0.1764
11407TIP3    H155712   0.770   6.274  13.930  0.7152 -0.7191 -2.2434
11407TIP3    H255713   0.669   6.329  13.832 -1.2818 -0.2246 -0.0248
11408TIP3   OH255714   2.198   3.277  11.749 -0.1219 -0.9629 -0.1599
11408TIP3    H155715   2.172   3.271  11.841  0.0451 -1.7306 -0.1576
11408TIP3    H255716   2.273   3.337  11.748 -2.1711  1.7807 -0.2371
11409TIP3   OH255717   6.651   6.497   5.466 -0.4548 -0.4801 -0.1005
11409TIP3    H155718   6.681   6.521   5.378 -0.8267  0.5019  0.0231
11409TIP3    H255719   6.572   6.445   5.452 -0.2013 -0.7945 -0.3618
11410TIP3   OH255720   3.419   4.690   3.425  0.3582  0.6181  0.4531
11410TIP3    H155721   3.366   4.659   3.498 -0.6490  3.5810  1.1409
11410TIP3    H255722   3.377   4.772   3.399  1.2584  0.1718 -2.8666
11411TIP3   OH255723   5.483   1.313   1.567  0.2372  0.2287 -0.6796
11411TIP3    H155724   5.513   1.403   1.554 -0.0085  0.6339  1.1981
11411TIP3    H255725   5.560   1.268   1.604 -0.2370  0.2291  0.3438
11412TIP3   OH255726   0.975   5.309  11.906 -0.1405  0.4459  0.0370
11412TIP3    H155727   0.960   5.218  11.884 -0.8396 -0.0966  2.3960
11412TIP3    H255728   0.958   5.358  11.826 -0.3119 -1.4398 -1.1131
11413TIP3   OH255729   4.936   5.071  11.778 -0.4099  0.4096 -1.2114
11413TIP3    H155730   4.947   4.981  11.746  0.2945  0.7117 -1.8482
11413TIP3    H255731   5.002   5.121  11.730 -1.3135  1.4084 -1.4225
11414TIP3   OH255732   5.641   0.388   0.952  0.5308  0.3268  0.6243
11414TIP3    H155733   5.550   0.394   0.980  0.4954 -0.3066  0.6625
11414TIP3    H255734   5.671   0.479   0.947 -0.1973  0.5552  0.2859
11415TIP3   OH255735   3.358   3.253   3.085 -0.5242  0.5960  0.4909
11415TIP3    H155736   3.376   3.329   3.140  3.8961  0.8654 -0.9601
11415TIP3    H255737   3.346   3.290   2.997  0.6203 -0.2513 -0.0437
11416TIP3   OH255738   0.009   2.566   1.910  0.0317  0.4617 -0.9850
11416TIP3    H155739   0.061   2.585   1.988 -0.0191  3.4657 -1.5743
11416TIP3    H255740  -0.066   2.516   1.943  1.7358 -1.4045  0.3026
11417TIP3   OH255741   2.315   5.197  16.516  0.1818 -0.3361 -0.5551
11417TIP3    H155742   2.230   5.213  16.475 -1.2540 -1.6900  1.6731
11417TIP3    H255743   2.297   5.202  16.610  2.4873 -1.0198 -0.0283
11418TIP3   OH255744   0.737   4.434   3.431 -0.0661 -0.3600 -0.4010
11418TIP3    H155745   0.814   4.445   3.486  0.3240  0.2927 -1.0527
11418TIP3    H255746   0.682   4.509   3.453  0.2187  0.0600 -1.0856
11419TIP3   OH255747   0.787   1.812  16.791  0.0490  0.8009 -0.2602
11419TIP3    H155748   0.759   1.852  16.709  0.2665  0.4045 -0.5339
11419TIP3    H255749   0.800   1.719  16.768 -0.6373  0.5314  0.3991
11420TIP3   OH255750   3.065   3.628   0.616 -0.1677  0.7646 -0.5426
11420TIP3    H155751   2.995   3.661   0.559 -1.8252 -0.2345  0.8261
11420TIP3    H255752   3.101   3.554   0.567  0.2420  1.5182 -1.4296
11421TIP3   OH255753   4.713   3.246  12.939 -0.4159 -0.1230  0.1072
11421TIP3    H155754   4.718   3.285  13.027 -1.3893 -2.4979  1.2956
11421TIP3    H255755   4.805   3.240  12.912 -0.0879  0.5496  0.9823
11422TIP3   OH255756   1.838   6.247  16.262 -0.1582  0.1351  0.1178
11422TIP3    H155757   1.862   6.182  16.196  1.7439  1.4425 -0.5439
11422TIP3    H255758   1.878   6.214  16.343 -0.8445 -0.4583  0.2368
11423TIP3   OH255759   5.426   4.692  13.314 -0.2616  0.2564  0.1683
11423TIP3    H155760   5.375   4.635  13.372 -0.8019  0.8718  0.3116
11423TIP3    H255761   5.477   4.747  13.374  0.6024 -0.3672  0.0260
11424TIP3   OH255762   5.971   2.859  15.232 -0.0465  0.2087  0.1032
11424TIP3    H155763   6.041   2.830  15.291  0.1426 -2.5303 -1.2944
11424TIP3    H255764   5.926   2.779  15.207 -1.8134  1.5724 -1.3996
11425TIP3   OH255765   6.713   5.975  12.176 -0.1134  0.1959 -0.0927
11425TIP3    H155766   6.628   6.018  12.183 -0.0047  0.4876 -0.5015
11425TIP3    H255767   6.747   6.004  12.091 -0.3691 -1.2809 -0.7282
11426TIP3   OH255768   0.909   3.685   3.304 -0.4581  0.8638 -0.2240
11426TIP3    H155769   0.958   3.619   3.353  0.4474  0.7832 -1.1986
11426TIP3    H255770   0.891   3.754   3.369 -1.2206 -0.2068  0.7442
11427TIP3   OH255771   0.889   5.266  12.756 -0.1119 -0.8166  0.5043
11427TIP3    H155772   0.856   5.349  12.721  1.0465  0.3979  2.1449
11427TIP3    H255773   0.909   5.214  12.678  0.3430  0.9339 -0.6051
11428TIP3   OH255774   5.029   3.695  16.573  0.7389 -0.1696 -0.1722
11428TIP3    H155775   5.072   3.678  16.656 -0.0959  1.3828  0.6377
11428TIP3    H255776   5.065   3.779  16.544 -0.8782  0.6520  0.0190
11429TIP3   OH255777   2.415   6.256   2.208 -0.2078 -0.0260  0.5624
11429TIP3    H155778   2.320   6.270   2.209 -0.0742  1.0264  0.1820
11429TIP3    H255779   2.451   6.343   2.192  0.7926 -0.5953 -0.3480
11430TIP3   OH255780   6.677   6.778  11.022  0.5936 -0.8530  0.4143
11430TIP3    H155781   6.633   6.825  10.951  0.1221 -1.3826  0.3498
11430TIP3    H255782   6.758   6.827  11.036 -0.7598  1.1619  1.6695
11431TIP3   OH255783   1.228   6.621  16.219  0.2626  0.1709 -0.2561
11431TIP3    H155784   1.267   6.579  16.296  1.5880  1.9422  0.1129
11431TIP3    H255785   1.168   6.686  16.254 -1.6661 -1.2255 -0.8135
11432TIP3   OH255786   5.338   5.840   0.172  0.2307 -0.2729 -0.0323
11432TIP3    H155787   5.264   5.864   0.228 -0.3686 -1.2692 -0.3645
11432TIP3    H255788   5.302   5.842   0.083  1.4079  2.2369 -0.5518
11433TIP3   OH255789   0.067   6.057   2.834  0.1208 -0.7878 -0.2032
11433TIP3    H155790   0.036   6.143   2.808 -0.0213 -1.1502 -1.2749
11433TIP3    H255791   0.024   6.040   2.918 -1.3996 -0.6351 -0.9236
11434TIP3   OH255792   5.030   6.374  15.602  0.4201  0.1618  0.3536
11434TIP3    H155793   5.020   6.442  15.669  1.4692  1.6500 -0.9206
11434TIP3    H255794   4.953   6.318  15.612 -1.5452  2.6610  0.2403
11435TIP3   OH255795   1.844   2.071   4.096  0.0079  0.7479 -0.1562
11435TIP3    H155796   1.796   1.989   4.107 -0.8482  1.2565  0.0580
11435TIP3    H255797   1.789   2.123   4.037  0.7113  1.0387 -0.5713
11436TIP3   OH255798   1.777   2.133   4.887 -0.2654 -0.0287  0.4577
11436TIP3    H155799   1.813   2.093   4.966 -3.1437  1.3226  2.6423
11436TIP3    H255800   1.719   2.067   4.850  0.6390 -0.4526 -0.2327
11437TIP3   OH255801   2.403   6.809   3.822  0.2963 -0.0311  0.4123
11437TIP3    H155802   2.483   6.853   3.796  0.5097  0.1671  1.3619
11437TIP3    H255803   2.352   6.802   3.742  1.4017 -0.4663 -0.2772
11438TIP3   OH255804   4.442   4.495   0.677  0.1719 -0.4519 -0.1198
11438TIP3    H155805   4.461   4.427   0.613 -1.7907 -2.4208  1.2367
11438TIP3    H255806   4.372   4.547   0.637  1.7574  0.9403 -1.2093
11439TIP3   OH255807   4.173   1.579  16.918  0.1982 -0.0446  0.0451
11439TIP3    H155808   4.173   1.541  16.830 -0.7399 -1.1213  0.4816
11439TIP3    H255809   4.251   1.634  16.921 -0.2658  0.7645 -1.7750
11440TIP3   OH255810   4.122   1.365   5.689  0.1540 -0.5611  0.0100
11440TIP3    H155811   4.125   1.457   5.713  0.0334 -0.0837 -1.6921
11440TIP3    H255812   4.215   1.339   5.685  0.2225 -0.2674 -0.3724
11441TIP3   OH255813   2.432   0.830  13.377  0.2238 -0.2390 -0.0819
11441TIP3    H155814   2.483   0.851  13.298 -1.5752 -3.2328 -2.2506
11441TIP3    H255815   2.348   0.875  13.364 -0.0375 -0.6456  0.1895
11442TIP3   OH255816   4.160   5.117  10.894  0.1055  0.4384 -0.0494
11442TIP3    H155817   4.212   5.102  10.816 -0.7545 -0.3551 -0.4843
11442TIP3    H255818   4.070   5.097  10.868 -0.1433 -0.2918  1.2555
11443TIP3   OH255819   6.078   6.572   2.456 -0.7522  0.0004 -0.8126
11443TIP3    H155820   6.057   6.546   2.546 -1.6547  0.9311 -0.7306
11443TIP3    H255821   6.038   6.504   2.401  0.8747 -1.2653 -0.5180
11444TIP3   OH255822   2.112   5.659   0.549  0.6850  0.2740 -0.0653
11444TIP3    H155823   2.157   5.642   0.632  1.1661 -0.1222 -0.4050
11444TIP3    H255824   2.033   5.706   0.575  1.9747  2.3139  0.4251
11445TIP3   OH255825   4.448   0.847   2.529  0.5602  0.1526 -0.1247
11445TIP3    H155826   4.532   0.893   2.522  1.2597 -1.0675 -0.1592
11445TIP3    H255827   4.460   0.768   2.476 -0.0860 -0.7694  1.0465
11446TIP3   OH255828   1.675   1.243  12.678  0.2422 -0.6194 -0.2706
11446TIP3    H155829   1.688   1.151  12.657 -1.1705 -0.7061 -0.8731
11446TIP3    H255830   1.662   1.286  12.594 -1.7362 -0.3437  0.1087
11447TIP3   OH255831   2.064   2.108   6.231 -0.0948 -0.3315 -0.6605
11447TIP3    H155832   1.971   2.085   6.231 -0.2038  0.1027 -0.3292
11447TIP3    H255833   2.066   2.202   6.249  0.3350  0.0246 -2.4283
11448TIP3   OH255834   5.047   5.997  14.449  0.0280 -0.0027  0.4060
11448TIP3    H155835   4.981   6.067  14.452 -0.0646 -0.1094  1.0375
11448TIP3    H255836   5.056   5.977  14.356 -0.2926  0.5244  0.2558
11449TIP3   OH255837   6.198   2.511   3.933 -0.1209 -0.0251  0.0396
11449TIP3    H155838   6.136   2.500   4.005  1.4176 -2.1236  1.1651
11449TIP3    H255839   6.267   2.566   3.969 -0.2236  0.4301 -0.4514
11450TIP3   OH255840   2.802   6.487   2.222 -0.1292  0.1985 -0.1813
11450TIP3    H155841   2.755   6.413   2.260 -0.3594 -0.0533 -0.9475
11450TIP3    H255842   2.823   6.542   2.297 -1.0486 -0.0208  0.2545
11451TIP3   OH255843   6.755   0.441   4.207  0.2978 -0.3190  0.9898
11451TIP3    H155844   6.659   0.441   4.206  0.2966 -1.1275  0.9281
11451TIP3    H255845   6.778   0.489   4.287 -0.1263  1.5625  0.0571
11452TIP3   OH255846   4.302   1.073   4.133 -0.0794  0.1150 -0.2622
11452TIP3    H155847   4.341   0.986   4.131 -2.1796 -0.8947 -1.7204
11452TIP3    H255848   4.288   1.090   4.226 -1.7332 -2.1898  0.0082
11453TIP3   OH255849   0.307   5.945  16.595  0.5705 -0.1182 -0.0359
11453TIP3    H155850   0.287   5.883  16.665  1.7365  0.3838  0.7566
11453TIP3    H255851   0.310   5.891  16.516  0.2760 -0.8552  0.4402
11454TIP3   OH255852   0.919   2.668   2.702  0.0087  0.0280 -0.5327
11454TIP3    H155853   0.905   2.649   2.609 -2.7703 -0.1166 -0.1711
11454TIP3    H255854   0.876   2.752   2.716 -0.0207 -0.1689  0.6827
11455TIP3   OH255855   0.985   5.241  13.367 -0.4291  0.6445 -0.6123
11455TIP3    H155856   0.905   5.190  13.363 -0.6021  0.9016 -0.4151
11455TIP3    H255857   0.959   5.331  13.346  0.0240  0.4987 -1.9067
11456TIP3   OH255858   4.779   1.003  15.970  0.2997 -0.1380  0.3882
11456TIP3    H155859   4.747   0.934  15.911  2.1770 -0.5066 -0.2908
11456TIP3    H255860   4.789   0.959  16.054 -0.9786 -0.0016  0.6235
11457TIP3   OH255861   3.410   4.383  11.303 -0.5001 -0.7511  0.1643
11457TIP3    H155862   3.416   4.418  11.392  2.4374 -0.1699 -0.1740
11457TIP3    H255863   3.354   4.445  11.256  0.8954  1.0065  0.7237
11458TIP3   OH255864   3.959   6.784  13.718 -0.0241 -0.0269  0.4295
11458TIP3    H155865   3.950   6.862  13.664  0.0871  0.6252  1.3289
11458TIP3    H255866   4.051   6.784  13.744  0.7981 -2.1607 -2.0463
11459TIP3   OH255867   4.216   3.810  12.483 -0.8444 -0.1499 -0.6020
11459TIP3    H155868   4.183   3.889  12.525 -1.0640 -1.2895  1.5053
11459TIP3    H255869   4.152   3.790  12.415 -1.1555  1.0775 -0.6906
11460TIP3   OH255870   4.029   2.091  14.246  0.3026 -0.3615  0.8028
11460TIP3    H155871   3.963   2.159  14.232  0.2168 -0.2445  1.7415
11460TIP3    H255872   4.107   2.123  14.199 -0.7251 -1.2273 -1.6434
11461TIP3   OH255873   1.779   5.478   0.013  0.0181  0.5421  0.6973
11461TIP3    H155874   1.851   5.539   0.030 -1.6861  2.8977  0.0014
11461TIP3    H255875   1.709   5.508   0.072 -0.8574 -0.8249  0.3856
11462TIP3   OH255876   3.860   6.117   1.170  0.0915 -0.2755  0.3756
11462TIP3    H155877   3.868   6.201   1.126  2.9237 -0.4583  0.3764
11462TIP3    H255878   3.832   6.139   1.259 -1.5729  0.4061 -0.2697
11463TIP3   OH255879   0.487   1.036  16.435 -0.1575 -0.1824 -0.3842
11463TIP3    H155880   0.431   1.044  16.512  0.1287  0.2493 -0.2201
11463TIP3    H255881   0.502   1.126  16.406 -3.0619 -0.3752 -3.0217
11464TIP3   OH255882   3.235   2.582   5.938 -0.8289 -0.5064 -0.1639
11464TIP3    H155883   3.320   2.555   5.904  0.2373  1.0163  1.1444
11464TIP3    H255884   3.255   2.647   6.005 -2.9605 -1.0587  1.1242
11465TIP3   OH255885   0.538   1.247   3.962 -0.1143 -0.2861 -0.1266
11465TIP3    H155886   0.624   1.215   3.989  1.7249  2.2437 -2.5274
11465TIP3    H255887   0.551   1.279   3.873 -3.6164  0.1198 -0.6192
11466TIP3   OH255888   0.293   2.220   1.061  0.4795 -0.1078 -0.1994
11466TIP3    H155889   0.360   2.242   0.996  0.4158  0.6329 -0.0210
11466TIP3    H255890   0.343   2.190   1.137  0.5281 -2.1847 -0.9903
11467TIP3   OH255891   0.611   5.210  15.019  0.1807  0.1149  0.3253
11467TIP3    H155892   0.581   5.207  14.928 -3.4321  0.4277  1.3505
11467TIP3    H255893   0.642   5.299  15.032 -1.0570  0.6402 -0.1678
11468TIP3   OH255894   0.530   6.415   6.012 -0.2741  0.9565  0.0327
11468TIP3    H155895   0.547   6.351   6.081 -0.6847  1.1232  0.2958
11468TIP3    H255896   0.613   6.424   5.966 -0.7633 -1.4465 -1.4543
11469TIP3   OH255897   6.733   2.087   3.114 -0.2332  0.1667 -0.0339
11469TIP3    H155898   6.827   2.074   3.124 -0.0706  0.0122 -1.5318
11469TIP3    H255899   6.694   2.039   3.187  0.8407  0.0421  0.4696
11470TIP3   OH255900   3.816   3.364  15.372  0.2122 -0.4382  0.2617
11470TIP3    H155901   3.817   3.273  15.345  3.0651  0.2618 -2.6523
11470TIP3    H255902   3.906   3.383  15.399 -0.4868  1.3453  1.5915
11471TIP3   OH255903   2.064   1.343  15.809 -0.5273 -0.6124  0.1654
11471TIP3    H155904   2.110   1.259  15.814  0.3096 -0.1537  0.2367
11471TIP3    H255905   2.123   1.400  15.759 -0.7238  0.1766  0.8226
11472TIP3   OH255906   3.959   2.411  12.421  0.0327 -0.3255 -0.1195
11472TIP3    H155907   3.928   2.343  12.362  1.7081  2.1290 -4.2294
11472TIP3    H255908   4.054   2.401  12.421  0.2636  1.4478 -0.1957
11473TIP3   OH255909   6.464   1.885  11.363  0.1230 -0.1103 -0.1315
11473TIP3    H155910   6.395   1.839  11.316 -0.9602  0.8278  0.5108
11473TIP3    H255911   6.545   1.849  11.326 -0.6881 -0.7707 -1.3454
11474TIP3   OH255912   3.601   2.595   0.307  0.0589 -0.6670  0.0882
11474TIP3    H155913   3.631   2.678   0.344  3.0907 -0.6225 -2.1208
11474TIP3    H255914   3.563   2.618   0.222  0.9020 -1.5253 -0.5347
11475TIP3   OH255915   1.348   1.410  12.211  0.2000 -0.2502 -0.2671
11475TIP3    H155916   1.342   1.443  12.301 -0.8305 -0.7032 -0.1509
11475TIP3    H255917   1.413   1.466  12.169 -0.2703  0.8345  0.4008
11476TIP3   OH255918   5.010   5.494  15.676 -0.4622 -0.0669  0.3106
11476TIP3    H155919   4.972   5.482  15.589  3.9678 -0.0427 -1.9082
11476TIP3    H255920   5.041   5.407  15.701 -1.4049 -0.0100  1.7809
11477TIP3   OH255921   3.709   0.442   4.068 -0.3261  0.4248 -0.0709
11477TIP3    H155922   3.624   0.409   4.040  0.6706 -0.4077 -2.3959
11477TIP3    H255923   3.733   0.506   4.002  0.2189  1.7915  1.3920
11478TIP3   OH255924   6.609   2.325  11.918 -0.7573  0.0989  0.1196
11478TIP3    H155925   6.584   2.322  11.825 -0.6630 -1.6201  0.1195
11478TIP3    H255926   6.682   2.265  11.925 -0.2617  0.8006  1.1942
11479TIP3   OH255927   1.838   5.957   1.662 -0.1703 -0.3123 -0.8678
11479TIP3    H155928   1.793   5.873   1.671  1.9721 -1.4868 -0.5279
11479TIP3    H255929   1.790   6.017   1.720 -0.7178 -1.7453  0.2015
11480TIP3   OH255930   1.664   1.537   4.125  0.2642  0.0790 -0.2401
11480TIP3    H155931   1.594   1.475   4.106  0.2205  0.0940 -0.1321
11480TIP3    H255932   1.703   1.504   4.206 -0.9315  1.1881  0.8397
11481TIP3   OH255933   5.360   5.731   6.360 -0.0866  0.3315 -0.2044
11481TIP3    H155934   5.305   5.764   6.289  1.2771  1.2206 -0.8854
11481TIP3    H255935   5.350   5.636   6.356 -0.3708  0.3944 -1.3014
11482TIP3   OH255936   4.768   5.706   4.424 -0.4321 -0.0062 -0.1203
11482TIP3    H155937   4.752   5.680   4.514 -0.8757 -1.4029 -0.5771
11482TIP3    H255938   4.725   5.791   4.416 -0.3567  0.1502  0.9811
11483TIP3   OH255939   5.066   5.167  14.199 -0.1198  0.0448 -0.3712
11483TIP3    H155940   5.037   5.230  14.133 -1.9406  0.5680  0.8382
11483TIP3    H255941   5.025   5.197  14.280  2.2633 -0.4260  1.0812
11484TIP3   OH255942   6.420   5.477   4.408  0.4003 -0.4134 -0.7679
11484TIP3    H155943   6.469   5.517   4.336  1.5349  0.4087  0.3858
11484TIP3    H255944   6.349   5.539   4.426  1.5306  0.6339  0.3249
11485TIP3   OH255945   3.381   0.465  17.086 -0.7069 -0.0088 -0.0601
11485TIP3    H155946   3.390   0.558  17.066 -0.9571  0.3160  1.2423
11485TIP3    H255947   3.393   0.459  17.181 -1.0545 -1.2598 -0.0693
11486TIP3   OH255948   0.365   2.236   0.469 -0.3994 -0.1306  0.1423
11486TIP3    H155949   0.326   2.319   0.496  1.3656  0.1421  2.1023
11486TIP3    H255950   0.291   2.183   0.439 -2.0025  1.0222  1.8724
11487TIP3   OH255951   0.329   5.776   3.063  0.6296 -0.0689 -0.2481
11487TIP3    H155952   0.239   5.803   3.085  0.5976 -0.9622  0.8098
11487TIP3    H255953   0.346   5.817   2.978 -1.1871 -0.7821 -1.0147
11488TIP3   OH255954   2.323   4.415  15.930  0.1227  1.1132 -0.1468
11488TIP3    H155955   2.245   4.436  15.981 -0.2832  2.2764 -1.2024
11488TIP3    H255956   2.388   4.478  15.959  0.7436  0.0709  0.8139
11489TIP3   OH255957   1.162   6.629   1.907 -0.3165  0.8641 -0.3279
11489TIP3    H155958   1.111   6.578   1.970 -1.2033  2.3290  0.1842
11489TIP3    H255959   1.210   6.563   1.857 -0.7768 -0.4213  0.8496
11490TIP3   OH255960   2.007   3.494  11.733  0.0808 -0.2050 -0.2022
11490TIP3    H155961   1.918   3.475  11.764  0.5893 -0.2541  1.3264
11490TIP3    H255962   2.044   3.409  11.711  0.0339 -0.2738 -0.0149
11491TIP3   OH255963   4.250   5.746  11.806 -0.3443 -0.2294 -0.3347
11491TIP3    H155964   4.306   5.718  11.878  1.4834  0.5033 -1.3965
11491TIP3    H255965   4.266   5.840  11.797  0.6517 -0.5398 -2.5911
11492TIP3   OH255966   5.709   5.435   3.549  0.0820 -0.3972  0.2426
11492TIP3    H155967   5.665   5.352   3.532  0.8495 -0.7635  0.0081
11492TIP3    H255968   5.743   5.427   3.638  1.6144 -1.0089 -0.3800
11493TIP3   OH255969   5.315   1.548   5.622  0.2309  0.0506 -0.0571
11493TIP3    H155970   5.223   1.528   5.635  0.1881  0.4793  0.3114
11493TIP3    H255971   5.362   1.489   5.681  0.1323  0.6187  0.6057
11494TIP3   OH255972   6.272   2.330   2.220  0.2435  0.2373 -0.0579
11494TIP3    H155973   6.327   2.255   2.195  0.7649  1.3961 -2.7153
11494TIP3    H255974   6.329   2.383   2.276  0.6605 -0.2006 -0.0579
11495TIP3   OH255975   1.672   0.030   5.169 -0.1234 -0.3285  0.4811
11495TIP3    H155976   1.723   0.108   5.148  0.1577 -0.5495  0.3196
11495TIP3    H255977   1.597   0.034   5.109  0.0127 -0.3016  0.3089
11496TIP3   OH255978   3.029   2.729  12.717  0.5286 -0.0877 -0.1938
11496TIP3    H155979   3.042   2.823  12.727  0.1868  0.0411 -0.9170
11496TIP3    H255980   2.950   2.710  12.767  1.4540 -0.2706  1.2576
11497TIP3   OH255981   2.996   6.280  13.418 -0.0687 -0.1686 -0.4300
11497TIP3    H155982   3.014   6.318  13.504 -0.7935  1.1110 -0.8209
11497TIP3    H255983   2.972   6.189  13.437 -0.3195  0.1213  0.7263
11498TIP3   OH255984   5.654   2.231  14.072 -0.2924 -0.6641 -0.4342
11498TIP3    H155985   5.691   2.258  14.156  0.3631  1.3907 -1.3198
11498TIP3    H255986   5.561   2.255  14.079 -0.1205  0.0491 -0.4848
11499TIP3   OH255987   2.532   6.787   5.782 -0.7058 -0.0285  0.1948
11499TIP3    H155988   2.484   6.744   5.711 -0.5506  1.6115 -0.9751
11499TIP3    H255989   2.619   6.802   5.746  0.9700 -3.2854  2.4179
11500TIP3   OH255990   5.198   3.224   4.436  0.0539  0.0518  0.0588
11500TIP3    H155991   5.193   3.157   4.505 -0.5632 -0.0348 -0.0573
11500TIP3    H255992   5.221   3.305   4.482 -0.4806  0.0210  0.3930
11501TIP3   OH255993   0.578   5.098  14.511 -0.4256  0.1940 -0.5677
11501TIP3    H155994   0.654   5.136  14.467 -0.8675  0.9432 -0.7092
11501TIP3    H255995   0.503   5.128  14.459 -1.0395  1.8962  1.1858
11502TIP3   OH255996   1.140   3.849  11.983  0.7621 -0.5037  0.0190
11502TIP3    H155997   1.056   3.808  12.000  0.9959 -0.4644  1.4151
11502TIP3    H255998   1.203   3.794  12.029  1.1804  0.8811  1.1854
11503TIP3   OH255999   2.812   4.912  15.423 -0.0794  0.0265 -0.0564
11503TIP3    H156000   2.899   4.935  15.390 -0.0828  0.4078  0.1867
11503TIP3    H256001   2.761   4.892  15.345  0.7560 -2.1741 -0.1083
11504TIP3   OH256002   2.183   5.654   5.629  0.0904  0.2204 -0.4617
11504TIP3    H156003   2.242   5.630   5.701 -0.7273  0.3151  0.2478
11504TIP3    H256004   2.177   5.750   5.634 -0.8203  0.1454  0.0341
11505TIP3   OH256005   4.108   3.115   1.319  0.1097 -0.1452 -0.3797
11505TIP3    H156006   4.105   3.175   1.244  0.3702 -1.1147 -1.1773
11505TIP3    H256007   4.017   3.087   1.330  0.0682  0.0128 -0.3128
11506TIP3   OH256008   1.864   3.293  12.674  0.0973  0.1033 -0.2221
11506TIP3    H156009   1.894   3.356  12.608 -0.3913 -0.5793 -1.1353
11506TIP3    H256010   1.931   3.294  12.742 -0.7684  2.9063  0.7001
11507TIP3   OH256011   5.204   3.512  12.734 -0.2222  0.3025  0.4846
11507TIP3    H156012   5.210   3.599  12.773 -1.4008  1.0189 -0.7995
11507TIP3    H256013   5.285   3.467  12.759  1.3038  2.4318 -0.3740
11508TIP3   OH256014   3.792   0.623  15.653  0.0756 -0.2167  0.2072
11508TIP3    H156015   3.744   0.549  15.616  1.6483 -0.7880 -0.7665
11508TIP3    H256016   3.811   0.679  15.577  1.9398 -0.5878  0.3684
11509TIP3   OH256017   5.733   4.637   0.830 -0.7224  0.0296  0.0367
11509TIP3    H156018   5.690   4.613   0.913 -0.8293  1.5840  0.4543
11509TIP3    H256019   5.818   4.671   0.856 -0.6061  0.1785 -0.5262
11510TIP3   OH256020   4.152   1.008   2.903 -0.6464 -0.2622 -0.1480
11510TIP3    H156021   4.230   0.975   2.858  0.6617 -0.4274  2.0621
11510TIP3    H256022   4.082   0.951   2.874  0.8648 -2.7657  0.8063
11511TIP3   OH256023   1.472   4.186  15.974 -0.4350  0.4562 -0.1322
11511TIP3    H156024   1.505   4.110  16.022 -0.3089  2.1367  2.6687
11511TIP3    H256025   1.471   4.158  15.883  2.7000 -1.7972  0.3518
11512TIP3   OH256026   3.214   1.546   6.074 -0.5135  0.2541  0.1396
11512TIP3    H156027   3.225   1.618   6.012  1.3152  0.7648  0.9702
11512TIP3    H256028   3.133   1.566   6.120 -0.9416  0.8313 -0.8315
11513TIP3   OH256029   5.916   0.780  10.748  0.0022 -0.3863  0.0861
11513TIP3    H156030   5.955   0.865  10.770  0.9344 -0.5457 -0.8722
11513TIP3    H256031   5.989   0.726  10.720 -0.6893 -1.2600 -0.0913
11514TIP3   OH256032   2.179   3.041  13.529 -0.2613  0.0548  0.3991
11514TIP3    H156033   2.238   3.024  13.456  0.2161 -0.7169  0.9569
11514TIP3    H256034   2.131   3.120  13.503  1.4137  1.0574  0.1736
11515TIP3   OH256035   4.867   6.504  13.839 -0.2083 -0.4845 -0.1046
11515TIP3    H156036   4.930   6.531  13.906 -1.4147 -0.9794  1.2774
11515TIP3    H256037   4.880   6.409  13.831  0.1609 -0.3803 -0.8413
11516TIP3   OH256038   6.317   4.237   2.799  0.8830  0.1815  0.4020
11516TIP3    H156039   6.326   4.296   2.724  0.2639 -0.6755 -0.3799
11516TIP3    H256040   6.222   4.224   2.808  1.0269 -1.3778 -0.0314
11517TIP3   OH256041   2.941   0.907   0.363 -0.0934  0.1241  0.5251
11517TIP3    H156042   3.026   0.866   0.378 -0.5054 -1.5389 -1.1856
11517TIP3    H256043   2.951   0.951   0.278 -1.4738 -1.9839 -0.8505
11518TIP3   OH256044   1.445   3.443   1.792  0.1119 -0.0562 -0.5735
11518TIP3    H156045   1.363   3.467   1.836 -0.2247  0.9211 -1.6924
11518TIP3    H256046   1.431   3.466   1.700  0.8651 -1.8714 -1.1955
11519TIP3   OH256047   2.949   0.439  11.492  1.0354 -0.1895 -0.0344
11519TIP3    H156048   2.859   0.447  11.521  1.2197  0.8014  0.3007
11519TIP3    H256049   2.943   0.432  11.397  0.6852  2.0844 -0.2403
11520TIP3   OH256050   2.801   1.525   1.121 -0.0578 -0.0875  0.7058
11520TIP3    H156051   2.759   1.606   1.147 -1.0505 -0.2972 -0.1968
11520TIP3    H256052   2.870   1.551   1.060 -0.5922  0.0572  0.1593
11521TIP3   OH256053   3.684   4.841  14.048 -0.5318  0.2388  0.0625
11521TIP3    H156054   3.768   4.886  14.035  0.1240 -1.6589 -3.9375
11521TIP3    H256055   3.644   4.841  13.961 -3.6063 -1.0810  1.3292
11522TIP3   OH256056   5.354   3.319   1.723 -0.8298 -0.0839 -0.2020
11522TIP3    H156057   5.288   3.251   1.712  0.4200 -1.2764 -0.7459
11522TIP3    H256058   5.307   3.394   1.759 -2.2013 -1.3407  0.7146
11523TIP3   OH256059   2.646   2.373   6.210 -0.3644  0.0095  0.5557
11523TIP3    H156060   2.671   2.401   6.298 -0.0918 -1.8901  1.1302
11523TIP3    H256061   2.642   2.455   6.159  0.0129  1.0894  2.1763
11524TIP3   OH256062   6.162   5.263   0.676 -0.4517  0.3149 -0.1210
11524TIP3    H156063   6.093   5.235   0.736 -0.2556 -0.2191 -0.1431
11524TIP3    H256064   6.140   5.221   0.593 -0.3840  0.5609 -0.2639
11525TIP3   OH256065   2.179   5.653   4.829  0.2516  0.5855 -0.7298
11525TIP3    H156066   2.086   5.638   4.817  0.2400  0.1107 -0.1085
11525TIP3    H256067   2.187   5.747   4.846 -0.4216  0.2656  1.7849
11526TIP3   OH256068   1.028   2.343  14.009 -0.3256 -0.1905 -0.0599
11526TIP3    H156069   0.944   2.348  13.965  0.2860  0.3207 -1.2218
11526TIP3    H256070   1.053   2.434  14.024  0.4040 -0.2943 -0.5392
11527TIP3   OH256071   6.675   2.856  12.600 -0.3649 -0.1463  0.2510
11527TIP3    H156072   6.712   2.910  12.670  2.6157 -1.6939  0.0612
11527TIP3    H256073   6.660   2.917  12.528  1.8430  0.6718  0.4043
11528TIP3   OH256074   1.103   4.093   1.908  0.1628  0.4812 -0.1573
11528TIP3    H156075   1.152   4.120   1.985  1.3284  3.8905 -1.8840
11528TIP3    H256076   1.158   4.117   1.834 -0.6490 -3.1110 -2.1987
11529TIP3   OH256077   6.390   2.469  16.838 -0.0119  0.3464  0.2595
11529TIP3    H156078   6.418   2.436  16.753  2.0582 -0.2499  1.1061
11529TIP3    H256079   6.376   2.563  16.824 -0.8765  0.0564 -0.9795
11530TIP3   OH256080   2.119   6.044  15.489 -0.4444  0.9935 -0.2650
11530TIP3    H156081   2.046   6.105  15.484 -2.5529 -1.4735 -1.8687
11530TIP3    H256082   2.097   5.985  15.562  0.4237  0.7685 -0.1665
11531TIP3   OH256083   3.783   5.151  12.073  1.0354  0.3821 -0.1555
11531TIP3    H156084   3.859   5.181  12.022  1.6812  0.4714  0.8373
11531TIP3    H256085   3.750   5.075  12.024  0.4303  1.6122 -1.7597
11532TIP3   OH256086   6.720   6.647   4.012 -0.1826 -0.6862  0.1364
11532TIP3    H156087   6.652   6.625   4.077  0.0156  1.3725  1.1130
11532TIP3    H256088   6.685   6.723   3.965  1.2717  0.2007  0.4194
11533TIP3   OH256089   4.108   2.135  11.794 -0.0437  0.3450  0.0491
11533TIP3    H156090   4.141   2.090  11.717 -1.1901 -1.7241  0.6943
11533TIP3    H256091   4.185   2.178  11.832  1.1391 -1.1232 -0.5932
11534TIP3   OH256092   0.176   5.888   0.556  0.4975  0.1796 -0.7395
11534TIP3    H156093   0.236   5.947   0.602  0.7753  0.4166 -1.3829
11534TIP3    H256094   0.120   5.852   0.624  0.5465  0.9312 -0.2894
11535TIP3   OH256095   1.644   6.469   6.250  0.1446  0.0098  0.0006
11535TIP3    H156096   1.647   6.408   6.324  0.6139  0.3945  0.3011
11535TIP3    H256097   1.725   6.519   6.256  0.0670  0.2221 -0.6270
11536TIP3   OH256098   4.076   1.267   4.754  0.2142  0.1161 -0.6507
11536TIP3    H156099   4.007   1.333   4.770 -0.0768 -0.2130 -0.5277
11536TIP3    H256100   4.037   1.185   4.783  1.0634  0.0900  0.4708
11537TIP3   OH256101   0.897   0.951   5.741  0.1864  0.3442  0.0580
11537TIP3    H156102   0.957   0.978   5.810 -0.9909  1.2599  0.7678
11537TIP3    H256103   0.881   1.030   5.690 -1.0921  0.3518  0.4352
11538TIP3   OH256104   0.933   0.353   0.688 -0.2308 -0.1689 -0.1763
11538TIP3    H156105   0.994   0.390   0.750  0.9587  0.9154 -1.9164
11538TIP3    H256106   0.900   0.428   0.638  0.5547 -1.1653 -2.3072
11539TIP3   OH256107   0.511   6.127   1.803  0.2794 -0.4694  0.2110
11539TIP3    H156108   0.576   6.191   1.777 -0.1030 -0.2607 -0.2480
11539TIP3    H256109   0.449   6.177   1.858  0.1827 -0.5287  0.1564
11540TIP3   OH256110   4.234   5.498   6.257 -0.1023  0.3491 -0.0108
11540TIP3    H156111   4.208   5.588   6.276 -1.2683  0.2618 -1.0348
11540TIP3    H256112   4.291   5.473   6.330  0.4959  2.0095  0.1257
11541TIP3   OH256113   5.891   0.007  14.356 -0.3709  0.6179 -0.0759
11541TIP3    H156114   5.867  -0.085  14.365  1.3280  0.1378 -0.1375
11541TIP3    H256115   5.808   0.054  14.363 -1.2424 -0.8924  0.1905
11542TIP3   OH256116   6.418   4.852   5.968 -0.1903 -0.2659 -0.6014
11542TIP3    H156117   6.341   4.909   5.979 -0.7751 -1.3426  1.4426
11542TIP3    H256118   6.384   4.774   5.926  0.1033 -0.1431 -1.0732
11543TIP3   OH256119   5.183   3.941  15.617 -0.1207  0.8299 -0.5111
11543TIP3    H156120   5.261   3.987  15.648 -0.2194 -0.6778  2.2521
11543TIP3    H256121   5.110   3.991  15.653 -0.3147  0.3704 -0.2555
11544TIP3   OH256122   5.731   4.172  11.931 -0.4704  0.5378  0.6001
11544TIP3    H156123   5.768   4.197  11.846 -1.0145 -0.8533 -0.0672
11544TIP3    H256124   5.642   4.143  11.911 -0.0482 -1.4513  1.3813
11545TIP3   OH256125   1.968   1.775  15.200  0.2787  0.2492 -0.5544
11545TIP3    H156126   2.038   1.721  15.238 -0.3096 -0.7092 -0.8020
11545TIP3    H256127   1.974   1.858  15.247  0.2214 -0.5579  0.9464
11546TIP3   OH256128   2.274   2.290  12.832 -0.2348 -0.5997 -0.4476
11546TIP3    H156129   2.259   2.247  12.917  0.0984 -0.4902 -0.3339
11546TIP3    H256130   2.249   2.381  12.847 -1.3833 -0.8334 -0.8129
11547TIP3   OH256131   6.633   5.878   5.334  0.5695 -0.6743  0.0330
11547TIP3    H156132   6.622   5.910   5.423  1.1106  1.8108 -0.7149
11547TIP3    H256133   6.547   5.845   5.309 -0.0191  0.1831  0.8840
11548TIP3   OH256134   0.955   6.381   2.958  0.4312  0.2120 -0.5651
11548TIP3    H156135   0.995   6.318   3.018 -2.3533 -0.4237  0.7999
11548TIP3    H256136   1.000   6.367   2.875  1.5001 -1.9569  0.3051
11549TIP3   OH256137   3.847   3.470   2.235  0.7603 -0.6714 -0.1602
11549TIP3    H156138   3.859   3.376   2.246  0.3452 -0.7806 -0.5813
11549TIP3    H256139   3.916   3.495   2.173  1.0264 -0.6494  0.1405
11550TIP3   OH256140   5.834   0.817   3.377 -0.6274  0.4221 -0.2696
11550TIP3    H156141   5.898   0.765   3.329 -0.0300 -0.0957  1.0442
11550TIP3    H256142   5.749   0.789   3.342 -0.2908 -1.0419  0.0049
11551TIP3   OH256143   5.254   4.930  16.790 -0.3830  0.2119 -0.0237
11551TIP3    H156144   5.161   4.928  16.813 -0.7155  2.8651 -0.8522
11551TIP3    H256145   5.279   5.022  16.798  2.6745 -0.6095  1.9011
11552TIP3   OH256146   3.290   3.956   5.254 -0.1978  0.0428 -0.6926
11552TIP3    H156147   3.300   3.913   5.339  1.4148  0.7944 -0.4394
11552TIP3    H256148   3.221   3.908   5.210 -2.3300  0.6776  1.7001
11553TIP3   OH256149   6.624   5.732   4.405  0.0136  0.6599  0.2230
11553TIP3    H156150   6.579   5.719   4.488 -0.0781  0.0302  0.0802
11553TIP3    H256151   6.555   5.755   4.343  0.3077  3.2202  0.7308
11554TIP3   OH256152   0.653   6.440  14.834  0.2501  0.8066  0.4504
11554TIP3    H156153   0.567   6.399  14.842  0.6088 -0.4606 -1.3312
11554TIP3    H256154   0.635   6.531  14.812 -0.5777  1.3002  2.8618
11555TIP3   OH256155   3.746   5.657   0.835 -0.1072 -0.0808  0.4160
11555TIP3    H156156   3.839   5.633   0.827 -0.1215 -0.9943  2.3462
11555TIP3    H256157   3.729   5.654   0.929 -1.9248  0.8310  0.1527
11556TIP3   OH256158   6.379   6.506   3.715 -0.7596 -0.1747  0.0327
11556TIP3    H156159   6.332   6.588   3.701 -1.5083 -0.2898  1.7416
11556TIP3    H256160   6.465   6.532   3.749 -1.6150 -0.1060  2.2596
11557TIP3   OH256161   0.167   1.421  12.250 -0.2114 -0.1193  0.0172
11557TIP3    H156162   0.113   1.361  12.301 -0.4646  0.1893  0.1148
11557TIP3    H256163   0.148   1.508  12.287 -0.0868  0.0567 -0.3278
11558TIP3   OH256164   2.583   3.813   6.315  0.2430 -0.2396  0.3584
11558TIP3    H156165   2.517   3.750   6.343 -2.2475  1.0723 -2.1227
11558TIP3    H256166   2.541   3.898   6.323  1.7205  0.6832 -1.0346
11559TIP3   OH256167   5.478   4.358   1.210 -0.5500 -0.1704  0.0794
11559TIP3    H156168   5.415   4.417   1.252 -0.1233  0.3160  0.0449
11559TIP3    H256169   5.447   4.270   1.233 -0.0552  0.0629  1.8631
11560TIP3   OH256170   1.727   0.668   2.728  0.0897 -0.7547  0.5352
11560TIP3    H156171   1.729   0.613   2.807  1.4985 -1.9683 -0.3116
11560TIP3    H256172   1.774   0.618   2.662  1.9489  1.6752 -0.1554
11561TIP3   OH256173   5.917   2.397   3.248  0.4565  0.3186 -0.1601
11561TIP3    H156174   5.863   2.462   3.292  0.7207 -0.1616  0.9160
11561TIP3    H256175   5.911   2.319   3.304  0.4089 -0.4826 -1.2449
11562TIP3   OH256176   1.066   6.070   2.791  0.3961 -0.3633  0.0092
11562TIP3    H156177   1.071   6.165   2.780  2.8872 -0.3922  0.4025
11562TIP3    H256178   1.079   6.055   2.884 -1.5190 -1.0761  0.2153
11563TIP3   OH256179   6.173   4.812  12.817 -0.0361  0.2477  0.6281
11563TIP3    H156180   6.188   4.855  12.901 -0.0766 -1.5219  1.5676
11563TIP3    H256181   6.097   4.755  12.832  0.3336 -0.5446 -0.4282
11564TIP3   OH256182   3.847   1.002  10.424 -0.1021 -0.2829 -0.0884
11564TIP3    H156183   3.861   0.910  10.447  1.3059  0.4713  2.4321
11564TIP3    H256184   3.752   1.010  10.414 -0.2863 -1.9123  0.0879
11565TIP3   OH256185   6.485   4.924  13.296 -0.1488 -0.5835  0.0485
11565TIP3    H156186   6.547   4.903  13.366 -2.2229  1.6058  2.7620
11565TIP3    H256187   6.425   4.849  13.294 -0.3941 -0.4293  1.0629
11566TIP3   OH256188   5.659   5.088   4.277  0.0277  0.5561  0.1719
11566TIP3    H156189   5.664   5.015   4.215 -1.6220  1.5348 -1.2266
11566TIP3    H256190   5.747   5.125   4.279  0.2376  0.1719 -1.2130
11567TIP3   OH256191   0.446   2.202   2.275 -0.4165 -0.4915  0.1184
11567TIP3    H156192   0.525   2.226   2.324 -0.0819 -0.2302 -0.5422
11567TIP3    H256193   0.470   2.120   2.232 -0.7215 -0.7367  0.4141
11568TIP3   OH256194   1.185   4.201   3.864  0.0515  0.9876 -0.6732
11568TIP3    H156195   1.273   4.197   3.827  0.5045  1.0319  0.3525
11568TIP3    H256196   1.192   4.266   3.934 -0.7222  0.7830 -0.3972
11569TIP3   OH256197   6.216   5.018   1.269 -0.3567  0.6259  0.4654
11569TIP3    H156198   6.307   5.018   1.300  0.3043  0.0184 -1.3579
11569TIP3    H256199   6.218   5.070   1.189 -1.6827  0.8227  0.5506
11570TIP3   OH256200   6.487   0.418   4.207 -0.0609 -0.4948  0.3934
11570TIP3    H156201   6.399   0.408   4.243  0.4588  0.1225  1.9505
11570TIP3    H256202   6.473   0.445   4.117 -1.4512 -1.2688  0.3449
11571TIP3   OH256203   1.811   2.795  11.593  0.2897 -0.1035  0.2720
11571TIP3    H156204   1.735   2.754  11.551 -0.1142  0.0454  0.8441
11571TIP3    H256205   1.792   2.889  11.589  1.9881  0.2385 -2.5658
11572TIP3   OH256206   0.752   0.620  12.983  0.1611 -0.4582  0.2217
11572TIP3    H156207   0.702   0.545  13.014  1.0018 -1.0412  0.1912
11572TIP3    H256208   0.687   0.678  12.945 -0.2877 -2.0851 -1.6211
11573TIP3   OH256209   3.381   4.725  12.966 -0.7110 -0.3439  0.0746
11573TIP3    H156210   3.337   4.647  12.933 -1.2819 -0.4655  1.1127
11573TIP3    H256211   3.316   4.795  12.957 -0.9073 -0.3970  1.0202
11574TIP3   OH256212   2.483   4.564  13.263 -0.3927 -0.0009 -0.2255
11574TIP3    H156213   2.458   4.607  13.181  1.6769 -1.5630 -1.8023
11574TIP3    H256214   2.421   4.598  13.328 -2.5371  0.8468 -2.5299
11575TIP3   OH256215   5.099   5.000  11.980  0.4393 -0.7623  0.3996
11575TIP3    H156216   5.027   5.012  11.917  1.3554 -0.6776 -0.6718
11575TIP3    H256217   5.148   5.082  11.975  0.2755 -0.5720  1.5941
11576TIP3   OH256218   3.667   1.473  16.871  0.0497 -0.3334  0.2610
11576TIP3    H156219   3.589   1.463  16.817 -0.1408 -0.7305  0.6101
11576TIP3    H256220   3.658   1.407  16.939  1.5374 -1.6130 -0.7041
11577TIP3   OH256221   4.196   4.084   1.943  0.5176  0.5322 -0.3700
11577TIP3    H156222   4.134   4.027   1.989  0.3068  1.1102  0.0701
11577TIP3    H256223   4.191   4.167   1.990 -0.9197  1.6911 -2.3908
11578TIP3   OH256224   5.781   3.358   0.226 -0.1886 -0.3078 -0.7211
11578TIP3    H156225   5.845   3.363   0.298 -1.2595 -4.3041  0.7475
11578TIP3    H256226   5.699   3.387   0.265 -0.1153  0.9854 -1.4643
11579TIP3   OH256227   1.812   3.978  16.606  0.1364  0.2702 -0.3138
11579TIP3    H156228   1.841   3.990  16.697 -0.1207 -0.3347 -0.1485
11579TIP3    H256229   1.870   3.910  16.571 -0.1029  0.1370 -0.4470
11580TIP3   OH256230   1.542   4.341  15.389  0.2472  0.0991  0.4929
11580TIP3    H156231   1.514   4.430  15.369 -1.8166 -0.5446  0.2166
11580TIP3    H256232   1.635   4.339  15.370 -0.1913  1.4610 -2.1773
11581TIP3   OH256233   2.183   0.281  14.498 -0.0364 -0.0277  0.3279
11581TIP3    H156234   2.232   0.296  14.417 -0.6135  1.7988  0.2510
11581TIP3    H256235   2.111   0.223  14.473  1.7120 -2.3347  0.3421
11582TIP3   OH256236   5.015   4.043   3.516  0.3302 -0.3124  0.3173
11582TIP3    H156237   5.074   3.970   3.533  0.2654 -0.4541 -0.0511
11582TIP3    H256238   4.944   4.032   3.579 -0.0847 -1.0286 -0.2712
11583TIP3   OH256239   0.207   6.371  16.708 -0.7068 -0.2762  0.2062
11583TIP3    H156240   0.197   6.442  16.645  1.4452 -0.7152 -0.7195
11583TIP3    H256241   0.165   6.403  16.788  0.7579  2.3290  0.0308
11584TIP3   OH256242   4.884   4.539   1.774  0.2559 -0.1156  0.6044
11584TIP3    H156243   4.852   4.460   1.729 -1.3286  0.0167  1.4357
11584TIP3    H256244   4.807   4.576   1.815  1.0098  1.7927  0.4010
11585TIP3   OH256245   1.893   1.535  12.372  0.3113  0.3170  0.1294
11585TIP3    H156246   1.943   1.456  12.393 -1.8391 -0.9802  0.6158
11585TIP3    H256247   1.929   1.564  12.288  1.4091 -0.9247  0.1324
11586TIP3   OH256248   4.219   1.254   2.620 -0.3200 -0.6692 -0.0824
11586TIP3    H156249   4.163   1.288   2.690  2.3233  2.4639  0.6974
11586TIP3    H256250   4.189   1.300   2.542  0.9705  0.9587  0.3235
11587TIP3   OH256251   4.596   4.738   6.543 -0.2418 -0.3141 -0.4250
11587TIP3    H156252   4.514   4.778   6.516 -0.2279 -0.2833 -0.4206
11587TIP3    H256253   4.577   4.644   6.547 -0.4856 -0.2370  0.3238
11588TIP3   OH256254   3.129   2.232  14.302 -0.4323  0.0518 -0.0729
11588TIP3    H156255   3.042   2.240  14.265 -0.6451  1.9674  0.7732
11588TIP3    H256256   3.124   2.275  14.387  1.2219 -0.2253  0.2044
11589TIP3   OH256257   3.200   6.068   4.884  0.3247  0.0706  0.6247
11589TIP3    H156258   3.171   6.047   4.973 -0.2112  0.0219  0.4447
11589TIP3    H256259   3.133   6.128   4.850  1.6826  1.9444  1.0406
11590TIP3   OH256260   4.980   4.021  11.284 -0.1320 -0.2730  0.1868
11590TIP3    H156261   5.038   4.059  11.349  0.8604 -1.5290  0.0657
11590TIP3    H256262   5.028   4.028  11.201 -0.7549 -0.0323 -0.1606
11591TIP3   OH256263   3.045   3.229  15.925  0.4768 -0.1989  0.3415
11591TIP3    H156264   2.957   3.229  15.964  0.2407  0.1712 -0.1921
11591TIP3    H256265   3.030   3.236  15.831  1.0962  0.4419  0.2826
11592TIP3   OH256266   2.521   4.412  11.754  0.5258  0.2164 -0.1316
11592TIP3    H156267   2.612   4.426  11.730  0.2275  0.8464 -0.9552
11592TIP3    H256268   2.494   4.493  11.798 -0.0327  0.6140 -1.1755
11593TIP3   OH256269   0.988   5.643   2.957 -0.2881 -1.0441  0.2559
11593TIP3    H156270   0.940   5.725   2.971 -0.4625 -0.8721 -1.1919
11593TIP3    H256271   1.075   5.660   2.994 -0.6126 -0.5232  0.7882
11594TIP3   OH256272   1.274   5.045   1.798 -0.0923  0.5110  0.2857
11594TIP3    H156273   1.338   5.091   1.851  0.7157  1.8378 -1.7466
11594TIP3    H256274   1.318   5.029   1.715 -2.1314  0.8060 -0.9219
11595TIP3   OH256275   1.983   3.047  15.727 -0.2944  0.2897 -0.0651
11595TIP3    H156276   2.074   3.072  15.744  0.2864 -0.4670 -1.8049
11595TIP3    H256277   1.954   3.006  15.808  0.6579  1.2143  0.7781
11596TIP3   OH256278   2.159   1.494   5.952  0.4182  0.1057 -0.0639
11596TIP3    H156279   2.254   1.501   5.948  0.3315  0.9990 -0.8183
11596TIP3    H256280   2.142   1.436   6.027  1.5213  0.5058  0.5115
11597TIP3   OH256281   6.410   5.597   5.436  0.2564 -0.1413 -0.6008
11597TIP3    H156282   6.375   5.675   5.393  0.3955  0.2504 -0.0145
11597TIP3    H256283   6.466   5.556   5.370 -0.1480  0.0261 -1.0523
11598TIP3   OH256284   4.373   5.130   0.723  0.0648 -0.3257 -0.1649
11598TIP3    H156285   4.448   5.150   0.778 -0.4475 -0.6091  0.6596
11598TIP3    H256286   4.362   5.035   0.731 -0.0103 -0.3772 -0.7794
11599TIP3   OH256287   5.221   0.617  15.749  0.2538  0.2724 -0.3793
11599TIP3    H156288   5.303   0.574  15.774  1.4756  2.8477  0.3490
11599TIP3    H256289   5.220   0.699  15.798 -4.1190 -0.7569  1.8067
11600TIP3   OH256290   0.278   4.294   7.022  0.3750 -0.1429 -0.2041
11600TIP3    H156291   0.187   4.269   7.039  0.4428 -0.1431  0.1754
11600TIP3    H256292   0.311   4.227   6.963  0.5969 -1.0514  0.9109
11601TIP3   OH256293   0.038   4.463   3.734 -0.7297  0.3879 -0.6345
11601TIP3    H156294   0.107   4.525   3.757 -1.4785  1.6699 -1.7297
11601TIP3    H256295  -0.013   4.453   3.815 -0.5527  1.1358 -0.4239
11602TIP3   OH256296   0.330   1.737   2.404 -0.4953 -0.4609  0.0198
11602TIP3    H156297   0.423   1.718   2.401 -0.2751 -0.0493  2.4306
11602TIP3    H256298   0.320   1.800   2.475 -2.7745 -1.7495  0.9789
11603TIP3   OH256299   3.926   0.177  10.892  0.2856 -0.0647  0.4386
11603TIP3    H156300   4.015   0.141  10.885  0.8238  1.0654  1.1278
11603TIP3    H256301   3.904   0.168  10.985  0.1647  0.7483  0.4966
11604TIP3   OH256302   5.335   4.337   3.582  0.3375 -0.2483  0.0251
11604TIP3    H156303   5.378   4.420   3.603 -0.0858 -0.1949  0.7125
11604TIP3    H256304   5.242   4.355   3.598  0.2046 -0.7345 -0.2177
11605TIP3   OH256305   3.107   2.052   1.334  0.0078  0.1669  0.1755
11605TIP3    H156306   3.039   2.082   1.394 -0.4451 -0.7429  0.1359
11605TIP3    H256307   3.066   1.981   1.285  0.3641  0.8985 -1.2300
11606TIP3   OH256308   3.604   5.670   5.507  0.0767  0.1414 -0.0272
11606TIP3    H156309   3.685   5.632   5.540 -0.7214  0.4721  2.5883
11606TIP3    H256310   3.595   5.753   5.554 -0.7104  1.1856 -1.9000
11607TIP3   OH256311   2.210   5.788  17.107  0.2410  0.1507  0.7169
11607TIP3    H156312   2.259   5.707  17.121  0.1991 -0.0854 -0.4002
11607TIP3    H256313   2.123   5.759  17.082  0.6907  0.4965 -1.3762
11608TIP3   OH256314   4.699   4.778  14.933 -0.0279  0.2259  0.6950
11608TIP3    H156315   4.708   4.761  14.839  1.5085  0.1720  0.8182
11608TIP3    H256316   4.608   4.756  14.953  0.2318 -2.0845 -0.3097
11609TIP3   OH256317   4.177   5.381  16.739  0.0338  0.0162 -0.2852
11609TIP3    H156318   4.134   5.339  16.665  1.2389  0.5819 -1.3519
11609TIP3    H256319   4.266   5.344  16.739  0.4860  1.0729 -0.0032
11610TIP3   OH256320   6.210   4.764  15.790  0.2922  0.6178  0.1703
11610TIP3    H156321   6.197   4.679  15.749  1.3568  0.9769 -0.9926
11610TIP3    H256322   6.154   4.824  15.740  0.4398  0.7948  0.2152
11611TIP3   OH256323   2.560   4.950  12.145  0.5877 -0.0387  0.3368
11611TIP3    H156324   2.606   5.021  12.189 -1.0168  0.5905  1.0818
11611TIP3    H256325   2.467   4.969  12.159  0.0723 -1.2046 -1.1673
11612TIP3   OH256326   4.147   5.334   5.663  0.4999  0.4416 -0.3876
11612TIP3    H156327   4.067   5.386   5.675 -0.6559 -1.1642 -0.7720
11612TIP3    H256328   4.204   5.361   5.734 -0.9810  0.5898  0.7958
11613TIP3   OH256329   1.369   6.296   1.172 -0.5978  0.1152 -0.1322
11613TIP3    H156330   1.335   6.341   1.249 -0.4300  0.2105 -0.1133
11613TIP3    H256331   1.378   6.365   1.106  1.0228  0.3883  0.3393
11614TIP3   OH256332   4.678   5.319  17.022  0.0455  0.0220  0.2747
11614TIP3    H156333   4.589   5.289  17.006  0.4807 -0.7630 -0.8508
11614TIP3    H256334   4.726   5.239  17.045  0.5974  0.3279  0.1990
11615TIP3   OH256335   2.530   1.829  12.689 -0.1998  0.4564 -0.7002
11615TIP3    H156336   2.548   1.873  12.772 -2.9246  0.4444  0.0089
11615TIP3    H256337   2.599   1.859  12.630  0.9641  1.6261  1.1616
11616TIP3   OH256338   5.166   1.633  13.265  0.5124  0.1279 -0.0862
11616TIP3    H156339   5.188   1.726  13.252 -0.4441  0.4421  0.4965
11616TIP3    H256340   5.071   1.630  13.264  0.5127 -0.7142  0.8043
11617TIP3   OH256341   0.485   3.941  13.060  0.1868  0.3097  0.3775
11617TIP3    H156342   0.449   3.908  13.142 -0.3721 -1.0847 -0.3764
11617TIP3    H256343   0.412   3.988  13.019  0.7463  1.8490  1.0834
11618TIP3   OH256344   3.522   0.516   1.093  0.2057 -0.5024 -0.2853
11618TIP3    H156345   3.473   0.564   1.159  0.4921  0.8810 -1.0371
11618TIP3    H256346   3.485   0.427   1.095 -0.6667 -0.1398  0.7993
11619TIP3   OH256347   1.087   3.757  14.599 -0.2815  0.0614 -0.0715
11619TIP3    H156348   1.041   3.785  14.520 -0.4828 -2.4682 -0.9397
11619TIP3    H256349   1.170   3.721  14.567  0.4848  0.7437  1.0809
11620TIP3   OH256350   3.839   2.776   5.943 -0.3484 -0.3232  0.4937
11620TIP3    H156351   3.839   2.783   6.038  1.0770 -2.3090  0.6911
11620TIP3    H256352   3.931   2.773   5.918 -0.6830  0.8315 -1.0297
11621TIP3   OH256353   2.436   2.344   0.682  0.1554 -0.4859  0.1445
11621TIP3    H156354   2.384   2.373   0.607  0.1819  0.5642  0.5039
11621TIP3    H256355   2.483   2.267   0.651 -0.9064 -0.8969 -0.4735
11622TIP3   OH256356   5.185   2.537   5.469 -0.0589  0.2902  0.0533
11622TIP3    H156357   5.256   2.476   5.486  0.4026  0.7418 -0.2207
11622TIP3    H256358   5.227   2.613   5.428 -0.6910  0.5760 -0.0904
11623TIP3   OH256359   0.909   4.774   0.949  0.3375 -0.3598  0.6485
11623TIP3    H156360   0.942   4.862   0.967 -0.2540 -0.1622  0.8141
11623TIP3    H256361   0.984   4.726   0.917  0.5364  0.3907 -0.0548
11624TIP3   OH256362   6.398   6.646  14.104 -0.1983  0.1777  0.2042
11624TIP3    H156363   6.328   6.696  14.147 -0.5696 -0.6267  0.5712
11624TIP3    H256364   6.374   6.554  14.120  0.6011 -0.1127 -0.2298
11625TIP3   OH256365   6.750   0.925  15.834  0.3832 -0.2463 -0.8942
11625TIP3    H156366   6.839   0.944  15.866  0.9057 -0.5984 -2.0677
11625TIP3    H256367   6.717   1.010  15.806  0.0796 -0.0041  0.1803
11626TIP3   OH256368   0.603   0.175  11.860 -0.1269 -0.0753 -0.7200
11626TIP3    H156369   0.547   0.225  11.920  1.1620  1.2665 -0.5901
11626TIP3    H256370   0.685   0.223  11.857  1.1305 -2.0912 -0.7649
11627TIP3   OH256371   2.962   3.239   5.608 -0.3114 -0.4562  0.3197
11627TIP3    H156372   2.926   3.285   5.684  1.9853  1.2886  0.4647
11627TIP3    H256373   3.002   3.160   5.645 -0.6015 -0.4338  0.6870
11628TIP3   OH256374   0.481   6.634   5.303  0.1573 -0.5255  0.6322
11628TIP3    H156375   0.387   6.646   5.309  0.0557  0.6532 -1.9050
11628TIP3    H256376   0.494   6.592   5.217  2.0136  1.1091  0.0328
11629TIP3   OH256377   4.552   3.572  11.234 -0.5935 -0.2657 -0.3523
11629TIP3    H156378   4.611   3.559  11.309  0.1864  1.7450 -0.5628
11629TIP3    H256379   4.478   3.514  11.252  0.1579 -0.7832  1.3210
11630TIP3   OH256380   5.168   6.141  13.345  0.7721  0.4565 -0.2717
11630TIP3    H156381   5.093   6.123  13.289  0.5839  1.5752 -0.3940
11630TIP3    H256382   5.244   6.116  13.293  0.4928 -0.8188 -0.0932
11631TIP3   OH256383   2.917   3.696  12.190  0.2574 -0.1323  0.4720
11631TIP3    H156384   2.868   3.656  12.118  0.1543  1.7944 -0.6124
11631TIP3    H256385   2.992   3.737  12.147 -0.1310  1.5846  1.3405
11632TIP3   OH256386   5.541   1.510  15.550 -0.2805  0.3033  0.3628
11632TIP3    H156387   5.526   1.418  15.527 -1.6413  0.3763  0.8810
11632TIP3    H256388   5.587   1.506  15.634 -1.8630  0.0844  1.2465
11633TIP3   OH256389   3.475   5.382   4.647  0.1098  0.6305  0.0401
11633TIP3    H156390   3.510   5.397   4.735 -0.6997  0.8831  0.3216
11633TIP3    H256391   3.385   5.353   4.661  0.3664 -0.5616 -0.6601
11634TIP3   OH256392   5.650   5.091   1.560 -0.3954  0.3957  1.1338
11634TIP3    H156393   5.644   5.111   1.467  0.4089  0.4852  1.0900
11634TIP3    H256394   5.742   5.109   1.582 -0.2237 -0.9826  1.6173
11635TIP3   OH256395   5.389   1.510  15.106 -0.3788 -0.6778  0.0018
11635TIP3    H156396   5.357   1.521  15.196 -0.7590  0.9872 -0.3005
11635TIP3    H256397   5.310   1.495  15.054 -0.0912 -2.5055  0.0192
11636TIP3   OH256398   2.092   6.004   5.074 -0.4258 -0.0295  0.1442
11636TIP3    H156399   2.143   5.924   5.061  0.2109  0.2448  0.8954
11636TIP3    H256400   2.059   5.998   5.164 -0.0375  0.7372  0.3422
11637TIP3   OH256401   4.734   2.400   1.163  0.7639 -0.6605  0.2456
11637TIP3    H156402   4.697   2.406   1.075  0.3780 -0.4964  0.4178
11637TIP3    H256403   4.666   2.434   1.220  1.2771 -0.1298  0.5475
11638TIP3   OH256404   3.132   4.188  16.413  0.7019 -0.6061  0.0586
11638TIP3    H156405   3.171   4.165  16.329  0.6572  1.3186 -0.5326
11638TIP3    H256406   3.050   4.137  16.416  1.0922 -1.2923 -0.6875
11639TIP3   OH256407   3.583   4.791  13.156 -0.8226  0.1637 -0.2829
11639TIP3    H156408   3.516   4.756  13.098 -0.9965  1.7400 -1.0813
11639TIP3    H256409   3.654   4.818  13.097  0.5051 -1.3717  0.5336
11640TIP3   OH256410   5.036   6.009   3.999 -0.7106  0.2782 -0.3059
11640TIP3    H156411   5.003   6.061   4.073 -0.7857  0.4589 -0.4666
11640TIP3    H256412   4.958   5.968   3.963 -0.7956  0.8639 -0.8098
11641TIP3   OH256413   6.496   1.671  17.063 -0.4385  0.1059 -0.3152
11641TIP3    H156414   6.565   1.681  17.128  2.6388  0.5500 -3.3554
11641TIP3    H256415   6.453   1.588  17.085  1.4617 -0.4984  1.3711
11642TIP3   OH256416   5.110   3.588   3.144 -0.5282  0.1914  0.0220
11642TIP3    H156417   5.121   3.656   3.077 -0.5104 -0.2545 -0.4331
11642TIP3    H256418   5.017   3.591   3.166 -0.6972 -0.1939 -0.6070
11643TIP3   OH256419   0.246   3.770  13.579 -0.9425 -0.2620 -0.0199
11643TIP3    H156420   0.231   3.846  13.522 -2.0065 -2.1479 -2.4335
11643TIP3    H256421   0.336   3.743  13.561 -0.9523 -0.2772 -0.0461
11644TIP3   OH256422   2.152   4.110   2.436 -0.3902  0.7010  0.4728
11644TIP3    H156423   2.108   4.153   2.509  0.6990  1.1944  0.8664
11644TIP3    H256424   2.198   4.036   2.476 -1.8682 -0.5834 -0.1311
11645TIP3   OH256425   1.540   0.399  12.679  0.3869  0.0003 -0.0111
11645TIP3    H156426   1.538   0.455  12.757  3.2158  0.9868 -0.5306
11645TIP3    H256427   1.582   0.319  12.709 -0.9139 -0.6806  0.0376
11646TIP3   OH256428   6.402   4.859   0.833 -0.3191 -0.2208 -0.1890
11646TIP3    H156429   6.371   4.777   0.873 -2.3817  0.0139 -1.1771
11646TIP3    H256430   6.479   4.833   0.782 -0.7443 -1.4879 -0.2202
11647TIP3   OH256431   1.572   1.359   2.641  0.8054 -0.1206  0.4872
11647TIP3    H156432   1.502   1.396   2.694 -0.0646 -0.4235 -0.4131
11647TIP3    H256433   1.618   1.434   2.605 -0.8758  0.1702 -1.2380
11648TIP3   OH256434   0.454   2.945   2.767  0.0529 -0.4661  0.4788
11648TIP3    H156435   0.476   2.866   2.718  0.0617 -0.9711  1.2674
11648TIP3    H256436   0.364   2.965   2.742 -0.2214 -1.1898  0.8609
11649TIP3   OH256437   5.969   1.654  14.198 -0.1316  0.2040  0.2528
11649TIP3    H156438   5.992   1.673  14.289 -1.7003 -0.1324  0.7541
11649TIP3    H256439   5.915   1.575  14.202 -2.2619  1.5004 -0.6482
11650TIP3   OH256440   5.810   4.232  11.657  0.3425  0.5090 -0.2045
11650TIP3    H156441   5.869   4.157  11.653  1.3243  1.2992 -1.8719
11650TIP3    H256442   5.759   4.226  11.576  0.0439  1.3196 -0.0838
11651TIP3   OH256443   3.963   0.948   4.185  0.8912 -0.3983 -0.0789
11651TIP3    H156444   3.988   0.954   4.093  1.9067  1.0679  0.2724
11651TIP3    H256445   3.945   0.854   4.198  2.6918 -0.9660 -1.2749
11652TIP3   OH256446   0.735   4.255  11.362 -0.7238 -0.5975 -0.5569
11652TIP3    H156447   0.682   4.305  11.301  0.3147  1.1972 -0.0461
11652TIP3    H256448   0.794   4.204  11.307 -0.2677  0.4676 -1.0639
11653TIP3   OH256449   1.660   2.517   5.150 -0.7954 -0.4774 -0.1513
11653TIP3    H156450   1.736   2.460   5.159  0.0801  0.6730 -0.0547
11653TIP3    H256451   1.610   2.503   5.230 -0.2937 -0.6790  0.1316
11654TIP3   OH256452   0.633   0.450  13.169 -0.2870 -0.6400  0.3511
11654TIP3    H156453   0.688   0.372  13.169  0.0465 -0.5116 -2.4429
11654TIP3    H256454   0.546   0.418  13.193 -0.0273 -1.7949 -0.1663
11655TIP3   OH256455   5.015   6.268  16.800  0.5083  0.1462 -0.1716
11655TIP3    H156456   5.080   6.312  16.854  0.9804  0.9464 -1.3339
11655TIP3    H256457   5.063   6.194  16.761 -0.0939 -1.0185  1.2349
11656TIP3   OH256458   2.824   1.062  17.192  0.4093 -0.2884 -0.1545
11656TIP3    H156459   2.806   1.155  17.206 -3.2097 -0.9083  0.3071
11656TIP3    H256460   2.841   1.054  17.099 -0.8787  0.7112 -0.5091
11657TIP3   OH256461   3.513   5.199  14.573 -0.1788  0.5872 -0.3153
11657TIP3    H156462   3.496   5.136  14.643  2.0370 -1.0708 -1.1542
11657TIP3    H256463   3.587   5.162  14.525 -0.6499  2.4317 -2.6256
11658TIP3   OH256464   5.253   1.163   3.085 -0.4996 -0.3651  0.0070
11658TIP3    H156465   5.325   1.100   3.088  0.6571  0.9138  2.0616
11658TIP3    H256466   5.295   1.246   3.065 -1.4470  0.3234  0.7565
11659TIP3   OH256467   1.712   3.264  15.422 -0.1212  0.1257 -0.4924
11659TIP3    H156468   1.797   3.220  15.423  0.2334  0.8066 -0.1403
11659TIP3    H256469   1.655   3.204  15.375  0.2719 -0.8492  0.2417
11660TIP3   OH256470   0.825   6.776   3.680  0.2252 -0.3107 -0.3189
11660TIP3    H156471   0.793   6.853   3.633 -0.6989 -1.3397 -1.4551
11660TIP3    H256472   0.822   6.800   3.772 -0.8348  0.7261 -0.6104
11661TIP3   OH256473   1.728   0.301  14.052 -0.4395 -0.7760 -0.3832
11661TIP3    H156474   1.643   0.312  14.010 -2.0620  0.4719  2.9012
11661TIP3    H256475   1.785   0.362  14.005 -2.4554  1.4426 -0.1697
11662TIP3   OH256476   5.868   3.648   2.830  0.9272 -0.1546 -0.5316
11662TIP3    H156477   5.910   3.598   2.900 -1.1076 -1.7140 -0.3558
11662TIP3    H256478   5.941   3.675   2.774  2.2054 -2.8205 -0.3095
11663TIP3   OH256479   6.732   0.456   3.167  0.2517 -0.3047 -0.2118
11663TIP3    H156480   6.672   0.515   3.213  0.5695  1.2635 -1.6760
11663TIP3    H256481   6.819   0.490   3.188  0.3900  0.7504 -2.2326
11664TIP3   OH256482   3.783   1.305   5.307 -0.0129  0.0477 -0.5271
11664TIP3    H156483   3.864   1.339   5.346  0.9821 -1.1459 -1.4519
11664TIP3    H256484   3.719   1.374   5.322  1.4278  1.4943 -0.6181
11665TIP3   OH256485   0.570   1.286  13.783  0.1912  0.2305 -0.4029
11665TIP3    H156486   0.664   1.289  13.764  0.4684  0.6213  0.9061
11665TIP3    H256487   0.537   1.370  13.750  0.4157  0.3522 -0.3247
11666TIP3   OH256488   6.328   2.606   6.061  0.6622 -0.0269 -0.2154
11666TIP3    H156489   6.358   2.695   6.076  0.3200  0.0887 -0.1958
11666TIP3    H256490   6.370   2.580   5.979  1.0504  0.0198 -0.0313
11667TIP3   OH256491   0.137   3.667   4.841  0.3742 -0.1089 -0.1047
11667TIP3    H156492   0.077   3.593   4.853  0.1124  0.0597 -0.3432
11667TIP3    H256493   0.224   3.632   4.859  0.1219 -0.1623  1.0361
11668TIP3   OH256494   1.895   4.706   0.513 -0.0046  0.4721  0.7333
11668TIP3    H156495   1.985   4.690   0.487  1.2772  3.7794  2.4219
11668TIP3    H256496   1.869   4.783   0.462 -1.3089  0.4754  1.3607
11669TIP3   OH256497   3.015   4.045  15.997 -0.1116 -0.5363  0.4903
11669TIP3    H156498   3.068   4.043  15.917 -1.1556  0.6152 -0.2658
11669TIP3    H256499   2.977   4.132  15.998  0.6341 -0.1832  2.7875
11670TIP3   OH256500   1.367   3.364  12.225  0.2307  0.2381  0.2949
11670TIP3    H156501   1.277   3.368  12.196  0.0294 -2.4420  0.2472
11670TIP3    H256502   1.361   3.367  12.321  0.3574  2.4852  0.2861
11671TIP3   OH256503   1.354   6.417  14.715  0.7240 -0.5637 -0.1391
11671TIP3    H156504   1.377   6.510  14.724  0.6879 -0.4319 -1.2533
11671TIP3    H256505   1.271   6.418  14.669 -0.2007 -1.1199  1.4439
11672TIP3   OH256506   3.462   5.564   1.911  0.5380  0.0896  0.0404
11672TIP3    H156507   3.546   5.566   1.865  0.1013 -0.0451 -0.7864
11672TIP3    H256508   3.433   5.473   1.905  1.5247 -0.4654  2.5795
11673TIP3   OH256509   4.769   2.817   0.627 -0.1463 -0.3747  0.2781
11673TIP3    H156510   4.699   2.799   0.690 -1.2573 -2.4174 -1.3926
11673TIP3    H256511   4.848   2.827   0.680 -1.4467  0.6975  2.1388
11674TIP3   OH256512   2.651   6.557  14.335  0.2601  0.3292 -0.5731
11674TIP3    H156513   2.647   6.461  14.340  2.2680  0.2675  1.6214
11674TIP3    H256514   2.706   6.574  14.259 -1.3239 -0.1444 -1.8949
11675TIP3   OH256515   5.073   1.947   5.078 -0.4569 -0.1769 -0.1069
11675TIP3    H156516   5.127   1.892   5.021 -0.8980 -1.3191  0.5371
11675TIP3    H256517   5.019   1.885   5.127 -2.6038  0.9244 -0.9503
11676TIP3   OH256518   0.294   3.375  11.854 -0.4866 -0.8054 -0.4300
11676TIP3    H156519   0.263   3.318  11.924  0.0065  0.8915  1.2624
11676TIP3    H256520   0.380   3.404  11.884 -0.1701 -0.1961 -1.8539
11677TIP3   OH256521   3.097   3.164   4.896 -0.3313  0.2883 -0.0472
11677TIP3    H156522   3.074   3.086   4.945  0.1867 -0.0697 -0.3590
11677TIP3    H256523   3.165   3.207   4.948 -0.3187  0.3088 -0.0801
11678TIP3   OH256524   5.190   0.248   0.697  0.4420 -0.3944  0.0229
11678TIP3    H156525   5.158   0.179   0.638  0.5143  0.6778 -1.3326
11678TIP3    H256526   5.234   0.201   0.767 -2.0582 -1.8565  0.7524
11679TIP3   OH256527   3.826   6.223   1.404  0.4629 -0.0437  0.0544
11679TIP3    H156528   3.914   6.215   1.440  1.1356 -0.6911 -1.6527
11679TIP3    H256529   3.769   6.185   1.471  1.2962  1.4219  1.7060
11680TIP3   OH256530   3.154   1.224   3.505  0.0627 -0.6369 -0.2991
11680TIP3    H156531   3.142   1.317   3.490  1.2629 -0.6086 -1.1654
11680TIP3    H256532   3.198   1.219   3.590 -1.5929 -0.5285  0.6060
11681TIP3   OH256533   6.678   2.876  13.699 -1.0899  0.1923 -0.4709
11681TIP3    H156534   6.585   2.855  13.688 -1.1495  0.3577 -0.2968
11681TIP3    H256535   6.699   2.933  13.625 -0.7123 -1.1308 -1.4279
11682TIP3   OH256536   3.142   2.442   0.231  0.4662 -0.0585 -0.1406
11682TIP3    H156537   3.156   2.483   0.145  0.5417 -0.5223 -0.3487
11682TIP3    H256538   3.136   2.516   0.292  3.4136  0.2609 -0.0671
11683TIP3   OH256539   3.386   3.882  14.849  0.0630  0.6234  0.1889
11683TIP3    H156540   3.422   3.876  14.761  0.0735  1.1901  0.1518
11683TIP3    H256541   3.433   3.816  14.899  0.9921  1.1968  0.0894
11684TIP3   OH256542   1.317   4.333  13.475 -0.0119 -0.6703 -0.4544
11684TIP3    H156543   1.289   4.419  13.508 -2.6798 -1.6183  0.0226
11684TIP3    H256544   1.386   4.305  13.535 -0.3834  0.3755  0.4821
11685TIP3   OH256545   4.300   2.470  14.845 -0.0414 -0.2868 -0.6213
11685TIP3    H156546   4.283   2.395  14.903 -3.1012 -1.1562 -2.4167
11685TIP3    H256547   4.350   2.433  14.773  0.7959  0.0317 -0.2117
11686TIP3   OH256548   3.307   3.669   4.166  0.8601  0.5652  0.2397
11686TIP3    H156549   3.264   3.747   4.199  0.5539  0.4640  0.0812
11686TIP3    H256550   3.237   3.606   4.154  1.0730  0.3480  0.1255
11687TIP3   OH256551   4.939   5.862  16.035  0.5135  0.4346  0.2570
11687TIP3    H156552   4.925   5.864  15.940  0.9589  1.9955  0.1914
11687TIP3    H256553   5.012   5.802  16.048 -0.3152 -0.7277 -0.2501
11688TIP3   OH256554   4.377   6.460  12.370  0.4267 -0.4176 -0.1217
11688TIP3    H156555   4.352   6.444  12.461  0.9536  0.2943  0.1658
11688TIP3    H256556   4.473   6.464  12.372  0.4189  0.2572 -0.5803
11689TIP3   OH256557   6.570   5.025   0.486  0.1583  0.0216  0.5095
11689TIP3    H156558   6.570   4.977   0.403  0.8127  0.0648  0.4781
11689TIP3    H256559   6.494   5.082   0.481  1.5041  1.7962 -1.0944
11690TIP3   OH256560   1.138   2.827   2.504  0.0926  0.0788 -0.7197
11690TIP3    H156561   1.207   2.760   2.508  1.8992  1.8296 -1.3380
11690TIP3    H256562   1.140   2.868   2.591 -1.6930 -1.2100  0.0123
11691TIP3   OH256563   3.505   3.154   5.693 -0.7171 -0.3471  0.6070
11691TIP3    H156564   3.552   3.072   5.681  0.4782  0.3905  0.0327
11691TIP3    H256565   3.490   3.160   5.787  2.3285  0.4127  1.1432
11692TIP3   OH256566   0.693   5.710   6.273 -0.5150 -0.0412  0.5511
11692TIP3    H156567   0.658   5.798   6.292 -2.2118 -0.9055  1.6831
11692TIP3    H256568   0.765   5.699   6.336  0.6625  1.0366 -0.5425
11693TIP3   OH256569   6.438   2.845  13.608 -0.3031  0.3957  0.1371
11693TIP3    H156570   6.414   2.755  13.628  0.0127  0.6165  1.6306
11693TIP3    H256571   6.358   2.895  13.624 -0.1682  0.5237  0.4136
11694TIP3   OH256572   0.889   5.297  10.822 -0.1797 -0.1705  0.2931
11694TIP3    H156573   0.975   5.329  10.848 -0.0298  0.5708 -0.9915
11694TIP3    H256574   0.874   5.336  10.736 -0.9940 -1.8030 -0.3538
11695TIP3   OH256575   6.110   5.768  11.944 -0.1467 -0.2862 -0.2453
11695TIP3    H156576   6.140   5.828  11.876  0.4765 -0.7849 -0.4221
11695TIP3    H256577   6.122   5.681  11.906  1.5584 -0.6474  1.0039
11696TIP3   OH256578   0.920   3.365   3.446  0.2775  0.2987  0.1783
11696TIP3    H156579   0.860   3.438   3.462  0.7591  0.6293  0.4911
11696TIP3    H256580   0.913   3.311   3.525 -0.1836 -0.0735 -0.1118
11697TIP3   OH256581   2.074   1.059   5.375 -0.1944 -0.4523  0.0441
11697TIP3    H156582   2.081   0.995   5.445 -1.8095 -1.0587 -0.3070
11697TIP3    H256583   1.983   1.054   5.346 -0.3586  1.9335 -0.0627
11698TIP3   OH256584   4.839   1.720  16.310  0.1579  0.1141  0.4972
11698TIP3    H156585   4.873   1.694  16.396  1.2508  0.5023  0.2098
11698TIP3    H256586   4.790   1.800  16.327 -1.6812 -1.0709  1.1035
11699TIP3   OH256587   3.262   6.541  16.735  0.6116  0.0466 -0.1146
11699TIP3    H156588   3.180   6.513  16.696  0.4795 -0.9545  0.8333
11699TIP3    H256589   3.238   6.617  16.788 -0.2419 -1.6388  2.0981
11700TIP3   OH256590   3.587   5.775   1.455  0.0836  0.0158  0.3373
11700TIP3    H156591   3.671   5.822   1.449  0.3732 -0.1381  2.3614
11700TIP3    H256592   3.546   5.810   1.534 -2.0380  0.4398 -0.8622
11701TIP3   OH256593   1.266   2.038   1.988  0.3533  0.5782  0.1715
11701TIP3    H156594   1.325   2.028   1.913 -0.3287 -1.9874 -0.0944
11701TIP3    H256595   1.290   2.123   2.026  1.7313  1.2491 -2.0401
11702TIP3   OH256596   4.599   1.272   6.278  0.0303 -0.3062  0.1128
11702TIP3    H156597   4.599   1.327   6.356 -0.7966 -2.3871  1.6978
11702TIP3    H256598   4.685   1.287   6.238  1.4440 -0.8011  2.7071
11703TIP3   OH256599   3.089   3.772   1.185 -0.3337  0.0137  0.0928
11703TIP3    H156600   3.148   3.702   1.155 -0.6555  0.0205 -0.5635
11703TIP3    H256601   3.145   3.849   1.191  0.5672 -0.7318  2.9829
11704TIP3   OH256602   5.639   2.519   5.826  0.6443  0.2383 -0.5422
11704TIP3    H156603   5.596   2.553   5.747  1.7767  1.1814 -0.7760
11704TIP3    H256604   5.568   2.481   5.878 -0.3965  1.3488 -1.1225
11705TIP3   OH256605   6.668   0.844  15.486  0.0067 -0.0106 -0.2265
11705TIP3    H156606   6.595   0.791  15.454  0.3057 -0.7129  0.2362
11705TIP3    H256607   6.626   0.920  15.528 -0.6190 -1.5818  2.2251
11706TIP3   OH256608   3.018   1.357  17.089  0.4854  0.5162 -0.1990
11706TIP3    H156609   2.929   1.347  17.056  0.5418 -0.8268 -0.0104
11706TIP3    H256610   3.068   1.389  17.014  0.6243 -2.5051 -1.5522
11707TIP3   OH256611   0.743   6.464  14.179  0.1080  0.1003 -0.2069
11707TIP3    H156612   0.741   6.368  14.179 -1.0153  0.1098  0.2339
11707TIP3    H256613   0.757   6.487  14.271  0.1841  0.3671 -0.2860
11708TIP3   OH256614   2.779   1.505   4.363  0.3122 -0.0767  0.0073
11708TIP3    H156615   2.769   1.484   4.271  1.0152  2.4005 -0.7210
11708TIP3    H256616   2.846   1.444   4.395 -0.9830 -1.9489 -0.6751
11709TIP3   OH256617   0.809   4.214  13.303 -0.0941 -0.7591 -0.4183
11709TIP3    H156618   0.865   4.287  13.277  0.8622 -1.2310  0.2648
11709TIP3    H256619   0.721   4.251  13.304  0.5425  0.9553  1.8260
11710TIP3   OH256620   2.690   6.248  16.904  0.5943  0.1995 -0.0701
11710TIP3    H156621   2.601   6.222  16.881  1.2318 -0.4356 -2.0379
11710TIP3    H256622   2.723   6.175  16.956 -0.0170  0.4233  0.6429
11711TIP3   OH256623   5.450   3.665  11.904  0.1175  0.1976  0.1123
11711TIP3    H156624   5.359   3.647  11.927 -0.1068 -0.5976 -1.2395
11711TIP3    H256625   5.444   3.711  11.821  0.9351  0.6588  0.3054
11712TIP3   OH256626   6.405   6.682   2.826  0.4448 -0.6625  0.5718
11712TIP3    H156627   6.456   6.601   2.837  0.8976 -0.5149 -0.3492
11712TIP3    H256628   6.442   6.723   2.748 -1.2613 -0.6821 -0.2785
11713TIP3   OH256629   0.777   6.121  17.081 -0.7230 -0.0253  0.1749
11713TIP3    H156630   0.823   6.183  17.025 -0.4274  1.1827  1.7090
11713TIP3    H256631   0.846   6.071  17.125 -0.9014  0.3101  0.8527
11714TIP3   OH256632   1.815   0.268  15.074  0.2115  0.6907  0.5590
11714TIP3    H156633   1.814   0.265  14.978 -2.4454 -1.2374  0.5375
11714TIP3    H256634   1.738   0.217  15.100  1.0514  0.8635  3.7452
11715TIP3   OH256635   1.389   0.471   3.151 -0.3789  0.2407  0.2074
11715TIP3    H156636   1.401   0.466   3.246 -2.5100 -4.1651  0.5165
11715TIP3    H256637   1.316   0.531   3.138  0.6326  1.7475  1.1426
11716TIP3   OH256638   3.808   2.832  12.761 -0.3312 -0.4376 -0.0734
11716TIP3    H156639   3.862   2.839  12.682 -0.0058  0.0609  0.1859
11716TIP3    H256640   3.853   2.767  12.815 -0.5700 -0.7996 -0.3140
11717TIP3   OH256641   0.515   5.562  16.685 -0.1021 -0.4222 -0.0617
11717TIP3    H156642   0.597   5.585  16.730 -0.0199 -1.0151  0.1034
11717TIP3    H256643   0.479   5.491  16.738  0.1593 -1.3565 -1.1217
11718TIP3   OH256644   6.140   3.077   4.506 -0.1771  0.4285  0.0162
11718TIP3    H156645   6.050   3.044   4.505  0.0506 -0.2010 -0.0422
11718TIP3    H256646   6.134   3.164   4.466 -0.9824  0.9893  1.3110
11719TIP3   OH256647   1.923   4.380  12.516 -0.3224  0.6095 -0.0714
11719TIP3    H156648   1.933   4.290  12.485 -0.3775  0.4018  0.5067
11719TIP3    H256649   2.013   4.414  12.518 -0.3811  0.8510 -1.1105
11720TIP3   OH256650   6.409   6.522   6.253 -0.3751  0.4292 -0.1172
11720TIP3    H156651   6.485   6.558   6.299 -0.4891  1.3451 -0.6069
11720TIP3    H256652   6.413   6.562   6.166 -1.0737  0.0109 -0.3444
11721TIP3   OH256653   5.262   0.830   2.033 -0.1492  0.0524 -0.2965
11721TIP3    H156654   5.192   0.834   2.098  0.7253  0.2640  0.6560
11721TIP3    H256655   5.220   0.856   1.951 -1.5013 -1.1583 -0.0316
11722TIP3   OH256656   5.187   4.280   0.174  0.0258  0.6057  0.4897
11722TIP3    H156657   5.105   4.264   0.221  0.1025  1.7314  1.0320
11722TIP3    H256658   5.162   4.283   0.082 -0.2229 -1.0182  0.4741
11723TIP3   OH256659   5.891   4.884  14.367  0.8812  0.2658  0.4149
11723TIP3    H156660   5.846   4.844  14.441  1.9673  1.0122  1.5050
11723TIP3    H256661   5.921   4.809  14.315 -2.8811 -0.3098 -1.2543
11724TIP3   OH256662   6.086   6.499  15.866  0.1923  0.0196  0.2437
11724TIP3    H156663   5.993   6.483  15.855 -0.1690  2.1743 -0.3004
11724TIP3    H256664   6.112   6.544  15.786  0.5986  3.6828  2.2341
11725TIP3   OH256665   1.267   1.343   4.771 -0.0255  0.2091  1.1041
11725TIP3    H156666   1.177   1.358   4.743  0.9281  2.4260 -1.1281
11725TIP3    H256667   1.308   1.298   4.697  1.8340  3.5677 -0.1047
11726TIP3   OH256668   2.036   2.141  11.949  0.7115  0.9266  0.3383
11726TIP3    H156669   2.093   2.199  12.000  2.1597  0.9401 -1.1974
11726TIP3    H256670   1.979   2.201  11.901 -0.6697  0.9135  1.8683
11727TIP3   OH256671   2.003   4.411   2.619 -0.0387  0.0595  0.1880
11727TIP3    H156672   1.969   4.398   2.530 -2.7032 -0.4962  1.1957
11727TIP3    H256673   1.966   4.339   2.670  1.4989  0.3209  1.7622
11728TIP3   OH256674   2.754   6.223  14.336  0.1662 -0.2847  0.2840
11728TIP3    H156675   2.801   6.140  14.324 -1.3901 -1.1946  0.2305
11728TIP3    H256676   2.674   6.199  14.383 -0.4204  1.1642  0.0891
11729TIP3   OH256677   4.273   3.821  15.881  0.9066 -0.0374  0.3050
11729TIP3    H156678   4.368   3.812  15.870  1.0239  0.7431  0.6160
11729TIP3    H256679   4.263   3.875  15.960  0.2161  0.4681 -0.1164
11730TIP3   OH256680   5.120   0.367   0.412  0.2862 -0.0100 -0.1235
11730TIP3    H156681   5.213   0.349   0.428  0.3320  1.6834  2.0240
11730TIP3    H256682   5.075   0.288   0.444  0.8677  0.3192  1.6403
11731TIP3   OH256683   4.188   2.592  11.986 -0.5488  0.2600  0.4452
11731TIP3    H156684   4.224   2.510  11.955  1.4478  1.1274  0.3397
11731TIP3    H256685   4.161   2.638  11.906  0.0491  0.4557  0.3487
11732TIP3   OH256686   3.093   3.840   5.125  0.5339  0.5206 -0.5345
11732TIP3    H156687   3.108   3.858   5.032  0.0616  0.6538 -0.5884
11732TIP3    H256688   3.005   3.874   5.142  0.0754 -0.6755 -0.3602
11733TIP3   OH256689   4.089   3.373  17.272 -0.4379 -0.1066 -0.1010
11733TIP3    H156690   4.023   3.440  17.255  1.3414  2.2703  1.6673
11733TIP3    H256691   4.126   3.353  17.186 -0.9232  1.3060 -0.6640
11734TIP3   OH256692   4.718   0.696  14.129 -0.4559 -0.3011 -0.4210
11734TIP3    H156693   4.682   0.783  14.107 -2.0343  0.0567  2.8962
11734TIP3    H256694   4.793   0.715  14.185 -0.7554 -1.0308  0.2488
11735TIP3   OH256695   2.845   3.283   1.364 -1.4741 -0.5480  0.3147
11735TIP3    H156696   2.800   3.274   1.280  0.4462 -1.0029 -0.7262
11735TIP3    H256697   2.870   3.375   1.369  0.7479 -0.9918 -0.9727
11736TIP3   OH256698   0.971   4.060  12.251  0.1961 -0.0414  0.2278
11736TIP3    H156699   0.933   4.006  12.321 -0.0369 -0.0293  0.1125
11736TIP3    H256700   0.916   4.138  12.249 -0.1429 -0.2906 -0.3442
11737TIP3   OH256701   6.470   6.216   3.347 -0.0844 -0.2224  0.1872
11737TIP3    H156702   6.460   6.288   3.409  0.8102 -2.0111  2.5829
11737TIP3    H256703   6.565   6.206   3.337 -0.1597 -1.5616  0.5706
11738TIP3   OH256704   0.253   5.215   2.105  0.5363 -0.5939  0.9163
11738TIP3    H156705   0.340   5.196   2.140  1.5938  1.9776 -0.1196
11738TIP3    H256706   0.260   5.194   2.012  0.5600  1.0548  0.5266
11739TIP3   OH256707   6.492   1.204  14.835 -0.1783 -0.1071 -0.5186
11739TIP3    H156708   6.481   1.194  14.929 -1.2062 -3.0667 -0.8629
11739TIP3    H256709   6.575   1.161  14.816  1.0994  2.3118 -0.7877
11740TIP3   OH256710   3.327   0.345   3.221 -0.1717 -0.1947  0.3181
11740TIP3    H156711   3.366   0.421   3.264 -2.2310  1.1201 -0.0213
11740TIP3    H256712   3.400   0.303   3.176  1.8229 -0.8146  3.7730
11741TIP3   OH256713   4.128   3.057  14.211  0.3973  0.3480 -0.5913
11741TIP3    H156714   4.097   3.126  14.153  1.8828  0.2643 -1.5306
11741TIP3    H256715   4.222   3.052  14.194  0.2498 -2.2466 -0.9101
11742TIP3   OH256716   5.870   2.471   6.132 -0.5159 -0.0028  0.2480
11742TIP3    H156717   5.828   2.540   6.183 -1.8680 -1.3573  1.0625
11742TIP3    H256718   5.837   2.389   6.170  2.0680 -1.1783  0.2310
11743TIP3   OH256719   1.072   6.151  15.606  0.4432  0.1151  0.1574
11743TIP3    H156720   0.990   6.117  15.642  0.0518 -0.0997 -0.9008
11743TIP3    H256721   1.127   6.073  15.597  0.6094  0.1960  0.4430
11744TIP3   OH256722   3.114   1.887  11.647  0.3381  0.0715  0.1318
11744TIP3    H156723   3.054   1.890  11.573 -1.2251  0.3632  1.3767
11744TIP3    H256724   3.186   1.945  11.621 -1.0665  1.6324 -0.4085
11745TIP3   OH256725   0.796   5.754   1.954 -0.4350 -0.5056  0.3626
11745TIP3    H156726   0.754   5.705   2.025 -0.2902 -0.9712  0.1316
11745TIP3    H256727   0.730   5.817   1.927 -1.7130 -2.3862 -1.1994
11746TIP3   OH256728   2.633   0.900  16.727 -0.0068  0.2173 -0.5239
11746TIP3    H156729   2.701   0.881  16.791  0.3591 -0.1839 -1.0289
11746TIP3    H256730   2.670   0.968  16.671 -0.5795  1.0660  0.0791
11747TIP3   OH256731   1.680   5.896   5.104 -0.0938  0.2439  0.6853
11747TIP3    H156732   1.634   5.830   5.052  1.2132  1.1759 -1.7927
11747TIP3    H256733   1.624   5.973   5.099  0.9896  0.9713 -1.2122
11748TIP3   OH256734   1.684   0.243   1.022 -0.0902 -0.2350  0.1331
11748TIP3    H156735   1.737   0.163   1.013 -0.0798 -0.2196  0.0529
11748TIP3    H256736   1.599   0.219   0.985  0.2218  0.0953 -0.8258
11749TIP3   OH256737   3.054   2.204  11.239 -0.4182 -0.2909 -0.7209
11749TIP3    H156738   3.134   2.161  11.209 -0.9310 -1.1352 -0.9350
11749TIP3    H256739   2.983   2.149  11.204 -1.0713 -0.1668  0.3588
11750TIP3   OH256740   5.137   2.579   0.427 -0.1084  0.2930 -0.2112
11750TIP3    H156741   5.087   2.519   0.373  0.6278 -0.2769 -0.2640
11750TIP3    H256742   5.217   2.595   0.379 -0.2111  1.1829 -0.1114
11751TIP3   OH256743   1.363   4.752   1.818  0.1264 -0.4047  0.5493
11751TIP3    H156744   1.426   4.823   1.809  1.2195 -1.1260  2.0035
11751TIP3    H256745   1.282   4.794   1.848  1.0516  0.1675  2.3836
11752TIP3   OH256746   0.260   5.323   3.561  0.1611 -0.0805  0.0058
11752TIP3    H156747   0.220   5.404   3.593  0.1127 -0.2421  0.3652
11752TIP3    H256748   0.327   5.351   3.499 -0.0814  0.2185 -0.1241
11753TIP3   OH256749   5.836   1.109   6.026  0.1239 -0.0545 -0.1132
11753TIP3    H156750   5.815   1.138   5.937 -1.7255  0.2314  0.3830
11753TIP3    H256751   5.784   1.165   6.083  1.1071 -0.3888  1.1556
11754TIP3   OH256752   0.548   1.707  13.337  0.1519  0.2539 -0.8467
11754TIP3    H156753   0.458   1.722  13.309 -0.1648 -0.8398 -0.4658
11754TIP3    H256754   0.574   1.790  13.378 -0.6723  0.5841 -0.9694
11755TIP3   OH256755   4.473   1.524   0.832 -0.1962  0.2420  0.2316
11755TIP3    H156756   4.413   1.592   0.862 -0.8476 -0.2796  0.1209
11755TIP3    H256757   4.517   1.494   0.911 -1.8012 -1.0268  0.6807
11756TIP3   OH256758   6.716   3.700  14.546  0.0748 -0.0480 -0.0469
11756TIP3    H156759   6.773   3.636  14.589  1.1800  0.9220 -0.0301
11756TIP3    H256760   6.747   3.785  14.577 -0.8645  0.5377 -0.6694
11757TIP3   OH256761   0.879   0.923  15.363 -0.6066  0.7156 -0.1807
11757TIP3    H156762   0.799   0.959  15.401 -0.0866  0.4236  1.2685
11757TIP3    H256763   0.946   0.936  15.431  0.8942  2.0940 -1.8282
11758TIP3   OH256764   3.869   3.433   5.404  0.4916  0.1543  0.2849
11758TIP3    H156765   3.842   3.345   5.431 -1.6464  0.3717 -0.9526
11758TIP3    H256766   3.910   3.471   5.482  0.6603 -1.6062  1.1014
11759TIP3   OH256767   3.443   4.521  16.252  0.1222 -0.0135  0.6005
11759TIP3    H156768   3.515   4.479  16.299  0.1370  0.2756  0.8366
11759TIP3    H256769   3.416   4.456  16.187  1.7506  0.5515 -0.6912
11760TIP3   OH256770   3.231   2.363  11.678  0.2499  0.0302 -0.0428
11760TIP3    H156771   3.223   2.396  11.588 -1.6298 -0.4536 -0.0822
11760TIP3    H256772   3.227   2.441  11.733  1.6779  0.3546 -0.3575
11761TIP3   OH256773   0.896   6.471   3.535  0.3657 -0.3625 -0.0938
11761TIP3    H156774   0.843   6.425   3.470  1.0826 -1.0939 -0.1768
11761TIP3    H256775   0.842   6.547   3.561 -0.0243 -0.1820 -1.3624
11762TIP3   OH256776   2.974   1.737  10.944 -0.0143 -0.2434 -0.5251
11762TIP3    H156777   2.879   1.745  10.939 -0.0040 -0.1444 -0.5683
11762TIP3    H256778   2.993   1.650  10.908  0.0048  0.1818 -1.5682
11763TIP3   OH256779   2.509   4.166  15.686 -0.4323 -0.4071 -0.3440
11763TIP3    H156780   2.472   4.078  15.686 -0.2536 -0.4893  0.4456
11763TIP3    H256781   2.604   4.152  15.692 -0.4676 -0.1567  1.1058
11764TIP3   OH256782   1.340   0.579  13.797 -0.2642  0.0412  0.2115
11764TIP3    H156783   1.337   0.639  13.871  0.0199 -1.9954  1.9516
11764TIP3    H256784   1.251   0.578  13.763 -0.7967 -0.1789  1.5465
11765TIP3   OH256785   3.470   0.712   2.606  0.4119  0.7854  0.8983
11765TIP3    H156786   3.421   0.635   2.636  0.1393  0.7209  0.3038
11765TIP3    H256787   3.409   0.785   2.616  0.3415  0.7735  0.5639
11766TIP3   OH256788   2.252   2.847  15.340  0.6263 -0.0596 -0.0546
11766TIP3    H156789   2.208   2.828  15.423  1.1540 -0.0138  0.2374
11766TIP3    H256790   2.229   2.774  15.284 -0.4184  0.3192 -0.1402
11767TIP3   OH256791   2.883   5.989   5.086 -0.2902  0.0311 -0.6664
11767TIP3    H156792   2.968   5.947   5.090 -0.4357 -0.1875  0.6030
11767TIP3    H256793   2.833   5.937   5.023  0.6184  0.3965 -1.7139
11768TIP3   OH256794   2.318   6.701  16.980  0.3413  0.1215  0.5450
11768TIP3    H156795   2.225   6.722  16.984 -0.2558 -1.4426 -2.3358
11768TIP3    H256796   2.356   6.770  16.926  0.7875  0.5047  1.3347
11769TIP3   OH256797   2.142   0.555  12.970 -0.6204  0.6644  0.1436
11769TIP3    H156798   2.117   0.479  12.918 -0.3869  1.2564 -0.8858
11769TIP3    H256799   2.203   0.603  12.913  1.2553  0.3206  1.7493
11770TIP3   OH256800   6.171   5.450  11.035  0.1330 -0.1427  0.1132
11770TIP3    H156801   6.113   5.420  10.965  1.0291  1.2011 -1.2717
11770TIP3    H256802   6.256   5.463  10.992  0.2773  2.3826  1.0082
11771TIP3   OH256803   0.680   3.288   0.492  0.2155 -0.1195 -0.5186
11771TIP3    H156804   0.682   3.195   0.471  0.1240  0.1134 -1.6006
11771TIP3    H256805   0.771   3.314   0.496  0.3842 -0.7891  2.4293
11772TIP3   OH256806   2.512   4.988   1.438 -0.4284 -0.2384  0.1271
11772TIP3    H156807   2.435   4.936   1.414 -1.1892  0.4726  0.9518
11772TIP3    H256808   2.480   5.079   1.439  1.2185  0.4625 -2.7295
11773TIP3   OH256809   5.155   0.279   2.258  0.2691 -0.4085  0.3765
11773TIP3    H156810   5.171   0.371   2.238  0.1049 -0.3604  0.4631
11773TIP3    H256811   5.151   0.236   2.172  0.7822 -0.4096  0.3527
11774TIP3   OH256812   5.751   4.449  12.860  0.0564 -0.1822  0.1273
11774TIP3    H156813   5.691   4.513  12.823  2.0646  2.2566  0.7978
11774TIP3    H256814   5.803   4.419  12.785  1.1273  1.3475  0.2144
11775TIP3   OH256815   0.462   4.016  16.174 -0.3442  0.3353 -0.1755
11775TIP3    H156816   0.479   4.057  16.259  1.4862  1.3353 -0.9721
11775TIP3    H256817   0.413   3.936  16.195  1.2892 -0.1915  1.9408
11776TIP3   OH256818   5.600   6.669  16.555  0.0420  0.3401  0.5757
11776TIP3    H156819   5.590   6.574  16.551 -1.2504  0.4936 -1.9854
11776TIP3    H256820   5.513   6.703  16.535  0.8144  2.0426 -0.0377
11777TIP3   OH256821   3.027   4.392  12.191 -0.3889 -0.0387  0.6399
11777TIP3    H156822   2.975   4.472  12.201 -2.2947 -0.9076 -1.3343
11777TIP3    H256823   3.009   4.342  12.271  0.7338  1.3750  1.8416
11778TIP3   OH256824   0.497   2.565  12.361  0.2732 -0.1789  0.6114
11778TIP3    H156825   0.522   2.608  12.444 -1.2943  0.8571  0.5808
11778TIP3    H256826   0.463   2.636  12.307  2.1581 -0.6552 -1.3491
11779TIP3   OH256827   6.116   3.794  11.989 -0.2884 -0.2031  0.3035
11779TIP3    H156828   6.021   3.791  12.000 -0.4498  0.5208 -0.7095
11779TIP3    H256829   6.133   3.735  11.915  0.1525 -0.9541  0.9906
11780TIP3   OH256830   3.169   1.937   3.728 -0.4004  0.1770 -0.7096
11780TIP3    H156831   3.256   1.972   3.750 -0.0740  0.0242 -1.7079
11780TIP3    H256832   3.131   1.913   3.813  0.2976  0.7846 -0.2101
11781TIP3   OH256833   3.271   1.722  15.874 -0.0681  0.2980 -0.2247
11781TIP3    H156834   3.193   1.762  15.912  0.6802  1.8459 -0.2710
11781TIP3    H256835   3.236   1.657  15.812 -1.2961 -0.6896  1.4083
11782TIP3   OH256836   2.100   4.279  11.751 -0.2143  0.7023  0.5929
11782TIP3    H156837   2.129   4.348  11.692 -0.9244  0.7032  0.2419
11782TIP3    H256838   2.129   4.197  11.710  0.1063  0.7549  0.7126
11783TIP3   OH256839   6.327   0.331  11.218  0.3640  0.3696 -0.2857
11783TIP3    H156840   6.379   0.332  11.299  0.9423 -0.9327 -0.6206
11783TIP3    H256841   6.391   0.338  11.148 -0.2445  3.4062 -0.6664
11784TIP3   OH256842   1.589   2.843   3.212  0.2378  0.1556  0.4204
11784TIP3    H156843   1.660   2.795   3.169 -0.5400  0.1207 -0.8800
11784TIP3    H256844   1.618   2.935   3.210 -0.0931  0.2536 -0.8732
11785TIP3   OH256845   6.407   1.625   4.892  0.3518  0.2740 -0.1877
11785TIP3    H156846   6.474   1.557   4.904 -0.5510 -0.6022  0.0036
11785TIP3    H256847   6.455   1.707   4.896  1.2335 -0.2787  1.3295
11786TIP3   OH256848   4.389   2.046   1.577 -0.3958 -0.6207  0.3345
11786TIP3    H156849   4.477   2.064   1.543 -0.2132  0.0349  1.1252
11786TIP3    H256850   4.399   2.048   1.672 -1.5230  0.9683  0.4692
11787TIP3   OH256851   1.650   4.891   4.184 -0.8490 -0.0836 -0.9851
11787TIP3    H156852   1.703   4.929   4.113  0.4912 -0.2121 -0.0876
11787TIP3    H256853   1.578   4.848   4.139 -0.4760  0.5270 -2.2304
11788TIP3   OH256854   5.531   1.340  16.451 -0.6093  0.2962  0.0747
11788TIP3    H156855   5.518   1.322  16.358  0.0936 -0.3068  0.0898
11788TIP3    H256856   5.451   1.387  16.477 -2.3629 -2.3841 -0.0661
11789TIP3   OH256857   3.382   5.135  11.190  0.3733 -0.1899  0.7168
11789TIP3    H156858   3.405   5.056  11.141 -1.4555  0.3284 -1.1357
11789TIP3    H256859   3.415   5.207  11.136  0.3682  0.3716  1.4447
11790TIP3   OH256860   5.013   1.206  13.471 -0.2314 -0.0230  0.3614
11790TIP3    H156861   4.970   1.177  13.551 -0.8098 -1.0026 -0.2858
11790TIP3    H256862   4.942   1.223  13.409  0.2301  0.1131 -0.1432
11791TIP3   OH256863   3.676   0.433   2.655  0.7869  0.1900  0.0213
11791TIP3    H156864   3.604   0.465   2.709  1.0926  1.3103 -0.2143
11791TIP3    H256865   3.725   0.375   2.713  1.2968  1.6252  1.0762
11792TIP3   OH256866   2.152   2.002   0.737 -0.1254 -0.2268  0.5264
11792TIP3    H156867   2.093   2.063   0.692 -0.4659 -0.7666  0.2259
11792TIP3    H256868   2.231   2.053   0.755  1.0504 -0.5544 -2.8711
11793TIP3   OH256869   6.559   5.377  12.422 -0.3445 -0.0932 -0.3657
11793TIP3    H156870   6.472   5.412  12.408  0.3283  1.4819 -0.8857
11793TIP3    H256871   6.611   5.453  12.450  0.9786 -0.8728 -0.6129
11794TIP3   OH256872   2.431   4.107   5.512  0.0798 -0.2200 -0.5277
11794TIP3    H156873   2.447   4.024   5.468 -0.1478 -0.6784  0.2256
11794TIP3    H256874   2.517   4.132   5.547  0.1171 -0.2120 -0.6241
11795TIP3   OH256875   3.361   6.429   4.734  0.3091  0.4769  0.1166
11795TIP3    H156876   3.364   6.357   4.670 -0.9669  0.6147 -0.1374
11795TIP3    H256877   3.364   6.386   4.819  1.9758  0.2856 -0.0047
11796TIP3   OH256878   1.324   3.192   6.182  0.0788  0.1579  0.0633
11796TIP3    H156879   1.403   3.142   6.202  0.4931  0.3215 -1.1039
11796TIP3    H256880   1.254   3.126   6.180  0.6570 -0.4590 -1.6955
11797TIP3   OH256881   3.022   4.642  13.443 -0.3512 -0.2292 -0.4603
11797TIP3    H156882   3.040   4.731  13.412 -2.1056  0.1594 -0.5015
11797TIP3    H256883   3.068   4.585  13.382 -0.9600  0.6168 -1.7619
11798TIP3   OH256884   6.222   4.272  13.124 -0.3654 -0.4572 -0.1049
11798TIP3    H156885   6.178   4.337  13.069 -1.1103 -2.2325 -1.6966
11798TIP3    H256886   6.224   4.313  13.211 -2.9220  0.7493 -0.4985
11799TIP3   OH256887   2.646   1.561   2.988  0.1142 -0.5760 -0.0761
11799TIP3    H156888   2.575   1.509   3.026  0.0248  0.4342  1.2359
11799TIP3    H256889   2.712   1.566   3.057  0.4976  0.3165 -0.4892
11800TIP3   OH256890   4.876   1.418  12.804 -0.1538  0.3417  0.3137
11800TIP3    H156891   4.785   1.431  12.832  0.6016  0.8718  2.7874
11800TIP3    H256892   4.898   1.331  12.837 -0.1514 -0.4059 -1.5548
11801TIP3   OH256893   5.256   5.009   4.798 -0.8206 -0.1095  0.2120
11801TIP3    H156894   5.264   5.092   4.750 -1.1210  0.3707  0.9705
11801TIP3    H256895   5.345   4.976   4.804 -0.6069  0.4909  0.4685
11802TIP3   OH256896   1.845   3.647   4.466  0.1706  0.1486  0.2826
11802TIP3    H156897   1.820   3.737   4.488 -2.3382 -0.0083 -1.5530
11802TIP3    H256898   1.804   3.595   4.535 -0.1678  0.2690  0.1757
11803TIP3   OH256899   6.348   6.526   2.545  0.3966 -0.9461 -0.2681
11803TIP3    H156900   6.355   6.615   2.579 -3.3023 -0.6885  0.1917
11803TIP3    H256901   6.263   6.524   2.501  0.7932 -4.0171 -1.0980
11804TIP3   OH256902   0.142   5.984  16.908  0.3388 -0.3116  0.0813
11804TIP3    H156903   0.160   5.973  17.001 -0.6758 -0.6530  0.2532
11804TIP3    H256904   0.181   5.907  16.866 -0.1135 -0.7037  0.3633
11805TIP3   OH256905   5.922   0.552  16.186  0.1951  0.3443  0.4388
11805TIP3    H156906   6.014   0.525  16.182  0.2316  0.3533  1.1114
11805TIP3    H256907   5.920   0.619  16.254 -0.1056  1.2185 -0.4187
11806TIP3   OH256908   5.277   3.316   5.999  0.2201  0.6829 -0.1944
11806TIP3    H156909   5.279   3.225   6.028  1.2093  0.5095 -0.7667
11806TIP3    H256910   5.246   3.312   5.909  1.6419  0.7547 -0.7113
11807TIP3   OH256911   4.156   0.053  10.882  0.0542 -0.1521 -0.2443
11807TIP3    H156912   4.175  -0.030  10.838 -1.3696 -0.1343 -0.9288
11807TIP3    H256913   4.214   0.116  10.840 -0.0010 -0.4881 -0.8325
11808TIP3   OH256914   3.976   0.515   3.101  0.2137  0.6847 -0.0445
11808TIP3    H156915   3.882   0.499   3.092  0.2487  0.7332 -0.5289
11808TIP3    H256916   4.003   0.461   3.175  0.2440 -1.1290 -1.3189
11809TIP3   OH256917   2.390   1.578  11.372 -0.9742 -0.1479  0.2274
11809TIP3    H156918   2.424   1.645  11.432 -0.0139 -0.7048  0.3326
11809TIP3    H256919   2.441   1.590  11.292 -0.5502 -0.9703  0.3655
11810TIP3   OH256920   4.794   1.512  16.798 -0.0914 -0.7823  0.1312
11810TIP3    H156921   4.775   1.606  16.795  1.1244 -0.4869  0.9009
11810TIP3    H256922   4.806   1.494  16.891 -0.8159 -1.8266  0.0397
11811TIP3   OH256923   6.284   3.164   0.244  0.4163 -0.5715 -0.4268
11811TIP3    H156924   6.373   3.193   0.224  0.2562 -0.4838 -1.0375
11811TIP3    H256925   6.244   3.150   0.158 -0.4243  0.1840 -0.1759
11812TIP3   OH256926   5.143   3.175   1.680  0.3044 -0.2628  0.8336
11812TIP3    H156927   5.056   3.135   1.684  0.1372  0.1082  0.9139
11812TIP3    H256928   5.172   3.162   1.590 -0.7462  1.5285  0.2004
11813TIP3   OH256929   4.061   1.633  14.158 -0.4631 -0.1658  0.1181
11813TIP3    H156930   4.074   1.607  14.249 -0.1486  0.2204  0.1847
11813TIP3    H256931   4.003   1.709  14.163  0.5983  0.6649  0.0858
11814TIP3   OH256932   5.562   0.369   1.907 -0.0391 -0.7751  0.4016
11814TIP3    H156933   5.589   0.278   1.890  1.2199 -0.2618 -0.5439
11814TIP3    H256934   5.578   0.382   2.000  2.5571 -0.7016  0.0259
11815TIP3   OH256935   3.577   0.788   4.283 -0.3525  0.1794  0.1730
11815TIP3    H156936   3.575   0.769   4.376  2.3705 -0.8024  0.0985
11815TIP3    H256937   3.484   0.797   4.259 -1.1860 -0.7817  2.6800
11816TIP3   OH256938   0.555   5.248   3.860 -0.2003 -0.0262  0.1039
11816TIP3    H156939   0.607   5.292   3.793  3.2610 -0.9190  1.9724
11816TIP3    H256940   0.525   5.167   3.817  0.9270 -0.0294 -0.7357
11817TIP3   OH256941   5.510   2.860  13.064 -0.6168 -0.3059  0.2609
11817TIP3    H156942   5.440   2.883  13.002 -0.8744  0.9010  0.9621
11817TIP3    H256943   5.573   2.810  13.012 -1.1225  0.1468 -0.8237
11818TIP3   OH256944   2.792   1.599  13.048  0.5131  0.4834  0.3349
11818TIP3    H156945   2.725   1.617  12.982 -0.3838 -1.3051  0.7039
11818TIP3    H256946   2.843   1.527  13.011  0.0762 -0.4594  1.5118
11819TIP3   OH256947   3.484   0.656  12.592  0.4638  0.0141  0.2007
11819TIP3    H156948   3.508   0.739  12.551  0.0009  0.1134  0.1191
11819TIP3    H256949   3.492   0.673  12.686 -0.7702  0.5286  0.2365
11820TIP3   OH256950   5.072   4.310  12.106 -0.1806 -0.6533 -0.6429
11820TIP3    H156951   4.991   4.300  12.056  0.3732 -0.7188 -1.5519
11820TIP3    H256952   5.065   4.245  12.176 -1.4821  0.2254  0.0895
11821TIP3   OH256953   6.453   3.499  16.638  0.1404  0.1406  0.1709
11821TIP3    H156954   6.407   3.577  16.667 -0.7777  0.0133 -0.8598
11821TIP3    H256955   6.523   3.487  16.701 -0.7870  0.7770  1.3588
11822TIP3   OH256956   3.281   5.205   3.957  0.0218 -0.0425  0.3066
11822TIP3    H156957   3.308   5.196   4.048 -1.0927  0.1756  0.6649
11822TIP3    H256958   3.357   5.175   3.907  0.0838 -1.6679  1.3213
11823TIP3   OH256959   1.477   2.308  11.055  0.0635 -0.1471 -0.1448
11823TIP3    H156960   1.499   2.336  11.144 -1.1647  0.1615  0.0771
11823TIP3    H256961   1.489   2.387  11.002  0.3532 -0.2160 -0.1869
11824TIP3   OH256962   1.950   3.075   4.353 -0.1669 -0.2284  0.1721
11824TIP3    H156963   2.019   3.048   4.413 -0.4087 -0.2901  0.4245
11824TIP3    H256964   1.954   3.171   4.353  0.3139 -0.2387 -0.2844
11825TIP3   OH256965   5.612   5.926   4.206 -0.5543 -0.0634 -0.2157
11825TIP3    H156966   5.527   5.952   4.241 -0.4755  1.2776 -0.9698
11825TIP3    H256967   5.620   5.975   4.124 -0.1045 -1.9927 -1.4019
11826TIP3   OH256968   0.741   4.377  14.029 -0.1229 -0.4345 -0.0293
11826TIP3    H156969   0.835   4.378  14.049 -0.1087 -0.4505 -0.0953
11826TIP3    H256970   0.701   4.340  14.108 -0.1533  0.3338  0.3201
11827TIP3   OH256971   2.078   1.178  11.464  0.6987 -0.0869  0.3747
11827TIP3    H156972   2.081   1.099  11.518  0.4926 -1.1227 -1.0683
11827TIP3    H256973   2.169   1.209  11.463  0.7089 -0.0420  1.2937
11828TIP3   OH256974   1.180   2.839  12.286  0.5330  0.0246  0.3098
11828TIP3    H156975   1.142   2.823  12.372  0.5317  0.5110  0.4021
11828TIP3    H256976   1.194   2.934  12.283 -0.1975  0.1241 -0.5231
11829TIP3   OH256977   1.230   1.594  15.206 -0.4191  0.0458  0.0392
11829TIP3    H156978   1.219   1.665  15.143  0.8779 -0.5670 -0.9491
11829TIP3    H256979   1.153   1.539  15.194 -1.0940  0.9079  0.3304
11830TIP3   OH256980   0.773   2.510   3.288  0.3661  0.4451  0.0605
11830TIP3    H156981   0.802   2.493   3.378  0.0843  0.3677  0.1378
11830TIP3    H256982   0.747   2.424   3.255 -0.9860  0.7047  0.4239
11831TIP3   OH256983   0.958   3.835  11.511 -0.4643 -0.0800  0.1004
11831TIP3    H156984   0.951   3.804  11.602  2.8675  0.6258  0.7593
11831TIP3    H256985   1.044   3.878  11.508 -1.1200  1.2650 -3.0352
11832TIP3   OH256986   5.257   5.678   2.532 -0.4727 -0.1574  0.2504
11832TIP3    H156987   5.172   5.719   2.548  0.5284  2.2261 -0.1758
11832TIP3    H256988   5.289   5.654   2.619  0.1276  2.6408  0.8916
11833TIP3   OH256989   3.572   4.870  14.976  0.5070 -0.3894  0.1807
11833TIP3    H156990   3.593   4.777  14.982 -1.2230 -0.9189 -1.0392
11833TIP3    H256991   3.573   4.901  15.067  1.9150 -1.3768  0.5279
11834TIP3   OH256992   0.753   0.105  10.606 -0.6938  0.5759  0.1809
11834TIP3    H156993   0.691   0.047  10.561  1.3566 -1.7451  0.1777
11834TIP3    H256994   0.735   0.091  10.699 -1.2847  1.2562  0.1861
11835TIP3   OH256995   5.904   2.710  13.030  0.6287 -0.0729  0.0273
11835TIP3    H156996   5.942   2.690  13.115  0.6984 -1.7263 -0.3550
11835TIP3    H256997   5.809   2.704  13.043  0.6147  0.3137  0.1226
11836TIP3   OH256998   0.216   0.785   0.951 -0.0167 -0.1087 -0.2686
11836TIP3    H156999   0.241   0.763   0.861 -2.4865  0.5267 -1.1913
11836TIP3    H257000   0.154   0.717   0.976 -1.8068  1.4403 -0.2910
11837TIP3   OH257001   6.586   4.288   4.973 -0.3063 -0.2168 -0.1014
11837TIP3    H157002   6.563   4.332   5.054  3.0722 -1.2430  1.6354
11837TIP3    H257003   6.547   4.201   4.981  2.5339 -1.4704  2.1484
11838TIP3   OH257004   0.531   0.445   2.677 -0.2918 -0.3453 -0.1707
11838TIP3    H157005   0.558   0.422   2.766  0.9537  0.5290 -0.3130
11838TIP3    H257006   0.567   0.376   2.622  2.1764  1.0362 -0.4163
11839TIP3   OH257007   0.849   6.127  14.715  0.3657  0.5055  0.5349
11839TIP3    H157008   0.769   6.125  14.768  0.7482 -0.2544  1.0876
11839TIP3    H257009   0.847   6.213  14.673 -0.6607  0.5616  0.6673
11840TIP3   OH257010   5.190   0.409  12.449 -0.4454  0.1921  0.2112
11840TIP3    H157011   5.230   0.324  12.470 -2.5718 -1.0023 -0.2974
11840TIP3    H257012   5.220   0.429  12.361 -0.1709 -0.1704  0.2214
11841TIP3   OH257013   6.414   0.753   3.183  0.0793  0.3063 -0.3378
11841TIP3    H157014   6.380   0.675   3.138 -0.4806  0.0807  0.4501
11841TIP3    H257015   6.465   0.718   3.256 -0.5485  0.6765  0.2863
11842TIP3   OH257016   2.174   1.355   2.262 -0.3226  0.8212  0.9629
11842TIP3    H157017   2.195   1.448   2.277 -1.7525  1.0568  1.6642
11842TIP3    H257018   2.167   1.348   2.167 -0.7378  1.5633  0.9268
11843TIP3   OH257019   3.264   2.400  15.830  0.4275 -0.2877  0.4416
11843TIP3    H157020   3.322   2.376  15.901 -0.5307 -2.0322  0.6862
11843TIP3    H257021   3.278   2.333  15.763 -0.0623  0.2346 -0.2095
11844TIP3   OH257022   4.059   4.000  15.429 -0.4280 -0.0221  0.1434
11844TIP3    H157023   4.118   4.034  15.495  0.0093 -1.0397  0.3045
11844TIP3    H257024   4.002   3.939  15.477 -0.3410 -0.4944 -0.3359
11845TIP3   OH257025   0.533   5.751   1.592 -0.0717  0.3588  0.6907
11845TIP3    H157026   0.447   5.710   1.590  0.1292 -0.0706  0.7611
11845TIP3    H257027   0.536   5.806   1.514  0.6336 -1.7484 -0.8344
11846TIP3   OH257028   1.681   1.378   2.990 -0.3835  0.5012  0.2247
11846TIP3    H157029   1.681   1.312   2.920  0.3644  1.0746 -0.3436
11846TIP3    H257030   1.622   1.446   2.959  1.6366  1.8440 -0.9880
11847TIP3   OH257031   6.473   0.626   0.931  0.1344 -0.4619 -0.2524
11847TIP3    H157032   6.442   0.577   1.007 -0.5833 -0.8571 -0.7825
11847TIP3    H257033   6.501   0.558   0.869  0.0195 -0.1748 -0.6224
11848TIP3   OH257034   1.410   5.307   5.094  0.5346 -1.1090 -0.1110
11848TIP3    H157035   1.502   5.327   5.077  0.6136 -1.2938  0.0955
11848TIP3    H257036   1.412   5.243   5.165  0.2744 -1.5696 -0.5106
11849TIP3   OH257037   6.797   1.487   3.300 -0.0004  0.4460 -0.3329
11849TIP3    H157038   6.793   1.396   3.331 -0.9160  0.1113 -1.3639
11849TIP3    H257039   6.719   1.528   3.336 -0.6167  0.2839 -1.4463
11850TIP3   OH257040   2.862   0.671  12.495  0.4152  0.0798  0.6087
11850TIP3    H157041   2.826   0.713  12.574  0.7837 -0.4440  1.0627
11850TIP3    H257042   2.784   0.642  12.447  0.1838  0.4232  0.7674
11851TIP3   OH257043   5.127   0.223   4.339  0.4746 -0.0522 -0.0190
11851TIP3    H157044   5.143   0.134   4.373 -0.7762 -0.2173  0.1841
11851TIP3    H257045   5.200   0.274   4.373  1.1455 -0.9743 -0.0259
11852TIP3   OH257046   6.695   4.533  16.712 -0.1843  0.2757 -0.2615
11852TIP3    H157047   6.736   4.488  16.786  0.7225 -0.2821 -1.0759
11852TIP3    H257048   6.653   4.610  16.751  1.3127  0.6729  0.6665
11853TIP3   OH257049   2.409   6.249  16.018 -0.1425 -0.2410 -0.3220
11853TIP3    H157050   2.429   6.306  16.092 -0.3524  0.2572 -0.6503
11853TIP3    H257051   2.324   6.211  16.040  0.8349 -1.9645  0.8300
11854TIP3   OH257052   5.686   1.880  16.406  0.0835 -0.2335 -0.1964
11854TIP3    H157053   5.706   1.889  16.499 -2.5610 -1.4549  0.5735
11854TIP3    H257054   5.593   1.900  16.400  0.3883  0.7435 -2.7755
11855TIP3   OH257055   0.441   2.423   5.493 -0.0706 -0.0007  0.1779
11855TIP3    H157056   0.426   2.515   5.469 -1.5177 -0.8060 -2.3745
11855TIP3    H257057   0.519   2.398   5.443  0.5389 -0.0920  1.1549
11856TIP3   OH257058   0.664   1.598   3.015 -0.5523  0.1573 -0.7908
11856TIP3    H157059   0.622   1.533   3.072 -0.5851  0.9049  0.0684
11856TIP3    H257060   0.620   1.680   3.037  0.7825  0.8166 -0.4610
11857TIP3   OH257061   5.328   3.469  14.108 -0.4799  0.4704 -0.2463
11857TIP3    H157062   5.305   3.562  14.110  1.2289  0.9295  0.4447
11857TIP3    H257063   5.308   3.441  14.019 -4.3451  0.5252  0.4142
11858TIP3   OH257064   3.734   1.411  13.982  0.0009 -0.4039  0.3422
11858TIP3    H157065   3.774   1.489  14.022 -0.0748 -1.4094  2.5589
11858TIP3    H257066   3.802   1.344  13.987 -0.8282 -1.2176  1.0514
11859TIP3   OH257067   3.147   6.367   2.715  0.4919 -0.0784 -0.0867
11859TIP3    H157068   3.198   6.445   2.693 -0.5163 -0.1163 -3.0516
11859TIP3    H257069   3.196   6.325   2.785  2.7608  1.5911 -0.5635
11860TIP3   OH257070   0.227   5.394   3.967 -0.3638 -0.2320  0.2494
11860TIP3    H157071   0.265   5.307   3.950 -0.0693  0.2939 -2.2124
11860TIP3    H257072   0.179   5.383   4.049  2.5950 -1.7284  1.9401
11861TIP3   OH257073   5.986   6.811   1.327 -0.2247 -0.2701  0.1912
11861TIP3    H157074   6.075   6.836   1.302 -0.7023 -0.8637 -2.3850
11861TIP3    H257075   5.961   6.744   1.264 -3.2274  1.3606 -0.5454
11862TIP3   OH257076   4.028   6.146  12.884  0.6743 -0.1650 -0.1671
11862TIP3    H157077   4.096   6.081  12.865  1.7898  0.8805  0.1428
11862TIP3    H257078   3.946   6.100  12.867  1.4214 -1.7231  0.2154
11863TIP3   OH257079   1.219   0.001  13.029 -0.1578 -0.0776  0.2768
11863TIP3    H157080   1.139  -0.024  13.075 -0.4296  1.0138  0.3997
11863TIP3    H257081   1.219  -0.055  12.951 -1.2561  0.1886  0.0637
11864TIP3   OH257082   6.034   1.444  16.344 -0.4134  0.1673  0.2514
11864TIP3    H157083   5.985   1.467  16.266 -0.9938 -0.0033  0.5606
11864TIP3    H257084   5.970   1.451  16.416 -0.6274 -2.3216  0.3779
11865TIP3   OH257085   5.947   1.170   3.062 -0.5897 -0.2556  0.5205
11865TIP3    H157086   5.954   1.143   2.970  1.2579 -0.2985  0.6234
11865TIP3    H257087   5.968   1.090   3.111  0.0614  0.1606  0.9308
11866TIP3   OH257088   2.661   4.730   6.247 -0.0691 -0.1918  0.3068
11866TIP3    H157089   2.622   4.657   6.294 -1.5584  0.1052 -0.4228
11866TIP3    H257090   2.617   4.732   6.162 -0.0218  1.4998  0.2762
11867TIP3   OH257091   0.275   3.119   1.027  0.1531  0.4719  0.2880
11867TIP3    H157092   0.351   3.158   0.985  0.3923 -2.6317 -2.6922
11867TIP3    H257093   0.308   3.083   1.109  1.0511  2.0105  0.6299
11868TIP3   OH257094   5.358   1.120   1.872 -0.7741 -0.8499  0.8597
11868TIP3    H157095   5.307   1.053   1.826 -0.0484  0.2991 -1.7926
11868TIP3    H257096   5.322   1.203   1.840  0.1863  0.0070  1.9464
11869TIP3   OH257097   0.967   2.187   5.222  0.2863  0.1730  0.3665
11869TIP3    H157098   0.934   2.273   5.198 -2.2829 -0.1826  2.2325
11869TIP3    H257099   0.999   2.198   5.312  1.4207 -0.4990  0.0675
11870TIP3   OH257100   5.984   5.416  13.656  0.3625  0.4012 -0.1199
11870TIP3    H157101   6.041   5.393  13.729  2.2555  1.2929 -1.2423
11870TIP3    H257102   5.977   5.511  13.661  0.3534  0.4493 -0.9706
11871TIP3   OH257103   3.876   6.636  11.485 -0.2026  0.0133  0.3202
11871TIP3    H157104   3.782   6.631  11.507  0.1322 -0.8167  1.7347
11871TIP3    H257105   3.882   6.597  11.398 -1.5063  2.6769 -1.0920
11872TIP3   OH257106   0.842   0.104  17.141  0.5409  0.1387  0.3945
11872TIP3    H157107   0.844   0.135  17.050 -0.6793  0.4559  0.4581
11872TIP3    H257108   0.901   0.029  17.142  0.4328  0.0271 -0.7056
11873TIP3   OH257109   2.456   2.576   4.785  0.0148 -0.0916  0.0923
11873TIP3    H157110   2.431   2.494   4.829 -1.2574 -0.5016 -1.3181
11873TIP3    H257111   2.375   2.627   4.782  0.3855  0.4707 -0.6135
11874TIP3   OH257112   2.042   2.103  10.970 -0.0161  0.1799  0.0312
11874TIP3    H157113   2.111   2.068  10.913 -1.9741 -0.6741 -1.9414
11874TIP3    H257114   2.086   2.119  11.054  2.6269 -0.0360 -1.2179
11875TIP3   OH257115   2.032   1.002  11.893  0.4042  0.8008  0.1109
11875TIP3    H157116   2.017   0.926  11.949 -1.4755  0.1314 -1.1853
11875TIP3    H257117   2.093   1.058  11.942  0.7923 -0.9091  1.6619
11876TIP3   OH257118   1.594   2.149   1.008  0.7259 -0.2369 -0.4522
11876TIP3    H157119   1.628   2.239   1.013 -0.8320  0.6540 -3.4412
11876TIP3    H257120   1.671   2.093   1.008  1.7165  0.9279  2.5690
11877TIP3   OH257121   1.210   0.694   3.082 -0.4213  0.1235 -0.0097
11877TIP3    H157122   1.257   0.743   3.014 -0.1218 -0.1249  0.0156
11877TIP3    H257123   1.139   0.650   3.035  0.5815 -1.1411 -0.4228
11878TIP3   OH257124   2.309   3.288  12.309  0.8831  0.3448  0.2642
11878TIP3    H157125   2.257   3.240  12.373 -1.0677  0.9623 -0.7851
11878TIP3    H257126   2.276   3.259  12.224  0.7708  2.3118 -0.4133
11879TIP3   OH257127   4.323   4.437   3.538 -0.3477  0.3927 -0.5360
11879TIP3    H157128   4.385   4.477   3.599 -2.4458  3.1211  0.0394
11879TIP3    H257129   4.361   4.453   3.452  1.5072 -1.3861 -0.1086
11880TIP3   OH257130   3.577   1.818   2.177  0.1392  0.1381  0.0357
11880TIP3    H157131   3.583   1.904   2.134 -1.1798  1.2631  1.9428
11880TIP3    H257132   3.665   1.802   2.210  0.4173  0.7454 -0.3856
11881TIP3   OH257133   3.291   4.900   5.637 -0.0556  0.4065 -0.5500
11881TIP3    H157134   3.265   4.813   5.606  3.3680 -1.0646  0.1828
11881TIP3    H257135   3.275   4.897   5.732 -0.0838  0.6366 -0.5473
11882TIP3   OH257136   6.028   1.269  13.931  0.1657  0.4239 -0.1363
11882TIP3    H157137   5.992   1.357  13.914  2.0453  1.7683  2.1972
11882TIP3    H257138   6.123   1.282  13.925  0.4761 -2.1444 -2.4591
11883TIP3   OH257139   1.602   3.892  13.862  0.4170  0.0548  0.3356
11883TIP3    H157140   1.689   3.927  13.846  0.6301 -0.0457  1.2601
11883TIP3    H257141   1.605   3.804  13.825  1.3663 -0.7114  2.1104
11884TIP3   OH257142   6.191   6.447  11.718  0.5145 -0.0815  0.1012
11884TIP3    H157143   6.215   6.444  11.811  0.2562  1.0556  0.2147
11884TIP3    H257144   6.097   6.466  11.718  0.2060 -1.4324 -0.3905
11885TIP3   OH257145   6.526   0.266  14.098 -0.8055 -0.0500 -0.3340
11885TIP3    H157146   6.438   0.248  14.132 -0.2102 -2.6827  0.0061
11885TIP3    H257147   6.555   0.183  14.061  1.2180  0.9924 -1.2458
11886TIP3   OH257148   4.468   0.936   2.800 -0.3081 -0.0192  0.0284
11886TIP3    H157149   4.517   1.018   2.804 -1.5500  0.7013  1.0976
11886TIP3    H257150   4.453   0.922   2.706  1.6697 -0.1386 -0.3158
11887TIP3   OH257151   5.382   1.246  15.981 -0.4848  0.4357  0.3950
11887TIP3    H157152   5.296   1.218  16.012 -0.7282 -0.8116 -1.2813
11887TIP3    H257153   5.371   1.340  15.962 -0.9586  0.6881  1.7978
11888TIP3   OH257154   3.170   6.360   5.556 -0.3758 -0.2871  0.3065
11888TIP3    H157155   3.096   6.385   5.501 -0.3086 -1.0092 -0.1267
11888TIP3    H257156   3.246   6.395   5.511 -0.5562  2.0086  1.6594
11889TIP3   OH257157   6.165   2.416  11.180  0.9454  0.1768  0.1676
11889TIP3    H157158   6.202   2.492  11.134  0.5281  0.9504  1.0797
11889TIP3    H257159   6.088   2.392  11.128  0.3265  1.2108  0.5781
11890TIP3   OH257160   5.205   2.467  16.725 -0.1438  0.0671 -0.0582
11890TIP3    H157161   5.164   2.531  16.668  1.0769  1.8365  0.9725
11890TIP3    H257162   5.133   2.428  16.774 -0.7943  1.8692  0.4960
11891TIP3   OH257163   6.021   5.468  12.855 -0.0060  0.1019  0.1320
11891TIP3    H157164   6.077   5.405  12.809  2.0299  0.8606  1.4165
11891TIP3    H257165   5.993   5.529  12.788 -1.8635 -1.9700 -1.1235
11892TIP3   OH257166   2.765   4.794  12.395 -0.2656 -0.1708  0.4020
11892TIP3    H157167   2.792   4.865  12.453  0.1346 -0.5617  0.7014
11892TIP3    H257168   2.682   4.763  12.430 -0.5345  0.2692  0.1616
11893TIP3   OH257169   5.937   0.108  16.210  0.0225 -0.3877  0.3210
11893TIP3    H157170   6.016   0.063  16.181  0.2490  0.5938 -0.6492
11893TIP3    H257171   5.868   0.041  16.206  0.4696 -0.8119 -0.4624
11894TIP3   OH257172   2.615   2.926   3.904  0.6481 -0.1896  0.0354
11894TIP3    H157173   2.691   2.881   3.867 -0.3262 -1.9763  0.1011
11894TIP3    H257174   2.550   2.925   3.833  0.7347  1.6047 -0.1329
11895TIP3   OH257175   5.916   3.358  13.307 -0.2447 -0.2180 -0.1102
11895TIP3    H157176   5.982   3.360  13.376 -0.9678  3.7606  0.7002
11895TIP3    H257177   5.966   3.370  13.226  0.2287  1.0917  0.3441
11896TIP3   OH257178   4.688   5.306  16.181 -0.1998  0.3138  0.0471
11896TIP3    H157179   4.738   5.374  16.226  0.4131  0.4764 -0.8603
11896TIP3    H257180   4.630   5.270  16.249  0.4759  0.7627  0.8821
11897TIP3   OH257181   4.176   4.669  12.893  0.0781  0.3400  0.2585
11897TIP3    H157182   4.201   4.756  12.924 -0.6946  0.6927 -0.0795
11897TIP3    H257183   4.096   4.684  12.842 -0.5119 -0.6780  0.8624
11898TIP3   OH257184   5.202   5.681  14.947  0.0314  0.3011  0.1831
11898TIP3    H157185   5.287   5.639  14.955 -0.2361 -0.4966 -0.9556
11898TIP3    H257186   5.194   5.703  14.854 -1.2073 -0.0837  0.1796
11899TIP3   OH257187   6.722   6.227   6.307 -0.1234  0.7540  0.1109
11899TIP3    H157188   6.770   6.309   6.316  2.7805 -0.4849 -2.2206
11899TIP3    H257189   6.784   6.160   6.336 -1.7168 -0.7634  0.1903
11900TIP3   OH257190   0.483   4.692   0.132 -0.4966  0.1403 -0.2791
11900TIP3    H157191   0.480   4.772   0.185  0.6678  0.4490 -0.6501
11900TIP3    H257192   0.407   4.642   0.160 -0.3161  0.6227  1.1614
11901TIP3   OH257193   4.899   6.432   6.385 -0.5750 -0.0046  0.4715
11901TIP3    H157194   4.843   6.385   6.324 -0.6052  0.9675 -0.2632
11901TIP3    H257195   4.879   6.524   6.371 -1.0947  0.2421  2.4349
11902TIP3   OH257196   1.379   2.238   3.328 -0.3995 -0.2933 -0.2171
11902TIP3    H157197   1.304   2.226   3.270  0.5262  0.5473 -1.6563
11902TIP3    H257198   1.408   2.328   3.310  0.0286 -0.0799  1.4326
11903TIP3   OH257199   5.543   5.545  12.900 -0.3667 -0.1488  0.8019
11903TIP3    H157200   5.509   5.610  12.961  0.1489 -0.0759  1.0153
11903TIP3    H257201   5.478   5.541  12.830 -1.1130 -0.4476  1.5028
11904TIP3   OH257202   5.192   4.911   1.579 -0.7344 -0.3447 -0.4225
11904TIP3    H157203   5.203   4.946   1.491 -1.2695  0.2129 -0.2775
11904TIP3    H257204   5.104   4.872   1.579 -1.1784  0.6029  0.1538
11905TIP3   OH257205   0.287   4.840   3.616  0.0423  0.5068 -0.2769
11905TIP3    H157206   0.248   4.927   3.623  0.7754  0.8861 -0.7677
11905TIP3    H257207   0.310   4.832   3.523 -0.7849 -0.5573 -0.4078
11906TIP3   OH257208   2.157   5.391   4.127  0.3387  0.1241  0.1163
11906TIP3    H157209   2.106   5.397   4.047  1.6045  2.4938 -0.6022
11906TIP3    H257210   2.192   5.302   4.127 -2.4907 -1.0929 -0.0983
11907TIP3   OH257211   3.747   6.400   3.141 -0.4444 -0.0615  0.4305
11907TIP3    H157212   3.833   6.402   3.183 -0.2157 -0.2916 -0.0274
11907TIP3    H257213   3.721   6.492   3.135 -0.3583 -0.0097  0.8291
11908TIP3   OH257214   3.640   3.561  15.211  0.1592  0.0157  0.2480
11908TIP3    H157215   3.643   3.493  15.278 -0.0713 -0.1059  0.1391
11908TIP3    H257216   3.619   3.641  15.260  2.7962  0.4967  0.7215
11909TIP3   OH257217   5.729   6.572  12.000  0.4369 -0.3465  1.0415
11909TIP3    H157218   5.809   6.625  11.998  0.3764 -0.2603  0.8202
11909TIP3    H257219   5.682   6.602  12.078  0.2724  0.1244  0.7648
11910TIP3   OH257220   0.146   6.695  13.101 -0.4751 -0.0137 -0.1241
11910TIP3    H157221   0.188   6.640  13.167 -0.6633  1.2147  1.0587
11910TIP3    H257222   0.199   6.682  13.022  1.2655  0.3531  0.9263
11911TIP3   OH257223   6.652   6.153   2.407  0.5664 -0.8057  0.3487
11911TIP3    H157224   6.632   6.241   2.438  0.5454  0.0976 -1.9560
11911TIP3    H257225   6.677   6.104   2.485  0.3366  1.1749  1.7314
11912TIP3   OH257226   6.513   0.451   2.519 -0.0304 -0.7267  0.0888
11912TIP3    H157227   6.499   0.362   2.549 -1.0419 -0.5746  0.1238
11912TIP3    H257228   6.587   0.483   2.571 -0.6991 -1.0112  1.2476
11913TIP3   OH257229   0.700   4.780   5.919 -0.1212  0.0035 -0.0993
11913TIP3    H157230   0.710   4.740   5.833 -2.4361 -0.1845 -0.3335
11913TIP3    H257231   0.710   4.874   5.903 -3.2266  0.2588 -1.1587
11914TIP3   OH257232   6.588   5.348  15.815 -0.0074  0.5410  0.0039
11914TIP3    H157233   6.546   5.421  15.860  2.3043  1.1617  1.3210
11914TIP3    H257234   6.582   5.275  15.877  1.3600  0.8288  0.5256
11915TIP3   OH257235   0.299   5.576  12.441 -0.4917 -0.7912  0.1764
11915TIP3    H157236   0.286   5.509  12.374  0.8529 -0.0206 -0.8919
11915TIP3    H257237   0.393   5.573  12.461  0.2882  2.6355 -2.0259
11916TIP3   OH257238   6.768   5.083   3.051 -0.1241  0.4220 -0.2921
11916TIP3    H157239   6.810   5.045   3.128  0.0821 -0.9231 -1.0325
11916TIP3    H257240   6.684   5.037   3.044  0.1003  0.1123 -1.1667
11917TIP3   OH257241   5.311   0.104   2.808 -0.4200 -0.0209 -0.3364
11917TIP3    H157242   5.236   0.062   2.849  0.7320 -2.1380 -0.2234
11917TIP3    H257243   5.279   0.133   2.723 -1.5033 -0.3781 -0.0674
11918TIP3   OH257244   2.565   2.218  17.014  0.2983 -0.7369 -0.2299
11918TIP3    H157245   2.471   2.208  17.020  0.3221 -0.8224 -0.0033
11918TIP3    H257246   2.600   2.129  17.012  0.4678 -0.7291  1.2006
11919TIP3   OH257247   6.049   3.268  11.623 -0.6021 -0.0730  0.3006
11919TIP3    H157248   6.096   3.198  11.577 -2.6291 -1.5331  0.3355
11919TIP3    H257249   6.016   3.325  11.553  0.1598  0.2824  0.2208
11920TIP3   OH257250   5.695   1.441  13.999  0.1630  0.0508  0.0470
11920TIP3    H157251   5.756   1.407  14.065 -0.1815  0.2395  0.4673
11920TIP3    H257252   5.654   1.516  14.042 -3.5293 -2.4865  1.4297
11921TIP3   OH257253   0.196   1.687   5.278  0.6690  0.7633  0.3767
11921TIP3    H157254   0.165   1.696   5.368  1.1305  3.0546  0.3662
11921TIP3    H257255   0.288   1.661   5.287  0.9120  1.6835  0.5920
11922TIP3   OH257256   2.071   6.380  13.582  0.7515  0.4190 -0.4390
11922TIP3    H157257   2.054   6.469  13.552 -0.5113  0.3008 -0.1197
11922TIP3    H257258   2.137   6.347  13.522  0.9057  1.4094 -0.8406
11923TIP3   OH257259   2.233   2.824   1.080 -0.1863 -0.0921 -0.4029
11923TIP3    H157260   2.324   2.818   1.052  0.6946  1.1337  1.9059
11923TIP3    H257261   2.235   2.803   1.173 -2.4011 -0.7119 -0.4368
11924TIP3   OH257262   0.136   4.185  15.099 -0.4338  0.0061 -0.1061
11924TIP3    H157263   0.199   4.160  15.167  1.5092  0.6876 -1.5717
11924TIP3    H257264   0.097   4.266  15.130  2.8788  2.1905 -1.1465
11925TIP3   OH257265   5.381   2.582  16.942 -0.2307 -0.0065 -0.1919
11925TIP3    H157266   5.415   2.503  16.984  2.9485  1.9758  1.3431
11925TIP3    H257267   5.313   2.550  16.883  2.1525 -4.0797 -1.1284
11926TIP3   OH257268   3.323   4.131   5.853 -0.3060 -0.2123  0.2429
11926TIP3    H157269   3.301   4.199   5.788 -1.0952  0.1163  0.8393
11926TIP3    H257270   3.240   4.109   5.893 -0.0047 -1.3321  0.2721
11927TIP3   OH257271   0.584   0.126  15.275 -0.6737  0.0275  0.6834
11927TIP3    H157272   0.657   0.149  15.333 -0.5047 -0.5057  0.6844
11927TIP3    H257273   0.530   0.066  15.326  0.3931 -1.8404 -0.2951
11928TIP3   OH257274   3.431   2.082  12.399 -1.5460  0.5046  0.2472
11928TIP3    H157275   3.373   2.123  12.336 -0.1953  0.5927 -0.9766
11928TIP3    H257276   3.471   2.155  12.446 -1.4531  0.4913  0.1893
11929TIP3   OH257277   5.728   4.422   5.519  0.4755 -0.4381  0.4845
11929TIP3    H157278   5.804   4.368   5.500 -0.2071 -1.1643 -0.2525
11929TIP3    H257279   5.757   4.512   5.502  0.6238 -0.8520 -1.7021
11930TIP3   OH257280   0.339   6.162  16.860  0.0449  0.0921  0.1057
11930TIP3    H157281   0.284   6.085  16.873 -1.3187  0.9748 -0.1637
11930TIP3    H257282   0.287   6.219  16.803  0.1475  2.0578  1.8545
11931TIP3   OH257283   5.154   0.220  16.816 -0.6419 -0.0435 -0.3136
11931TIP3    H157284   5.137   0.314  16.824 -1.0441 -0.2056  0.8483
11931TIP3    H257285   5.099   0.180  16.882 -0.1084 -1.0718 -0.4749
11932TIP3   OH257286   5.371   2.857   4.630  0.6263 -0.4899  0.1541
11932TIP3    H157287   5.328   2.942   4.635  1.1866 -0.2712  1.9524
11932TIP3    H257288   5.315   2.804   4.573 -1.4301  0.1156  1.5087
11933TIP3   OH257289   4.741   2.415   5.148  0.0745 -0.3561  0.2071
11933TIP3    H157290   4.818   2.376   5.189  0.2556 -1.0993 -0.7818
11933TIP3    H257291   4.670   2.353   5.166  0.2172 -0.8333 -0.8026
11934TIP3   OH257292   0.940   2.199   6.048 -0.2933  0.0714 -0.0158
11934TIP3    H157293   0.943   2.261   6.120  1.7707  1.6870 -1.3604
11934TIP3    H257294   0.936   2.113   6.089 -0.5403  0.9882  1.9587
11935TIP3   OH257295   5.557   3.655  16.914  0.0628 -0.1101 -0.0494
11935TIP3    H157296   5.594   3.651  16.826 -0.4281 -0.9154 -0.2350
11935TIP3    H257297   5.462   3.659  16.899 -0.0598 -0.9740  0.4398
11936TIP3   OH257298   0.955   5.426   2.765  0.9108  0.1574 -0.3286
11936TIP3    H157299   0.959   5.492   2.833 -0.3784  1.4439 -1.4343
11936TIP3    H257300   1.006   5.462   2.692  0.0684  0.0555 -0.9990
11937TIP3   OH257301   1.699   5.994  13.477 -0.0953  0.4119  0.1426
11937TIP3    H157302   1.691   5.964  13.567 -0.4425 -0.3399 -0.1300
11937TIP3    H257303   1.633   6.062  13.468  1.0699  1.6888  0.9281
11938TIP3   OH257304   3.925   6.266   0.131  0.1866 -0.2021 -0.5861
11938TIP3    H157305   3.850   6.284   0.186  1.6014 -0.7276  1.6478
11938TIP3    H257306   3.960   6.183   0.164  0.7286 -0.9252 -2.7570
11939TIP3   OH257307   4.577   4.726  17.178 -0.0632  0.4457 -0.5675
11939TIP3    H157308   4.656   4.748  17.129  0.4474  0.2985  0.1744
11939TIP3    H257309   4.550   4.641  17.144  0.7121 -0.0012 -0.1011
11940TIP3   OH257310   2.653   0.323   0.023 -0.3981 -0.0030  0.0809
11940TIP3    H157311   2.568   0.358  -0.002 -0.7426  1.0652  2.5235
11940TIP3    H257312   2.716   0.377  -0.025 -1.0334  1.5497  0.9372
11941TIP3   OH257313   5.973   2.059   2.113 -0.2417  0.1115 -0.1994
11941TIP3    H157314   5.925   1.989   2.158  0.6158 -1.1810 -1.2410
11941TIP3    H257315   6.016   2.107   2.183 -0.4182 -0.7273  0.5033
11942TIP3   OH257316   2.426   5.815   3.324 -0.5110  0.9190  0.1726
11942TIP3    H157317   2.521   5.808   3.308 -0.1884  2.6782  1.0556
11942TIP3    H257318   2.392   5.855   3.244 -0.4307  0.7648  0.0594
11943TIP3   OH257319   3.461   5.360  15.406  0.3194  0.2710 -0.7573
11943TIP3    H157320   3.420   5.395  15.327  0.0716 -1.6863 -1.5560
11943TIP3    H257321   3.546   5.328  15.377  0.9594  1.0844  0.1555
11944TIP3   OH257322   2.916   3.926   4.635 -0.9009  0.0978 -0.2905
11944TIP3    H157323   2.878   3.838   4.637  0.0775 -0.3321  0.0177
11944TIP3    H257324   2.985   3.923   4.702 -0.5701  0.9687 -0.5862
11945TIP3   OH257325   1.332   5.352  13.611  0.0410 -0.1295  0.5194
11945TIP3    H157326   1.394   5.404  13.559  1.7889 -1.5191  1.0773
11945TIP3    H257327   1.358   5.368  13.702  0.0402 -1.2258  0.7354
11946TIP3   OH257328   4.693   5.442  13.018  0.0794 -0.3055  0.4860
11946TIP3    H157329   4.757   5.471  12.954 -0.1316 -0.9244 -0.0242
11946TIP3    H257330   4.715   5.489  13.098  0.1083  0.7778 -0.1416
11947TIP3   OH257331   0.692   4.004  14.645 -0.2015  0.5634  0.1241
11947TIP3    H157332   0.709   3.984  14.553  2.5445  1.3707  0.3703
11947TIP3    H257333   0.700   3.919  14.690  2.0100  0.6578  0.0057
11948TIP3   OH257334   2.410   3.257   3.977  0.0446  0.0423 -0.1293
11948TIP3    H157335   2.335   3.246   4.036 -0.9543 -2.0535 -1.6689
11948TIP3    H257336   2.483   3.217   4.023 -0.4691 -0.5630  0.1817
11949TIP3   OH257337   0.829   3.680   2.784 -0.0300 -0.6024 -0.0679
11949TIP3    H157338   0.869   3.763   2.758  1.9940 -2.0258 -1.7757
11949TIP3    H257339   0.822   3.687   2.879  3.1730  0.3024  0.2334
11950TIP3   OH257340   4.903   1.352  17.304  0.0536 -0.5836  0.5158
11950TIP3    H157341   4.889   1.281  17.366 -0.3856 -1.8686 -0.9975
11950TIP3    H257342   4.964   1.316  17.239  0.8251  0.8598  0.3945
11951TIP3   OH257343   3.189   6.785  16.557 -0.7510 -0.1123 -0.0993
11951TIP3    H157344   3.113   6.763  16.504 -0.0046 -1.3891 -0.6707
11951TIP3    H257345   3.168   6.753  16.644 -0.9263 -0.3161 -0.2174
11952TIP3   OH257346   3.510   1.289  16.230  0.8305 -0.3004  0.3187
11952TIP3    H157347   3.447   1.220  16.245  2.7407 -1.7641  2.1260
11952TIP3    H257348   3.511   1.301  16.135 -1.6510 -0.6264  0.2004
11953TIP3   OH257349   1.273   5.490   4.492 -0.2808  0.0819  0.1328
11953TIP3    H157350   1.272   5.395   4.482  2.5408 -0.0446  0.4599
11953TIP3    H257351   1.270   5.505   4.586  0.4914  0.2683  0.1298
11954TIP3   OH257352   4.233   5.011   1.846  0.6747  0.0038  0.8086
11954TIP3    H157353   4.261   4.969   1.764 -1.0896 -2.1663  1.2345
11954TIP3    H257354   4.138   5.003   1.845  0.6439 -0.5700  3.3245
11955TIP3   OH257355   2.753   6.659   1.329  0.3008 -0.1852  0.2640
11955TIP3    H157356   2.760   6.605   1.251  0.5864 -0.4214  0.4529
11955TIP3    H257357   2.724   6.598   1.398 -1.7908  0.3648 -0.0595
11956TIP3   OH257358   2.868   0.790   2.427  0.1007  0.1923 -0.2777
11956TIP3    H157359   2.926   0.720   2.398  2.4895  1.8820  0.1404
11956TIP3    H257360   2.899   0.813   2.514 -0.9208  1.4609 -0.2230
11957TIP3   OH257361   1.053   6.497  14.753  0.1089  0.2704  1.1191
11957TIP3    H157362   0.987   6.455  14.698  0.0787 -0.3018  1.5789
11957TIP3    H257363   1.004   6.558  14.808  0.3350  2.1093 -0.6328
11958TIP3   OH257364   6.766   6.029  13.855 -0.0905 -0.1786 -0.1381
11958TIP3    H157365   6.791   6.036  13.947  0.0089 -0.2405 -0.1601
11958TIP3    H257366   6.715   5.948  13.850  0.8121 -0.7559 -0.3325
11959TIP3   OH257367   2.621   3.838  16.653 -0.5896 -0.5462  0.2212
11959TIP3    H157368   2.694   3.833  16.591  0.1713 -0.9998  1.1177
11959TIP3    H257369   2.622   3.928  16.684 -0.5806 -0.4815  0.0331
11960TIP3   OH257370   0.678   0.670   1.634 -0.1172  0.2532 -0.0203
11960TIP3    H157371   0.609   0.727   1.668  0.2308  0.4966  0.2916
11960TIP3    H257372   0.758   0.720   1.646  0.2857 -0.5747  0.9063
11961TIP3   OH257373   0.429   0.436   3.719  0.3133  0.8564  0.4288
11961TIP3    H157374   0.405   0.373   3.651  1.2952  1.0964 -0.1538
11961TIP3    H257375   0.356   0.498   3.720 -0.4658 -0.0392  0.7187
11962TIP3   OH257376   3.005   3.931  11.312 -0.1819  0.2259  0.4278
11962TIP3    H157377   2.968   4.002  11.259  0.0293  0.8649  1.1270
11962TIP3    H257378   3.081   3.970  11.354  1.5694 -1.1492 -1.2678
11963TIP3   OH257379   2.627   1.356  12.367 -0.2638 -0.1019 -0.6280
11963TIP3    H157380   2.672   1.273  12.385 -0.3256  0.1594  0.8826
11963TIP3    H257381   2.649   1.376  12.276 -0.5316 -1.9498 -1.1521
11964TIP3   OH257382   6.432   6.276  11.017 -0.4857 -0.0957 -0.0647
11964TIP3    H157383   6.396   6.359  10.986  0.7915 -0.5050 -2.9955
11964TIP3    H257384   6.492   6.248  10.947  0.5018 -2.6129  1.6261
11965TIP3   OH257385   3.005   6.638   6.624 -0.0345  0.2370  0.2793
11965TIP3    H157386   3.050   6.598   6.550 -0.8089 -1.8266  0.8722
11965TIP3    H257387   3.074   6.660   6.686  0.6471  2.1844 -1.0631
11966TIP3   OH257388   3.439   4.929  13.331  0.0506 -0.1920  0.3636
11966TIP3    H157389   3.361   4.884  13.298  0.2742 -0.2736 -0.0585
11966TIP3    H257390   3.511   4.896  13.276  0.2817  0.3747  0.3193
11967TIP3   OH257391   4.624   1.043  15.416  0.4297 -0.3676  0.3562
11967TIP3    H157392   4.573   1.080  15.488  1.7574  1.1459  0.5807
11967TIP3    H257393   4.714   1.068  15.435  1.0893 -1.7299 -0.7670
11968TIP3   OH257394   0.260   1.163  12.654 -0.5767 -0.3569 -0.3869
11968TIP3    H157395   0.210   1.240  12.626  1.7403  1.2559 -0.3739
11968TIP3    H257396   0.307   1.192  12.732  2.8182 -0.6465 -2.1493
11969TIP3   OH257397   4.861   2.406  16.454 -0.4228  0.3883  0.0224
11969TIP3    H157398   4.858   2.333  16.393  0.3564 -1.3448  1.9554
11969TIP3    H257399   4.776   2.402  16.500 -2.3554  3.5490 -2.8251
11970TIP3   OH257400   5.907   5.979  15.784 -0.5180  0.2472 -0.4029
11970TIP3    H157401   5.982   6.014  15.736  0.9195 -0.6658  1.0876
11970TIP3    H257402   5.935   5.893  15.814 -2.3339 -0.3000 -0.1568
11971TIP3   OH257403   0.197   1.923  16.977  0.0961  0.0678 -0.5909
11971TIP3    H157404   0.228   1.985  17.043  0.2207  0.9327 -1.4384
11971TIP3    H257405   0.102   1.929  16.982  0.0710  1.9937 -2.1283
11972TIP3   OH257406   3.262   2.279  11.408  0.2836 -0.2911 -0.1374
11972TIP3    H157407   3.257   2.204  11.467 -1.6007 -0.5356 -0.5447
11972TIP3    H257408   3.193   2.263  11.343  2.0874  0.0936 -2.2810
11973TIP3   OH257409   5.430   0.727   5.664 -0.5845  0.6240  0.2465
11973TIP3    H157410   5.421   0.763   5.752  0.0491  1.1424  0.1092
11973TIP3    H257411   5.430   0.632   5.676  1.8199  0.6535  1.0902
11974TIP3   OH257412   1.859   4.116   1.298  0.0949  0.2857 -0.7222
11974TIP3    H157413   1.907   4.197   1.316 -2.4993  2.1038 -1.3918
11974TIP3    H257414   1.838   4.081   1.385  0.3359  0.9254 -0.3976
11975TIP3   OH257415   0.399   1.575  14.544  0.3972  0.4175  0.3581
11975TIP3    H157416   0.365   1.664  14.538  0.0704  0.3668  1.2995
11975TIP3    H257417   0.362   1.540  14.625  2.0449  0.0972  1.0299
11976TIP3   OH257418   3.506   2.123  14.653 -0.8691  0.7644  0.3156
11976TIP3    H157419   3.441   2.173  14.702 -0.7298 -0.1867  1.5196
11976TIP3    H257420   3.477   2.032  14.661  0.2602  0.3932  0.3202
11977TIP3   OH257421   0.845   4.956  12.124  0.1780  0.0419 -0.2038
11977TIP3    H157422   0.771   4.999  12.167  0.0996 -0.6903  0.4098
11977TIP3    H257423   0.922   4.999  12.161  0.0671  0.6920 -0.7204
11978TIP3   OH257424   5.613   6.608  16.998  0.3521 -0.0102  0.1905
11978TIP3    H157425   5.643   6.680  16.943 -1.2906 -1.1648 -2.3804
11978TIP3    H257426   5.543   6.645  17.050  0.2130  0.5105 -0.3576
11979TIP3   OH257427   4.010   3.276  14.074  0.3211  0.0127  0.4079
11979TIP3    H157428   3.996   3.331  13.996  0.8712 -1.3034 -0.6556
11979TIP3    H257429   3.943   3.305  14.136 -0.4803  0.7345 -0.7519
11980TIP3   OH257430   1.692   5.081   3.376  0.6122  0.2885 -0.2954
11980TIP3    H157431   1.772   5.048   3.417  0.0504  0.7572  1.2472
11980TIP3    H257432   1.679   5.168   3.414 -0.2855  0.4847 -1.0139
11981TIP3   OH257433   1.949   4.762   5.243 -0.0631 -0.2132 -0.2536
11981TIP3    H157434   1.938   4.774   5.149 -0.7263 -0.3958 -0.2051
11981TIP3    H257435   1.860   4.751   5.276  0.1831 -0.3760  0.3626
11982TIP3   OH257436   6.824   4.791  12.825 -0.2696  0.5097  0.2942
11982TIP3    H157437   6.782   4.829  12.747 -0.5593  0.3201  0.3580
11982TIP3    H257438   6.817   4.696  12.812 -0.8752  0.4732  0.8463
11983TIP3   OH257439   3.258   6.212  16.089  0.4998  0.1551  0.5588
11983TIP3    H157440   3.258   6.127  16.135  1.1046  0.6070  1.4286
11983TIP3    H257441   3.233   6.191  15.999  0.5596 -0.9395  0.7840
11984TIP3   OH257442   1.153   2.278   1.288 -0.1538 -0.2474 -0.0371
11984TIP3    H157443   1.210   2.201   1.280 -2.9039 -2.3058 -1.8437
11984TIP3    H257444   1.170   2.328   1.208 -0.0464 -0.2022  0.0127
11985TIP3   OH257445   3.682   5.333  14.222 -0.7528  0.3533 -0.0337
11985TIP3    H157446   3.655   5.419  14.192  0.7000  1.3420  1.3143
11985TIP3    H257447   3.619   5.309  14.290 -0.5404  0.8556  0.3420
11986TIP3   OH257448   2.089   3.546   4.549 -0.3978 -0.2443 -0.2799
11986TIP3    H157449   2.013   3.574   4.498 -0.8856 -0.2265  0.4405
11986TIP3    H257450   2.147   3.504   4.485 -0.4304  0.8719 -1.0671
11987TIP3   OH257451   2.222   5.325   5.651  0.4888 -0.1941  0.3428
11987TIP3    H157452   2.300   5.378   5.640  0.0434  0.0295 -2.6961
11987TIP3    H257453   2.181   5.357   5.732  2.2776  1.2888  0.7058
11988TIP3   OH257454   6.033   0.956  13.891  0.3208  0.0665 -0.1736
11988TIP3    H157455   6.110   0.906  13.916  1.0825  0.5506 -1.4580
11988TIP3    H257456   6.063   1.046  13.882 -0.4788  0.3334 -0.3247
11989TIP3   OH257457   2.526   5.132   5.363 -0.9595 -0.2928  0.5350
11989TIP3    H157458   2.569   5.129   5.449  1.0343 -0.4710 -0.3992
11989TIP3    H257459   2.455   5.068   5.369 -0.1764 -1.0847  1.7158
11990TIP3   OH257460   4.633   5.003   4.285  0.2813  0.4425 -0.4367
11990TIP3    H157461   4.593   4.917   4.279  1.5865 -0.3348  1.0672
11990TIP3    H257462   4.672   5.019   4.199  0.5229 -0.7479 -0.5586
11991TIP3   OH257463   1.855   1.049  14.318  0.4408 -0.2690  0.2278
11991TIP3    H157464   1.942   1.083  14.338 -0.0820  0.8995  0.6225
11991TIP3    H257465   1.863   0.954  14.330  1.5549 -0.1375  0.6451
11992TIP3   OH257466   4.528   2.784   0.833  0.3591  0.5095  0.3659
11992TIP3    H157467   4.543   2.806   0.924 -1.7579  1.5169  0.5345
11992TIP3    H257468   4.545   2.690   0.827 -2.5534 -0.2948  2.5986
11993TIP3   OH257469   0.897   0.566   0.253 -0.4535  0.2610  0.4978
11993TIP3    H157470   0.946   0.648   0.246 -0.8215  0.5623  1.2552
11993TIP3    H257471   0.867   0.548   0.163  1.4848 -0.2399 -0.0840
11994TIP3   OH257472   0.133   6.057   2.515 -0.4585  0.5803 -0.2395
11994TIP3    H157473   0.123   6.042   2.421 -0.2325  1.3166 -0.3858
11994TIP3    H257474   0.077   6.132   2.534 -2.1556 -0.8256  0.6189
11995TIP3   OH257475   2.446   2.866   5.765  0.2045 -0.0449 -0.4767
11995TIP3    H157476   2.510   2.845   5.833 -1.5773 -1.9092  0.7552
11995TIP3    H257477   2.369   2.813   5.787 -1.8673  2.2023 -1.7452
11996TIP3   OH257478   5.949   2.211  14.609  0.4572 -0.2183  0.0927
11996TIP3    H157479   5.886   2.276  14.578  2.1644  0.6572 -1.8065
11996TIP3    H257480   5.988   2.251  14.687  1.1128  0.8523 -0.7569
11997TIP3   OH257481   5.931   3.543  12.524  0.0086 -0.5568  0.2907
11997TIP3    H157482   5.904   3.593  12.601  1.5682  1.1252 -0.1820
11997TIP3    H257483   5.854   3.541  12.467 -0.2875  0.7446  0.6318
11998TIP3   OH257484   5.590   0.446  13.700 -0.3277  0.3621  0.0329
11998TIP3    H157485   5.584   0.508  13.773 -0.3892  0.4993 -0.0882
11998TIP3    H257486   5.523   0.380  13.719  0.3642 -0.1767  0.6395
11999TIP3   OH257487   3.028   1.368  14.793  0.1954 -0.0937  0.5964
11999TIP3    H157488   3.065   1.286  14.764  0.0241 -0.1316  0.4814
11999TIP3    H257489   3.100   1.414  14.836  0.2887 -0.3046  0.6634
12000TIP3   OH257490   5.304   4.544  16.102  0.2926  0.2459 -0.2665
12000TIP3    H157491   5.242   4.472  16.091 -1.3250  1.8027 -2.1745
12000TIP3    H257492   5.388   4.501  16.116 -1.0390 -1.9685  1.7339
12001TIP3   OH257493   4.789   0.316   2.000 -0.0313 -0.0253  0.2166
12001TIP3    H157494   4.707   0.283   1.962 -1.2716  3.4529 -0.4712
12001TIP3    H257495   4.786   0.287   2.091 -1.3115 -1.1872 -0.1646
12002TIP3   OH257496   0.958   0.832   5.208  0.0183 -0.1055  0.2069
12002TIP3    H157497   1.034   0.820   5.152 -1.1093 -0.0987 -1.4114
12002TIP3    H257498   0.988   0.888   5.279  1.6992 -0.7573  0.0440
12003TIP3   OH257499   0.662   6.164  15.880  0.0092  0.0684 -0.8193
12003TIP3    H157500   0.585   6.210  15.913  0.6027  0.4489  0.0757
12003TIP3    H257501   0.627   6.088  15.834 -0.8809 -0.6582  0.9556
12004TIP3   OH257502   1.735   1.559  10.734  0.0012  0.1583 -0.1656
12004TIP3    H157503   1.790   1.603  10.670  2.6115 -1.3690  0.8646
12004TIP3    H257504   1.691   1.489  10.686  0.8428 -0.0983 -0.5616
12005TIP3   OH257505   3.049   6.718  14.655 -0.2173  0.6678  0.0344
12005TIP3    H157506   3.088   6.654  14.596 -1.1786 -1.5558  1.6482
12005TIP3    H257507   2.956   6.693  14.660 -0.4091  1.5387  1.5407
12006TIP3   OH257508   4.497   1.194  15.979 -0.2935  0.0350  0.0300
12006TIP3    H157509   4.573   1.248  15.998  1.0779 -1.7017 -0.2068
12006TIP3    H257510   4.494   1.189  15.883  0.7126 -1.6984  0.0420
12007TIP3   OH257511   4.322   2.620  12.356 -0.3071 -0.2588 -0.1390
12007TIP3    H157512   4.251   2.587  12.301 -1.2364 -0.2617  1.0241
12007TIP3    H257513   4.283   2.690  12.407  1.4734  2.4002 -2.1082
12008TIP3   OH257514   0.004   0.140   0.279 -0.2449 -0.7702  0.2761
12008TIP3    H157515  -0.069   0.178   0.230 -0.9998 -2.2138  0.2128
12008TIP3    H257516   0.059   0.099   0.213 -0.2960 -1.1519  0.4644
12009TIP3   OH257517   5.557   0.985   0.378 -0.4844 -0.4540  0.4091
12009TIP3    H157518   5.521   0.904   0.341  0.4144 -0.7829  0.2432
12009TIP3    H257519   5.512   1.054   0.329  1.2031 -0.8820 -1.8975
12010TIP3   OH257520   6.286   5.723  16.906 -0.2755 -0.5354  0.5962
12010TIP3    H157521   6.266   5.775  16.828 -1.1217  1.2142  1.9270
12010TIP3    H257522   6.365   5.763  16.942 -0.6288 -0.5126  1.3507
12011TIP3   OH257523   5.730   5.136   1.279 -0.4213 -0.0085 -0.3887
12011TIP3    H157524   5.764   5.213   1.233  0.1488 -0.8397 -1.3967
12011TIP3    H257525   5.807   5.083   1.296 -0.8806 -0.6244 -0.2146
12012TIP3   OH257526   1.766   3.576  16.750  0.3446 -0.1348 -0.4434
12012TIP3    H157527   1.717   3.549  16.672 -0.8928 -0.3564  0.3756
12012TIP3    H257528   1.844   3.521  16.749  0.9394  0.6673 -2.1236
12013TIP3   OH257529   5.040   5.808   4.301 -0.1813  0.5067  0.0864
12013TIP3    H157530   4.951   5.777   4.318  0.1792 -0.6691 -0.0790
12013TIP3    H257531   5.035   5.903   4.313 -1.3981  0.4304  0.3163
12014TIP3   OH257532   1.615   4.585  16.529 -0.0457 -0.1026 -0.0997
12014TIP3    H157533   1.690   4.589  16.588  0.0866  2.0194 -0.3371
12014TIP3    H257534   1.549   4.535  16.578  0.9876 -0.7184  0.7145
12015TIP3   OH257535   6.200   3.520   0.327  0.9280  0.0309  0.5770
12015TIP3    H157536   6.205   3.533   0.232  1.2338  0.3350  0.6377
12015TIP3    H257537   6.277   3.468   0.349 -0.1134 -1.6736  0.3814
12016TIP3   OH257538   0.382   0.636   1.521 -0.2287 -0.3614  0.3995
12016TIP3    H157539   0.375   0.694   1.597 -1.0434  2.3835 -1.5897
12016TIP3    H257540   0.454   0.673   1.470  0.3260 -2.1660 -0.1827
12017TIP3   OH257541   4.721   4.456  14.957  0.3510  0.2549  0.1457
12017TIP3    H157542   4.728   4.437  15.051 -0.7288 -2.2788 -0.2216
12017TIP3    H257543   4.733   4.551  14.952  1.7315  0.3206  2.6896
12018TIP3   OH257544   4.420   1.362  13.557  0.6331  0.0521 -0.0450
12018TIP3    H157545   4.327   1.370  13.538  1.0207  1.4768 -1.6333
12018TIP3    H257546   4.430   1.399  13.644 -0.3473 -0.6110  0.3659
12019TIP3   OH257547   3.783   2.012   1.373 -0.3420  0.2803  0.2338
12019TIP3    H157548   3.859   2.042   1.324 -0.9453 -0.0340 -0.9387
12019TIP3    H257549   3.806   1.923   1.401 -0.7003 -0.2611 -1.1182
12020TIP3   OH257550   4.551   3.402   4.098  0.3115 -0.2667 -0.1306
12020TIP3    H157551   4.525   3.396   4.006  1.5075 -1.4126 -0.4326
12020TIP3    H257552   4.598   3.485   4.104 -1.2282  0.6337 -0.1345
12021TIP3   OH257553   5.084   1.329  14.675  0.6925  0.0264 -0.1209
12021TIP3    H157554   5.132   1.362  14.599  2.9542 -0.8916  0.8224
12021TIP3    H257555   5.067   1.238  14.655  0.5277  0.0078  0.1039
12022TIP3   OH257556   1.484   0.101  11.746 -0.1233  0.6169 -0.0328
12022TIP3    H157557   1.463   0.012  11.775  0.7066  0.6029  0.5731
12022TIP3    H257558   1.401   0.136  11.713 -0.3612 -0.5287 -0.6891
12023TIP3   OH257559   5.013   6.276  11.828 -0.0659 -0.0339 -0.3218
12023TIP3    H157560   5.067   6.197  11.835 -0.8395 -0.4626  1.2710
12023TIP3    H257561   4.924   6.245  11.845 -0.8658  0.6790 -2.7549
12024TIP3   OH257562   6.122   6.797   4.422  0.1013  0.0235 -0.2026
12024TIP3    H157563   6.140   6.722   4.479  2.2671  0.1643 -0.6149
12024TIP3    H257564   6.162   6.872   4.467 -0.2436  0.5671 -0.7750
12025TIP3   OH257565   1.391   5.814  11.699  0.0299  0.3261  0.7483
12025TIP3    H157566   1.412   5.728  11.737  1.0549 -0.1197 -0.7301
12025TIP3    H257567   1.475   5.860  11.698  0.1803  0.0923 -1.4733
12026TIP3   OH257568   6.341   0.175  15.315 -0.3395 -0.3058 -0.0925
12026TIP3    H157569   6.356   0.237  15.387 -1.4431  0.4432 -0.4719
12026TIP3    H257570   6.408   0.108  15.326  2.3309  2.0500 -0.9212
12027TIP3   OH257571   0.135   3.103  14.189  0.2091  0.1306 -0.2837
12027TIP3    H157572   0.176   3.056  14.116  0.3443 -0.4311  0.1443
12027TIP3    H257573   0.067   3.156  14.148 -0.9222 -1.5149 -0.6484
12028TIP3   OH257574   2.871   2.386   1.233 -0.2884  0.0116  0.2030
12028TIP3    H157575   2.814   2.317   1.199 -1.2621 -0.2622  2.2139
12028TIP3    H257576   2.960   2.355   1.216 -0.6847 -0.1672 -1.8177
12029TIP3   OH257577   2.420   6.393  14.485  0.0494 -0.2553  0.1829
12029TIP3    H157578   2.330   6.369  14.506 -0.1183  0.2534  0.0590
12029TIP3    H257579   2.432   6.478  14.526  1.0268 -1.0655  1.6668
12030TIP3   OH257580   6.223   5.916  13.358 -0.1983 -0.1917 -0.2909
12030TIP3    H157581   6.211   5.972  13.281  0.5986  0.8952  0.3557
12030TIP3    H257582   6.304   5.869  13.340 -1.3086 -1.8721 -1.2339
12031TIP3   OH257583   1.810   1.285  13.776 -0.2299  0.3350  0.5052
12031TIP3    H157584   1.809   1.224  13.850 -0.8366  1.8583  1.7922
12031TIP3    H257585   1.878   1.348  13.798  0.4202  0.1390 -0.8331
12032TIP3   OH257586   1.864   2.619  12.702 -0.2789  0.8304  0.3156
12032TIP3    H157587   1.785   2.672  12.709 -2.2907 -2.0910  1.7779
12032TIP3    H257588   1.832   2.531  12.682  2.6279 -0.4943  1.0104
12033TIP3   OH257589   0.092   1.300  11.720 -0.2664 -0.0480  0.3444
12033TIP3    H157590   0.130   1.314  11.807 -0.7824  0.0002  0.5658
12033TIP3    H257591   0.153   1.240  11.677  2.3700  3.1495 -0.8525
12034TIP3   OH257592   5.756   0.999  13.870 -0.6742  0.0822  0.1254
12034TIP3    H157593   5.742   1.093  13.855  0.4171  0.4305  1.1350
12034TIP3    H257594   5.844   0.983  13.837 -0.1867 -0.1977  1.4865
12035TIP3   OH257595   5.742   2.948   4.980 -0.3311 -0.3737  0.3377
12035TIP3    H157596   5.830   2.923   5.008 -0.0231  1.2634  0.9819
12035TIP3    H257597   5.745   2.941   4.884  0.8195  0.5236  0.2768
12036TIP3   OH257598   3.749   4.611   6.076 -0.0321 -0.1912  0.7355
12036TIP3    H157599   3.806   4.537   6.054  1.0541  0.2984  1.8044
12036TIP3    H257600   3.807   4.687   6.073 -1.0857  0.6113 -0.1409
12037TIP3   OH257601   5.707   4.702   6.647 -0.2961  0.0752 -0.1116
12037TIP3    H157602   5.757   4.642   6.702  1.4512  2.5070  1.1227
12037TIP3    H257603   5.752   4.701   6.562 -0.1457 -0.1864 -0.0280
12038TIP3   OH257604   4.396   0.910   2.096  0.0499 -0.2376 -0.1031
12038TIP3    H157605   4.351   0.974   2.152  0.4242  0.5883 -0.7293
12038TIP3    H257606   4.372   0.826   2.133  0.0869  0.2842  1.1615
12039TIP3   OH257607   0.542   4.777   0.598  0.2224  0.2865  0.0166
12039TIP3    H157608   0.553   4.837   0.672  0.6293 -0.5134  0.6155
12039TIP3    H257609   0.631   4.761   0.566  0.0321  0.8362 -0.8351
12040TIP3   OH257610   3.293   5.045  14.028 -0.1775 -0.6771  0.0420
12040TIP3    H157611   3.337   4.997  14.098 -0.2776  0.8897  1.2371
12040TIP3    H257612   3.357   5.110  14.000 -0.8076 -0.0391  0.0409
12041TIP3   OH257613   5.755   4.766  17.162 -0.0881 -0.2970 -0.3030
12041TIP3    H157614   5.766   4.731  17.073  0.0883  0.3225 -0.5313
12041TIP3    H257615   5.717   4.694  17.212  0.6646 -0.9575 -0.6555
12042TIP3   OH257616   4.592   1.359  14.214 -0.4430  0.1991 -0.3915
12042TIP3    H157617   4.563   1.442  14.177  0.8051  1.1286  0.6170
12042TIP3    H257618   4.686   1.356  14.195 -0.1289 -0.1377  1.1068
12043TIP3   OH257619   5.010   0.589   2.149  0.2711 -0.5708  0.0114
12043TIP3    H157620   5.039   0.645   2.221  0.6302 -1.7236  0.7846
12043TIP3    H257621   4.948   0.529   2.189 -1.7391  0.5728 -1.2233
12044TIP3   OH257622   2.110   2.593   2.079 -0.3214 -0.0462  0.4033
12044TIP3    H157623   2.171   2.596   2.153 -0.1391  0.0660  0.2479
12044TIP3    H257624   2.121   2.505   2.042  1.9674  0.9499 -1.4958
12045TIP3   OH257625   4.618   3.482   0.920  0.3369  0.4720 -0.0053
12045TIP3    H157626   4.534   3.460   0.961 -0.0122  2.2084  0.2946
12045TIP3    H257627   4.652   3.553   0.974  2.5573 -0.9189  0.5446
12046TIP3   OH257628   6.684   3.201   3.315  0.0362 -0.3489  0.6850
12046TIP3    H157629   6.696   3.112   3.284 -0.8896 -0.1629 -0.2521
12046TIP3    H257630   6.638   3.192   3.398  0.8736 -0.7714  1.1177
12047TIP3   OH257631   0.476   6.345   3.259 -0.1050  0.3830  0.6162
12047TIP3    H157632   0.508   6.433   3.235 -1.8992  0.9208  0.0599
12047TIP3    H257633   0.399   6.332   3.204 -1.2087 -0.6074  2.3388
12048TIP3   OH257634   3.114   1.282   3.215 -0.2821  0.5600 -0.8381
12048TIP3    H157635   3.046   1.237   3.165  0.8448 -1.6512 -0.4953
12048TIP3    H257636   3.107   1.246   3.303  1.4452  0.1409 -0.8522
12049TIP3   OH257637   6.023   4.379  15.161 -0.7851  0.1043 -0.2792
12049TIP3    H157638   5.963   4.343  15.096 -1.7523  0.5278  0.3568
12049TIP3    H257639   6.104   4.330  15.149 -0.5364  0.9655 -2.5897
12050TIP3   OH257640   1.660   4.341  11.230 -0.6755  0.0577  0.0446
12050TIP3    H157641   1.656   4.427  11.188  0.0796  0.3190  0.4792
12050TIP3    H257642   1.690   4.282  11.161 -0.5001  0.2809 -0.0710
12051TIP3   OH257643   2.732   2.665  17.061  0.1783 -0.0570  0.1958
12051TIP3    H157644   2.803   2.643  17.001  0.0739 -2.3193  0.7881
12051TIP3    H257645   2.776   2.708  17.135  1.0812 -1.9538  0.8297
12052TIP3   OH257646   3.844   1.843   0.392  0.1189 -0.5570  0.3906
12052TIP3    H157647   3.854   1.907   0.322  2.1308 -0.3946  0.7619
12052TIP3    H257648   3.776   1.880   0.449  0.3737  0.6231 -0.0552
12053TIP3   OH257649   4.730   1.947  12.093  0.3676 -1.1059 -0.1486
12053TIP3    H157650   4.637   1.971  12.084  0.2336 -0.6277  1.9605
12053TIP3    H257651   4.754   1.913  12.007 -0.7473  2.1001 -1.9124
12054TIP3   OH257652   1.024   3.807  14.302  0.0290 -0.3276 -0.3374
12054TIP3    H157653   1.016   3.712  14.310 -2.0206 -0.3540 -1.9272
12054TIP3    H257654   1.006   3.825  14.209 -0.0044  1.6342  0.0053
12055TIP3   OH257655   4.034   0.669   0.064  0.5565 -0.0479 -0.1950
12055TIP3    H157656   4.014   0.749   0.016  0.3209 -1.6015 -2.8654
12055TIP3    H257657   3.965   0.663   0.130 -0.4863  1.0220 -1.1444
12056TIP3   OH257658   5.716   0.639  14.553  0.2593  0.5365  0.4741
12056TIP3    H157659   5.752   0.632  14.464  1.8875  0.4729  1.0981
12056TIP3    H257660   5.743   0.726  14.582 -2.2545  1.5247  0.1250
12057TIP3   OH257661   6.181   0.196   2.444  0.1374  0.2068 -0.5320
12057TIP3    H157662   6.143   0.284   2.438  0.9125  0.5852  0.0171
12057TIP3    H257663   6.275   0.211   2.452  0.6572 -0.7688 -3.6295
12058TIP3   OH257664   3.636   6.352  15.211 -0.2103  0.1910  0.0433
12058TIP3    H157665   3.678   6.267  15.202 -0.5640  0.1166 -1.1180
12058TIP3    H257666   3.698   6.414  15.172  0.3691  0.5932  1.5259
12059TIP3   OH257667   5.899   3.564   1.945  0.2348  0.1481  0.4851
12059TIP3    H157668   5.992   3.586   1.957 -0.4864  3.3950  1.2900
12059TIP3    H257669   5.868   3.544   2.033 -0.4010  2.1259  0.7652
12060TIP3   OH257670   2.277   1.950  11.347 -0.9217 -0.2140  0.0405
12060TIP3    H157671   2.224   2.027  11.368  0.2996  1.3606 -2.2634
12060TIP3    H257672   2.214   1.878  11.345 -2.6062  1.1968 -0.3729
12061TIP3   OH257673   5.419   2.865   4.087  0.4657 -0.4176 -0.6704
12061TIP3    H157674   5.378   2.797   4.141 -0.1765  0.2905 -0.2382
12061TIP3    H257675   5.503   2.883   4.129  0.5833 -0.8503 -0.7166
12062TIP3   OH257676   5.108   2.778  15.832 -0.5075  0.5485  0.2344
12062TIP3    H157677   5.089   2.688  15.806 -0.8016  0.4022  0.9501
12062TIP3    H257678   5.040   2.800  15.895 -0.1803  1.1236  0.3938
12063TIP3   OH257679   5.878   3.688  13.156  0.2356  0.0885 -0.3262
12063TIP3    H157680   5.911   3.646  13.077 -0.7862  1.9696 -1.8393
12063TIP3    H257681   5.784   3.699  13.140  0.1501  1.2480  0.7927
12064TIP3   OH257682   4.754   4.024  16.747 -0.0078  0.8740 -0.2714
12064TIP3    H157683   4.804   4.034  16.666  0.5203  1.2947  0.1060
12064TIP3    H257684   4.693   3.952  16.728  0.9800  0.1013 -0.6205
12065TIP3   OH257685   2.872   2.925   6.152 -0.0889 -0.1155 -0.6278
12065TIP3    H157686   2.828   2.955   6.072 -0.2229  0.0951 -0.4753
12065TIP3    H257687   2.805   2.878   6.200 -0.9084  2.3508  0.8200
12066TIP3   OH257688   3.071   2.487   4.648  0.2876  0.1003  0.1962
12066TIP3    H157689   3.061   2.462   4.556  1.2875  0.9306 -0.1720
12066TIP3    H257690   3.164   2.509   4.656  0.6198 -1.6359  1.8539
12067TIP3   OH257691   4.437   5.446  13.799 -0.6004 -0.3760  0.0850
12067TIP3    H157692   4.502   5.515  13.787 -0.3402 -0.8622 -1.6299
12067TIP3    H257693   4.428   5.437  13.894  1.4616  0.0686  0.3768
12068TIP3   OH257694   3.509   4.903  15.573  0.0418  0.4606  0.2709
12068TIP3    H157695   3.512   4.819  15.528  1.8687  0.2063  0.8029
12068TIP3    H257696   3.437   4.950  15.531 -1.4779 -1.5997  0.4300
12069TIP3   OH257697   2.755   2.846   5.286  0.1207 -0.8520 -0.9065
12069TIP3    H157698   2.816   2.920   5.285  2.1286 -2.3385  0.8010
12069TIP3    H257699   2.702   2.858   5.208  1.8767  1.1608 -1.9161
12070TIP3   OH257700   5.311   0.280  13.755 -0.1627  0.2484  0.6625
12070TIP3    H157701   5.327   0.191  13.788  2.4293  0.2526 -0.3701
12070TIP3    H257702   5.254   0.267  13.679 -0.6549 -0.4129  1.1289
12071TIP3   OH257703   0.963   2.214   3.519  0.2377 -0.1990  0.6424
12071TIP3    H157704   0.911   2.135   3.531  1.7670 -1.2388  0.7580
12071TIP3    H257705   0.908   2.284   3.553 -0.9153 -1.2910  1.1187
12072TIP3   OH257706   1.731   2.119  11.145 -0.4188  0.2216 -0.5290
12072TIP3    H157707   1.787   2.044  11.166 -1.2443  0.0586  1.2538
12072TIP3    H257708   1.647   2.100  11.188 -0.6408  2.1597  0.0280
12073TIP3   OH257709   2.995   2.540   3.946  0.2565  0.0123 -0.1364
12073TIP3    H157710   2.949   2.516   3.866  0.8801  0.1033 -0.5272
12073TIP3    H257711   2.932   2.521   4.016  0.0403 -0.9410 -0.5729
12074TIP3   OH257712   1.911   4.721   5.586  0.1144 -0.3594 -0.2693
12074TIP3    H157713   1.909   4.761   5.499 -0.5111 -0.1911 -0.1827
12074TIP3    H257714   1.827   4.676   5.594  0.6084 -1.2851 -0.1730
12075TIP3   OH257715   6.085   1.392   5.755 -0.8156  0.5017  0.2620
12075TIP3    H157716   6.073   1.375   5.848 -1.8448 -1.5976 -0.1821
12075TIP3    H257717   6.178   1.377   5.739 -0.9487 -0.8690  0.6700
12076TIP3   OH257718   4.888   2.853  10.243 -0.0169  0.2280  0.0667
12076TIP3    H157719   4.864   2.902  10.165  0.2542  1.4380  0.7241
12076TIP3    H257720   4.850   2.902  10.316  1.7894  0.5038  0.8853
12077TIP3   OH257721   1.647   0.538   2.238  0.2744 -0.2217  0.6090
12077TIP3    H157722   1.677   0.619   2.281 -0.2214 -0.3593  1.2301
12077TIP3    H257723   1.553   0.534   2.258  0.0702 -0.4022 -0.3248
12078TIP3   OH257724   4.106   2.604  15.165  0.4838 -0.1009  0.0900
12078TIP3    H157725   4.202   2.598  15.161  0.6135  0.5515  1.6924
12078TIP3    H257726   4.083   2.565  15.249 -0.5038  1.2436  0.4730
12079TIP3   OH257727   1.613   4.855  13.955 -0.1720 -0.1324 -0.3783
12079TIP3    H157728   1.673   4.781  13.949 -1.4169 -1.3248  0.9660
12079TIP3    H257729   1.657   4.917  14.014  2.1932  1.6671 -3.7108
12080TIP3   OH257730   5.946   5.918  15.016  0.1988  0.0317 -0.1856
12080TIP3    H157731   5.883   5.878  15.076 -0.0605  0.3293 -0.2586
12080TIP3    H257732   6.025   5.864  15.025  0.2412  0.2150  0.5978
12081TIP3   OH257733   3.594   5.605  16.259 -0.0959  0.0004  0.0515
12081TIP3    H157734   3.526   5.636  16.320 -1.0665 -1.6848 -0.0844
12081TIP3    H257735   3.619   5.519  16.294 -0.8479 -1.1214 -2.0064
12082TIP3   OH257736   4.014   3.603   2.765 -0.6080 -0.1345  0.1479
12082TIP3    H157737   3.960   3.637   2.836 -1.2662 -0.1999 -0.3129
12082TIP3    H257738   3.964   3.621   2.685 -1.2900 -2.6959 -0.0966
12083TIP3   OH257739   1.779   5.058  16.272  0.4665  0.2923 -0.3484
12083TIP3    H157740   1.754   5.056  16.180  1.7148  0.6787 -0.7100
12083TIP3    H257741   1.863   5.013  16.276 -0.7666 -2.1060  1.0357
12084TIP3   OH257742   5.483   0.376   2.900  0.3844 -0.0783  0.2136
12084TIP3    H157743   5.442   0.424   2.828  1.7277  0.4568 -0.2288
12084TIP3    H257744   5.457   0.285   2.886  0.6482  0.0120 -0.9874
12085TIP3   OH257745   0.253   4.561   1.296 -0.1815  0.2717 -0.5147
12085TIP3    H157746   0.223   4.597   1.379  1.0245  1.1627 -0.4246
12085TIP3    H257747   0.192   4.596   1.231  0.5167  1.9336 -0.3325
12086TIP3   OH257748   0.407   4.117  11.231  0.0363 -0.2519 -0.2338
12086TIP3    H157749   0.351   4.058  11.182  1.1632  0.7314 -2.8799
12086TIP3    H257750   0.495   4.079  11.224  0.2892  0.1131  0.7229
12087TIP3   OH257751   3.482   0.636  12.133  0.4409  0.1672 -0.0695
12087TIP3    H157752   3.428   0.674  12.203  1.0503  0.5168  0.2222
12087TIP3    H257753   3.480   0.701  12.063  0.6004  0.2544  0.0040
12088TIP3   OH257754   1.825   5.079   2.962 -1.0881 -0.1897  0.1396
12088TIP3    H157755   1.916   5.092   2.989 -0.2994 -0.7941 -2.0057
12088TIP3    H257756   1.822   4.989   2.931 -2.5794 -0.3475  0.7079
12089TIP3   OH257757   5.330   6.792   5.529  0.2220 -0.0035 -0.0726
12089TIP3    H157758   5.256   6.845   5.500  0.2921 -0.5144 -1.2599
12089TIP3    H257759   5.291   6.719   5.577 -0.0750 -0.4190 -0.9292
12090TIP3   OH257760   0.332   5.464  16.494  0.5771 -0.0873  0.3867
12090TIP3    H157761   0.373   5.393  16.443  1.1377 -0.4955  1.3760
12090TIP3    H257762   0.406   5.512  16.530  0.1883  0.7298  0.1136
12091TIP3   OH257763   3.358   3.917  12.530 -0.4060 -0.5901  0.5695
12091TIP3    H157764   3.272   3.878  12.511  0.0603 -1.3574 -0.0235
12091TIP3    H257765   3.413   3.842  12.554  0.2226 -0.1617  0.4856
12092TIP3   OH257766   3.910   3.096  11.614  0.5398 -0.1398  0.2644
12092TIP3    H157767   3.902   3.012  11.569 -0.7957 -0.3560  0.8673
12092TIP3    H257768   4.004   3.114  11.613  0.6063 -0.2301 -2.3695
12093TIP3   OH257769   6.005   0.362   6.078  0.7816 -0.2058  0.3773
12093TIP3    H157770   6.024   0.273   6.050  0.3647  0.1517 -1.1321
12093TIP3    H257771   6.050   0.418   6.014  0.2101  0.6592  0.7058
12094TIP3   OH257772   5.078   3.533   4.879  0.4597  0.2833 -0.2647
12094TIP3    H157773   5.157   3.532   4.932 -0.0479  0.6449  0.5287
12094TIP3    H257774   5.054   3.441   4.870 -0.2032  0.2620  1.3333
12095TIP3   OH257775   0.155   1.400   1.096  0.5543 -0.3324 -0.0597
12095TIP3    H157776   0.213   1.462   1.142 -1.0333  0.9691  0.2946
12095TIP3    H257777   0.187   1.314   1.122  2.0191  0.3378  0.5018
12096TIP3   OH257778   5.487   0.670  11.485 -0.2270 -0.2506 -0.0286
12096TIP3    H157779   5.488   0.708  11.573 -1.1221 -0.3941  0.0542
12096TIP3    H257780   5.555   0.718  11.437  1.5331 -1.3622  1.2127
12097TIP3   OH257781   4.204   5.970   4.429 -0.3715  0.4779 -0.1640
12097TIP3    H157782   4.126   5.923   4.400 -0.3384  0.7397 -0.7002
12097TIP3    H257783   4.269   5.902   4.447 -0.8450  0.2343  0.6777
12098TIP3   OH257784   1.999   4.893  16.155  0.0338 -0.0687  0.5837
12098TIP3    H157785   2.072   4.859  16.206  1.5005  0.7353 -0.8679
12098TIP3    H257786   2.040   4.928  16.076 -1.6558  2.4861  0.7319
12099TIP3   OH257787   3.388   0.879   3.763 -0.3097  0.1712 -0.0184
12099TIP3    H157788   3.328   0.946   3.798 -1.1993 -0.5725 -0.0651
12099TIP3    H257789   3.475   0.917   3.773 -0.6748  0.7377  1.3249
12100TIP3   OH257790   4.610   4.347   4.424  0.1837 -0.0369 -0.1574
12100TIP3    H157791   4.570   4.294   4.355  0.2444 -0.6808  0.2919
12100TIP3    H257792   4.545   4.415   4.443 -0.2038 -0.3873 -0.2335
12101TIP3   OH257793   2.751   1.396   2.766 -0.2428  0.6053 -0.2331
12101TIP3    H157794   2.691   1.432   2.831  0.3937 -0.9419  1.3306
12101TIP3    H257795   2.700   1.331   2.718 -0.0798 -0.1028  0.5221
12102TIP3   OH257796   4.799   2.038  14.492 -0.2403 -0.1535  0.1821
12102TIP3    H157797   4.846   1.983  14.429 -1.2902 -1.4116  0.4405
12102TIP3    H257798   4.758   2.106  14.439 -0.8317 -1.0003 -0.4751
12103TIP3   OH257799   4.526   1.325  15.041 -0.1127 -0.1083 -0.4051
12103TIP3    H157800   4.470   1.388  15.086 -2.2761 -1.0046 -1.7153
12103TIP3    H257801   4.595   1.379  15.001 -0.5247  1.1335  0.4860
12104TIP3   OH257802   4.711   6.221  12.691  0.0749  0.6604  0.6833
12104TIP3    H157803   4.761   6.295  12.658 -1.0878  0.1981 -2.4316
12104TIP3    H257804   4.640   6.260  12.742 -0.5590  1.7148 -0.9567
12105TIP3   OH257805   6.250   6.789  14.921 -0.3407  0.0802 -0.1683
12105TIP3    H157806   6.229   6.734  14.997 -2.4547 -0.3116 -0.9713
12105TIP3    H257807   6.179   6.852  14.917  0.7627  1.3333 -0.7202
12106TIP3   OH257808   1.316   5.290  12.339 -0.6556  0.1553 -0.2401
12106TIP3    H157809   1.322   5.216  12.399 -0.3787 -0.6006 -1.1610
12106TIP3    H257810   1.238   5.337  12.367 -0.4413 -0.0792  0.8037
12107TIP3   OH257811   4.528   2.815   5.366  0.1867  0.2000  0.5181
12107TIP3    H157812   4.520   2.791   5.274  0.5166  2.1924 -0.0767
12107TIP3    H257813   4.591   2.752   5.402 -1.7385 -2.1450  0.0369
12108TIP3   OH257814   5.207   2.939   0.591  0.0205 -0.2356  0.4105
12108TIP3    H157815   5.126   2.937   0.540 -1.6613  0.7859  2.8491
12108TIP3    H257816   5.276   2.949   0.526 -1.8947  0.0726 -1.7006
12109TIP3   OH257817   0.528   6.312   3.753 -0.0924  0.4484 -0.2020
12109TIP3    H157818   0.486   6.330   3.669  0.1303  0.2218 -0.3655
12109TIP3    H257819   0.592   6.383   3.763 -3.3054  3.3593  2.0571
12110TIP3   OH257820   3.901   2.892  12.093  0.1980 -0.1907 -0.0517
12110TIP3    H157821   3.968   2.960  12.087  0.0822  0.3876  3.1055
12110TIP3    H257822   3.854   2.912  12.174 -1.2153 -2.8541 -0.0826
12111TIP3   OH257823   5.194   2.226  12.400  0.0052 -0.2192  0.4864
12111TIP3    H157824   5.133   2.300  12.397 -1.5211 -1.4490 -0.7915
12111TIP3    H257825   5.280   2.266  12.390 -0.7268  1.4296  0.4070
12112TIP3   OH257826   3.490   0.970   0.977 -0.0177 -0.3287 -0.1295
12112TIP3    H157827   3.582   0.995   0.973  0.0952 -0.5590  0.7626
12112TIP3    H257828   3.442   1.045   0.941  0.2728  1.3523  2.7451
12113TIP3   OH257829   2.297   4.203   1.642 -0.2290  0.1766 -0.2258
12113TIP3    H157830   2.226   4.260   1.672  0.0622  0.3296  0.1758
12113TIP3    H257831   2.360   4.202   1.714  1.0344  1.4745 -1.2397
12114TIP3   OH257832   6.023   3.410  14.508 -0.3122 -0.4656  0.1265
12114TIP3    H157833   6.082   3.383  14.438 -0.9522 -0.8077 -0.2868
12114TIP3    H257834   5.943   3.359  14.494  0.2113 -1.9954  2.2251
12115TIP3   OH257835   2.270   3.106   1.745 -0.0128  0.0073 -0.0962
12115TIP3    H157836   2.211   3.039   1.710 -0.6043 -0.7614  2.1755
12115TIP3    H257837   2.346   3.058   1.776 -0.4926  0.3250  1.6697
12116TIP3   OH257838   4.869   1.813  13.052  0.1224  0.0027  0.4457
12116TIP3    H157839   4.954   1.853  13.034  0.1703  0.4339  1.5799
12116TIP3    H257840   4.810   1.887  13.065 -0.3794 -0.2951 -0.0651
12117TIP3   OH257841   3.480   6.785  16.584 -0.0859 -0.0803  0.1906
12117TIP3    H157842   3.503   6.753  16.496  1.8755 -1.4724  1.1366
12117TIP3    H257843   3.385   6.798  16.580 -0.8042 -4.2763 -0.9113
12118TIP3   OH257844   4.142   3.742  11.824  0.0598  0.2324 -0.0606
12118TIP3    H157845   4.135   3.796  11.745  3.1828  1.4001  0.3324
12118TIP3    H257846   4.149   3.805  11.896 -0.4296 -0.7855  0.9175
12119TIP3   OH257847   1.979   2.817   3.697 -0.0024 -0.0908 -0.2741
12119TIP3    H157848   2.074   2.821   3.683 -0.3207  1.5959 -2.4636
12119TIP3    H257849   1.944   2.789   3.612 -1.5463  0.7605  0.0592
12120TIP3   OH257850   0.364   4.561   4.849  0.6213  0.7184  0.6771
12120TIP3    H157851   0.392   4.490   4.907  0.4562 -0.3154 -0.4614
12120TIP3    H257852   0.298   4.521   4.792  2.5204  0.9275 -1.8932
12121TIP3   OH257853   4.169   5.147   5.067  0.1401 -0.0583 -0.4747
12121TIP3    H157854   4.253   5.192   5.071 -0.0628  0.4329 -1.5069
12121TIP3    H257855   4.170   5.103   4.982 -1.2911  1.2587 -1.2077
12122TIP3   OH257856   2.839   3.253   5.331 -0.1468  0.4752 -0.0507
12122TIP3    H157857   2.880   3.169   5.312  1.1510  1.2665 -0.9033
12122TIP3    H257858   2.858   3.268   5.424  0.0922  0.0760 -0.0303
12123TIP3   OH257859   0.933   4.090   6.356  0.1492 -0.2154  0.1201
12123TIP3    H157860   0.842   4.118   6.349  0.3632  0.5214  0.1170
12123TIP3    H257861   0.930   4.007   6.402 -0.5496 -0.3586 -0.1737
12124TIP3   OH257862   6.465   3.770  16.708 -0.0073  0.1497 -0.3033
12124TIP3    H157863   6.558   3.761  16.730 -0.1712  0.1871  0.4068
12124TIP3    H257864   6.447   3.863  16.715 -0.1414  0.1221 -0.2685
12125TIP3   OH257865   5.104   3.865  16.052 -0.1681 -0.3664  0.1146
12125TIP3    H157866   5.051   3.831  15.980  1.1922 -1.0902 -0.5836
12125TIP3    H257867   5.182   3.902  16.010  0.4046 -0.3135  1.1692
12126TIP3   OH257868   2.399   0.839   6.551  0.1088 -0.1050 -0.0972
12126TIP3    H157869   2.417   0.930   6.576 -0.8636  0.5321 -1.6106
12126TIP3    H257870   2.464   0.788   6.600  0.3082  1.3409  1.2131
12127TIP3   OH257871   4.295   4.409  12.163 -0.7988  0.4309 -0.0902
12127TIP3    H157872   4.300   4.487  12.219 -2.4986 -0.3950  1.3100
12127TIP3    H257873   4.286   4.336  12.224 -3.0112 -0.5045 -1.4047
12128TIP3   OH257874   0.102   5.614  14.907 -0.1328  0.4466 -0.2152
12128TIP3    H157875   0.131   5.553  14.839  1.2726  0.0694  0.6770
12128TIP3    H257876   0.156   5.593  14.983 -1.2905  1.2215  0.8643
12129TIP3   OH257877   2.657   5.577  14.307  0.3529  0.4097 -0.0539
12129TIP3    H157878   2.703   5.605  14.386  0.1347  0.8647 -0.0855
12129TIP3    H257879   2.720   5.592  14.236 -0.1174  1.8088 -0.2021
12130TIP3   OH257880   1.241   4.629  16.498  0.3950  0.0757  0.0511
12130TIP3    H157881   1.273   4.610  16.410  0.2244 -0.0854  0.0227
12130TIP3    H257882   1.165   4.571  16.509 -0.1609  0.7765 -0.0474
12131TIP3   OH257883   2.237   3.207   2.359 -0.3886 -0.2707 -0.6247
12131TIP3    H157884   2.150   3.230   2.327 -0.4615 -0.2614 -0.4173
12131TIP3    H257885   2.292   3.210   2.281 -0.1964  1.5468 -0.4508
12132TIP3   OH257886   1.706   0.058  11.018  0.3735 -0.7208 -0.1085
12132TIP3    H157887   1.649   0.026  10.948 -1.1619 -0.0897  0.8124
12132TIP3    H257888   1.675   0.147  11.035  0.4170 -1.0100  1.6696
12133TIP3   OH257889   0.048   1.657   4.842 -0.1438 -0.3115  0.2423
12133TIP3    H157890  -0.024   1.650   4.780 -1.0047 -0.9356  1.2854
12133TIP3    H257891   0.125   1.674   4.787 -0.0967 -4.7943 -1.4813
12134TIP3   OH257892   5.020   3.758  17.105 -0.0630  0.0898  0.2335
12134TIP3    H157893   5.053   3.682  17.058 -1.9202 -0.8135  0.2825
12134TIP3    H257894   4.935   3.730  17.139  0.6510  1.0861  3.1213
12135TIP3   OH257895   0.219   2.423  12.946  0.1569  0.1108 -0.1552
12135TIP3    H157896   0.313   2.442  12.957  0.1909  0.4187 -0.8749
12135TIP3    H257897   0.212   2.329  12.958  0.5744  0.0760 -0.1606
12136TIP3   OH257898   1.208   4.999   3.430  0.0958 -0.5299  0.1034
12136TIP3    H157899   1.142   4.931   3.414  1.0416 -1.0577 -1.8036
12136TIP3    H257900   1.281   4.951   3.469 -0.1651 -0.1440  1.1042
12137TIP3   OH257901   6.657   2.912   5.749 -0.3095 -0.4414  0.3728
12137TIP3    H157902   6.635   2.830   5.793 -1.2462 -0.2668  0.2583
12137TIP3    H257903   6.713   2.959   5.811  0.9548 -1.5280  0.0813
12138TIP3   OH257904   2.833   0.706   0.756  0.1529  0.0969  0.1473
12138TIP3    H157905   2.746   0.671   0.735  0.0570  0.6190 -0.3559
12138TIP3    H257906   2.888   0.628   0.769 -0.7175 -0.2724  1.9737
12139TIP3   OH257907   1.032   1.610  11.166 -0.1063  0.0236  0.0955
12139TIP3    H157908   1.006   1.627  11.076  0.0389 -0.5874 -0.0637
12139TIP3    H257909   1.045   1.697  11.204 -0.7305  0.2947 -0.3009
12140TIP3   OH257910   2.305   5.600  15.042  0.0182 -0.0882  0.1954
12140TIP3    H157911   2.330   5.617  15.133 -1.9404  0.3523  0.6876
12140TIP3    H257912   2.210   5.611  15.040  0.0282  0.1259 -1.9543
12141TIP3   OH257913   2.204   0.332   2.862  0.2267 -0.4674 -0.2217
12141TIP3    H157914   2.298   0.320   2.867  0.2222 -0.4705 -0.1528
12141TIP3    H257915   2.190   0.381   2.781  0.3003 -0.3105 -0.1377
12142TIP3   OH257916   2.415   1.150   1.943 -0.3727 -0.5960  0.1256
12142TIP3    H157917   2.419   1.073   1.999 -1.5953  0.1780  1.3599
12142TIP3    H257918   2.321   1.167   1.932 -0.1337  0.4306 -0.4924
12143TIP3   OH257919   4.639   4.315  12.164 -0.6288  0.0893  0.4692
12143TIP3    H157920   4.590   4.373  12.223  0.1658  0.4933  0.7438
12143TIP3    H257921   4.576   4.248  12.139 -1.8104  1.4940 -0.4856
12144TIP3   OH257922   0.221   6.269   0.401  0.4584  0.0598  0.3074
12144TIP3    H157923   0.200   6.176   0.396 -1.7718  0.4694  0.7502
12144TIP3    H257924   0.304   6.278   0.355  1.1100 -2.2435  0.9276
12145TIP3   OH257925   5.112   0.799  15.479 -0.2869 -0.4300  0.0801
12145TIP3    H157926   5.111   0.851  15.559 -1.1521  0.5397 -0.5384
12145TIP3    H257927   5.203   0.800  15.450 -0.1210 -0.0965  0.6055
12146TIP3   OH257928   0.590   5.494  13.303  0.4041  0.2432  0.2641
12146TIP3    H157929   0.549   5.568  13.257 -0.0677  1.0605  1.9027
12146TIP3    H257930   0.678   5.489  13.267  1.6091  3.7182  2.1923
12147TIP3   OH257931   5.070   5.887   1.012  0.0997  0.3807  0.3782
12147TIP3    H157932   5.083   5.940   0.934 -0.4795  1.2060  0.8237
12147TIP3    H257933   5.114   5.936   1.082 -0.4397  0.2744  0.7989
12148TIP3   OH257934   5.910   0.660  11.405 -0.2275 -0.1869 -0.0011
12148TIP3    H157935   5.901   0.643  11.311 -0.9590 -0.2541  0.0764
12148TIP3    H257936   5.859   0.591  11.447  0.3612 -0.3476  0.4606
12149TIP3   OH257937   3.445   4.313   1.974 -0.1053 -0.2064 -0.6635
12149TIP3    H157938   3.423   4.255   1.901 -0.7213  1.8060 -2.1890
12149TIP3    H257939   3.399   4.275   2.049 -3.4174  0.1262 -2.3397
12150TIP3   OH257940   6.524   5.760   4.882 -0.2249  0.0467  0.0398
12150TIP3    H157941   6.583   5.817   4.930 -1.1994  1.4460 -0.3384
12150TIP3    H257942   6.482   5.706   4.949  0.3088  0.1660  0.4706
12151TIP3   OH257943   5.820   3.693  15.244 -0.3513 -0.0539  0.1253
12151TIP3    H157944   5.799   3.725  15.332  1.4805 -1.4879  1.1595
12151TIP3    H257945   5.832   3.773  15.192 -0.3449  0.8542  1.4733
12152TIP3   OH257946   4.098   3.745   1.813  0.1568  0.0063  0.1079
12152TIP3    H157947   4.185   3.771   1.781  0.0886  0.4835  0.2921
12152TIP3    H257948   4.043   3.746   1.735  1.0401 -3.9188 -0.7789
12153TIP3   OH257949   0.388   1.132  14.831  0.4038  0.2235 -0.1279
12153TIP3    H157950   0.300   1.152  14.798  0.7049  0.9893 -0.4910
12153TIP3    H257951   0.419   1.214  14.869  1.3378  0.2430 -0.8859
12154TIP3   OH257952   1.642   6.115   4.771 -0.3426 -0.4555 -1.1078
12154TIP3    H157953   1.652   6.158   4.686  2.3298 -0.6112 -0.9454
12154TIP3    H257954   1.698   6.165   4.830 -1.2746 -1.0342  0.3326
12155TIP3   OH257955   5.119   3.713   4.463  0.4301 -0.1829 -1.0205
12155TIP3    H157956   5.131   3.789   4.406  3.1301  0.0612 -0.2549
12155TIP3    H257957   5.056   3.658   4.417  1.3423  0.7225 -3.4781
12156TIP3   OH257958   4.527   0.585   2.717  1.1661  0.2020  0.5205
12156TIP3    H157959   4.474   0.523   2.667  3.9692 -1.0738 -1.0714
12156TIP3    H257960   4.464   0.628   2.776 -1.8337 -0.2313 -2.0787
12157TIP3   OH257961   1.483   1.069   2.203 -0.1743  0.6164 -0.1702
12157TIP3    H157962   1.527   1.113   2.275 -0.1660 -1.2787  1.0443
12157TIP3    H257963   1.435   0.997   2.244 -1.6310  0.5453 -1.8575
12158TIP3   OH257964   1.537   3.975   3.417  0.0230 -0.1521  0.2407
12158TIP3    H157965   1.525   3.894   3.466 -1.7813 -0.4945 -0.6793
12158TIP3    H257966   1.625   3.969   3.381  0.1005 -1.4695  0.6174
12159TIP3   OH257967   3.268   0.394  14.891 -0.5006 -0.7533  0.5625
12159TIP3    H157968   3.306   0.310  14.915  0.5303 -0.1146  1.2191
12159TIP3    H257969   3.335   0.458  14.912 -0.7889  0.1411 -1.0724
12160TIP3   OH257970   6.752   6.289  14.792 -0.0996  0.3560  0.2276
12160TIP3    H157971   6.829   6.268  14.845 -0.8519  0.1039  1.2304
12160TIP3    H257972   6.691   6.330  14.852 -0.5239  1.1407 -0.7003
12161TIP3   OH257973   5.529   2.237  11.803 -0.4399 -0.1774  0.1203
12161TIP3    H157974   5.596   2.226  11.735  2.0516 -0.3669  2.4045
12161TIP3    H257975   5.545   2.325  11.837 -0.3609 -0.7686  1.6752
12162TIP3   OH257976   1.873   3.072  16.971 -0.3887  0.4485 -0.1150
12162TIP3    H157977   1.946   3.045  17.026 -1.6028 -0.4000  1.1101
12162TIP3    H257978   1.859   3.164  16.993  0.4949  0.7174 -0.6058
12163TIP3   OH257979   0.004   3.646  16.766 -0.1799 -0.2926 -0.2357
12163TIP3    H157980  -0.063   3.605  16.820 -0.5066 -1.4971 -1.4905
12163TIP3    H257981  -0.043   3.711  16.714  0.4622  2.4162  2.3278
12164TIP3   OH257982   3.439   3.852  15.284 -0.3462 -0.7274 -0.3134
12164TIP3    H157983   3.402   3.924  15.233 -0.7693  0.1582  1.1865
12164TIP3    H257984   3.530   3.845  15.252 -1.1971 -1.7848 -2.7924
12165TIP3   OH257985   1.560   1.607  11.584 -0.1542  0.7325  0.4438
12165TIP3    H157986   1.571   1.520  11.622 -0.2787  0.9448  0.9775
12165TIP3    H257987   1.493   1.596  11.517  0.2797  0.2925  0.0701
12166TIP3   OH257988   4.995   2.272   3.154  0.8854 -0.7797  0.0661
12166TIP3    H157989   4.940   2.303   3.226 -0.7109  0.3455 -1.5474
12166TIP3    H257990   5.079   2.316   3.167 -0.0521  1.1220  0.1137
12167TIP3   OH257991   0.929   3.192  12.875  0.9897 -0.5043  0.7141
12167TIP3    H157992   1.007   3.244  12.856 -0.8254  2.6660  1.1495
12167TIP3    H257993   0.907   3.216  12.965 -1.2973 -0.0813  0.0966
12168TIP3   OH257994   1.485   0.235  15.474  0.0247 -0.2949 -0.5958
12168TIP3    H157995   1.564   0.281  15.500 -0.4686  0.5139 -0.4732
12168TIP3    H257996   1.480   0.160  15.533  0.2899  0.0852 -0.0740
12169TIP3   OH257997   1.306   3.390   6.869  0.0769 -0.5450 -0.1489
12169TIP3    H157998   1.396   3.399   6.836  0.4357 -2.4285  0.2231
12169TIP3    H257999   1.273   3.312   6.826 -1.1473 -0.2829  0.2865
12170TIP3   OH258000   2.740   5.213  15.967 -0.9149  0.2512  0.3857
12170TIP3    H158001   2.818   5.158  15.972 -1.5820 -0.8371 -0.6181
12170TIP3    H258002   2.774   5.299  15.940 -0.0096 -0.0554  0.5008
12171TIP3   OH258003   2.499   5.134  14.002  0.2846 -0.1859 -0.4523
12171TIP3    H158004   2.575   5.174  13.959 -0.5252  0.4453 -1.3234
12171TIP3    H258005   2.474   5.063  13.943  0.4893 -0.7233  0.0917
12172TIP3   OH258006   0.086   3.029  10.959 -0.1932 -0.2283 -0.0226
12172TIP3    H158007   0.138   2.965  11.008  1.3636  0.3678 -0.8262
12172TIP3    H258008   0.038   2.976  10.894 -0.3681 -0.7508  0.5209
12173TIP3   OH258009   4.113   5.815   0.830 -0.0966  0.2210  0.0431
12173TIP3    H158010   4.050   5.885   0.845 -0.2258  0.4153 -1.2880
12173TIP3    H258011   4.195   5.861   0.811 -0.5528  0.1246 -2.5398
12174TIP3   OH258012   5.560   6.292  11.516  0.3963  0.4425  0.5742
12174TIP3    H158013   5.620   6.272  11.588  2.3766  1.2335 -0.7906
12174TIP3    H258014   5.571   6.218  11.456  0.4495  0.8884  0.0371
12175TIP3   OH258015   3.167   2.639   2.830 -0.5798 -0.4787 -0.3952
12175TIP3    H158016   3.090   2.583   2.820 -0.8748 -0.2814  0.6647
12175TIP3    H258017   3.132   2.728   2.838 -0.1038 -0.0793 -2.2527
12176TIP3   OH258018   4.405   3.390  16.745 -0.5590 -0.0128 -0.3389
12176TIP3    H158019   4.311   3.412  16.741 -0.6543 -0.5842 -2.2903
12176TIP3    H258020   4.445   3.446  16.678  0.4277 -0.1658  0.1140
12177TIP3   OH258021   4.921   0.972  15.393  0.1655 -0.0296 -0.3753
12177TIP3    H158022   4.875   0.940  15.315  1.8539  0.3139 -1.5603
12177TIP3    H258023   4.991   0.909  15.408  0.1746  0.1845  0.5774
12178TIP3   OH258024   2.882   1.277  15.011 -0.0412  0.0394  0.9771
12178TIP3    H158025   2.921   1.283  14.924  0.3360  0.3827  1.1664
12178TIP3    H258026   2.805   1.223  14.998 -0.2768  0.5048  0.3254
12179TIP3   OH258027   6.192   6.775  13.380 -0.4255 -0.3520 -0.3674
12179TIP3    H158028   6.202   6.867  13.356 -0.3912 -0.1000  0.5656
12179TIP3    H258029   6.282   6.740  13.376  0.1394  0.4949  2.4280
12180TIP3   OH258030   3.874   5.542  12.271 -0.2275 -0.2315 -0.7061
12180TIP3    H158031   3.815   5.616  12.258  0.1349  0.0742 -0.6594
12180TIP3    H258032   3.826   5.466  12.238 -1.7013 -0.4369  1.7169
12181TIP3   OH258033   0.989   5.035  14.697  0.0242 -0.4880 -0.5576
12181TIP3    H158034   1.009   5.016  14.606 -2.3155 -1.1412 -1.0082
12181TIP3    H258035   0.898   5.009  14.708  0.0566  0.0990  1.8355
12182TIP3   OH258036   0.979   1.035  13.434  0.5793  0.1403  0.8765
12182TIP3    H158037   0.992   0.988  13.517 -0.7270 -1.3195  0.3191
12182TIP3    H258038   0.895   1.078  13.444 -0.6349 -1.8019 -0.4031
12183TIP3   OH258039   4.927   1.427   5.652  0.1001  0.0446  0.5394
12183TIP3    H158040   4.918   1.397   5.742 -1.1762 -2.1147 -0.2280
12183TIP3    H258041   4.865   1.499   5.644  0.0421  0.0884  1.3211
12184TIP3   OH258042   6.311   5.133  15.743  0.1759  0.4137  0.3732
12184TIP3    H158043   6.401   5.137  15.777 -0.1413  2.9223  1.1301
12184TIP3    H258044   6.300   5.216  15.697 -1.8478  0.2763  0.5533
12185TIP3   OH258045   5.079   3.583   0.461 -0.1565  0.4665 -0.6362
12185TIP3    H158046   5.025   3.512   0.496 -0.1362  1.3038  1.2215
12185TIP3    H258047   5.031   3.615   0.385 -1.2709 -0.1059 -0.1904
12186TIP3   OH258048   0.645   1.011   1.969 -0.1666  0.0036 -0.1885
12186TIP3    H158049   0.667   1.055   1.887 -2.1499  0.1741 -0.6771
12186TIP3    H258050   0.700   1.054   2.035 -0.6822  1.9513 -0.9486
12187TIP3   OH258051   0.264   2.708   0.072 -0.5329 -0.4041  0.1314
12187TIP3    H158052   0.334   2.705   0.007 -1.5137 -0.8748 -0.9478
12187TIP3    H258053   0.267   2.621   0.113 -1.2585 -0.8826 -0.7901
12188TIP3   OH258054   1.366   1.261   5.628 -0.1075  0.2494  0.3322
12188TIP3    H158055   1.272   1.249   5.639 -0.0886 -0.0758  0.1568
12188TIP3    H258056   1.375   1.321   5.554 -0.1492 -1.2283 -0.9186
12189TIP3   OH258057   6.198   3.832  14.035  0.7598 -0.4162  0.0144
12189TIP3    H158058   6.279   3.839  14.086  1.5291  1.6710 -1.3640
12189TIP3    H258059   6.136   3.790  14.095  2.3834 -0.5530  1.6915
12190TIP3   OH258060   1.294   6.531  16.832 -0.1888 -0.2262 -0.3250
12190TIP3    H158061   1.355   6.516  16.759 -0.4827 -3.3147 -0.0646
12190TIP3    H258062   1.311   6.459  16.892 -2.7035 -0.0182  0.7303
12191TIP3   OH258063   0.429   4.338  14.472  0.3232 -0.2457  0.2965
12191TIP3    H158064   0.379   4.262  14.501  0.5163 -1.3948 -2.1319
12191TIP3    H258065   0.500   4.346  14.535  0.3091 -2.0984  0.5842
12192TIP3   OH258066   0.248   2.822   4.230  0.0088  0.7194  0.2883
12192TIP3    H158067   0.179   2.873   4.273 -0.9023 -0.7522  0.6489
12192TIP3    H258068   0.302   2.790   4.302  0.1297  0.5709  0.1321
12193TIP3   OH258069   0.251   1.369   3.401 -0.2626 -0.1858 -0.3602
12193TIP3    H158070   0.156   1.362   3.407 -0.2672  0.2907  0.2886
12193TIP3    H258071   0.272   1.449   3.450  0.6920 -1.5384  1.5433
12194TIP3   OH258072   4.278   2.334  11.934  0.5136  0.3128  0.1284
12194TIP3    H158073   4.330   2.289  11.868  0.3622 -2.0904  1.5325
12194TIP3    H258074   4.337   2.343  12.009  0.2025  1.5761  0.2524
12195TIP3   OH258075   5.993   3.884  11.217 -0.3986  0.5123 -0.3873
12195TIP3    H158076   6.024   3.875  11.127  1.2735  1.2561  0.0567
12195TIP3    H258077   6.056   3.944  11.257 -2.5535  2.2507  0.6139
12196TIP3   OH258078   2.520   5.704  13.156 -0.2539  0.4321  0.0158
12196TIP3    H158079   2.551   5.613  13.164 -2.4147 -0.2566  1.3716
12196TIP3    H258080   2.558   5.735  13.073  1.4772 -1.2905  0.0857
12197TIP3   OH258081   4.673   5.454  16.753  0.0077  0.1522  0.3421
12197TIP3    H158082   4.628   5.529  16.791  3.9673  1.6284  2.8386
12197TIP3    H258083   4.690   5.396  16.827  0.9661 -0.9406 -0.6895
12198TIP3   OH258084   1.713   1.092  11.800  0.4640  0.0919 -0.7116
12198TIP3    H158085   1.795   1.044  11.813  0.2574  0.2961  1.8405
12198TIP3    H258086   1.656   1.031  11.752  1.1843 -1.0840 -0.1127
12199TIP3   OH258087   5.012   0.682  15.148  0.0291 -0.1373 -0.5955
12199TIP3    H158088   4.944   0.747  15.163 -0.8366 -1.2684  0.6487
12199TIP3    H258089   4.968   0.612  15.100  1.0232  0.2767 -2.1932
12200TIP3   OH258090   1.909   1.307   2.376 -0.0738 -0.1416 -0.0478
12200TIP3    H158091   1.983   1.362   2.349  0.9994 -1.2836  0.4945
12200TIP3    H258092   1.835   1.342   2.327  0.5717  1.7522  0.2100
12201TIP3   OH258093   5.926   4.324   5.027  0.2942 -0.6704 -0.1812
12201TIP3    H158094   5.916   4.389   5.096  0.0872 -1.2427  0.3355
12201TIP3    H258095   6.021   4.309   5.022  0.2229 -1.6958  1.0077
12202TIP3   OH258096   6.215   4.339   2.489 -0.2322 -0.0346 -0.5639
12202TIP3    H158097   6.271   4.264   2.469 -0.9589 -0.8952  0.5140
12202TIP3    H258098   6.129   4.314   2.458 -0.8316 -0.3560  1.2260
12203TIP3   OH258099   3.175   0.987   6.831 -0.3155 -0.0187 -0.0232
12203TIP3    H158100   3.156   1.078   6.808 -1.0207 -0.2874 -0.5264
12203TIP3    H258101   3.271   0.982   6.831 -0.2393  0.1880 -2.2250
12204TIP3   OH258102   3.114   2.277   6.232  0.2719  0.3383 -0.1502
12204TIP3    H158103   3.121   2.294   6.326 -1.6502  2.9515 -0.3593
12204TIP3    H258104   3.198   2.305   6.196  0.6686  0.2571  0.6884
12205TIP3   OH258105   0.907   5.968  13.691  0.3779  0.1200  0.1422
12205TIP3    H158106   0.966   5.981  13.765  0.1369  0.4456  0.2769
12205TIP3    H258107   0.895   6.055  13.653  0.3576 -0.0172 -0.1710
12206TIP3   OH258108   3.479   0.812   6.601 -0.7382 -0.1512 -0.3867
12206TIP3    H158109   3.389   0.790   6.578 -0.2294 -0.7287 -1.8965
12206TIP3    H258110   3.518   0.728   6.625 -0.0634 -0.2148 -1.6726
12207TIP3   OH258111   1.443   1.003   5.211 -0.0113  0.7212  0.0658
12207TIP3    H158112   1.411   1.001   5.301  0.2852  1.9844  0.2217
12207TIP3    H258113   1.487   1.088   5.203  0.7108  0.2717 -1.0173
12208TIP3   OH258114   2.436   1.997  14.876  0.3702  0.0744 -0.2697
12208TIP3    H158115   2.402   1.968  14.791  0.4031 -2.3795  0.4780
12208TIP3    H258116   2.358   2.005  14.931  0.1375  3.3746 -0.8844
12209TIP3   OH258117   2.956   2.262   4.821 -0.2108  0.4214 -0.1470
12209TIP3    H158118   3.020   2.330   4.799 -0.5404  0.8417  0.1914
12209TIP3    H258119   3.008   2.194   4.864  0.1227  0.4469 -0.5022
12210TIP3   OH258120   0.233   1.894   3.636  0.2764 -0.3210 -0.6594
12210TIP3    H158121   0.297   1.950   3.592  0.4214 -1.1732 -1.6077
12210TIP3    H258122   0.151   1.910   3.589 -0.3024  0.9858  0.7445
12211TIP3   OH258123   0.594   6.800  17.244  0.5878 -0.0882 -0.0148
12211TIP3    H158124   0.665   6.815  17.182  1.0423  1.1848  0.7639
12211TIP3    H258125   0.628   6.832  17.328  0.1577 -2.1586  1.0222
12212TIP3   OH258126   2.887   3.182   4.193  0.7249 -0.1705  0.2486
12212TIP3    H158127   2.895   3.193   4.287  1.8254  0.6331  0.0866
12212TIP3    H258128   2.978   3.181   4.161  0.4431 -2.0313 -0.6371
12213TIP3   OH258129   3.310   3.205   2.016 -0.4352  0.0593  0.1013
12213TIP3    H158130   3.362   3.211   2.096 -0.4640 -0.1111  0.1332
12213TIP3    H258131   3.220   3.212   2.046 -0.4246  0.5376  0.0277
12214TIP3   OH258132   5.849   5.424  17.251  0.3376 -0.0846  0.1036
12214TIP3    H158133   5.794   5.378  17.315  0.2573 -1.3831 -0.8760
12214TIP3    H258134   5.928   5.447  17.300  0.8497 -2.2360  0.3700
12215TIP3   OH258135   5.999   6.393  14.512  0.2627  0.5766 -0.1355
12215TIP3    H158136   6.006   6.406  14.607  0.4884 -0.7132  0.0500
12215TIP3    H258137   6.090   6.382  14.484  0.1402  0.1810 -0.3755
12216TIP3   OH258138   4.218   1.981  11.581  0.1010  0.1134 -0.2747
12216TIP3    H158139   4.176   1.995  11.497 -0.0255  2.0393  0.0791
12216TIP3    H258140   4.248   1.890  11.578 -0.4350 -0.0304 -2.1412
12217TIP3   OH258141   3.137   3.400  14.942  0.1617 -0.1354  0.2395
12217TIP3    H158142   3.103   3.488  14.924  2.2137  0.8105  0.6960
12217TIP3    H258143   3.128   3.353  14.859 -0.6046  0.6225 -0.1195
12218TIP3   OH258144   1.872   2.879   2.298  0.0492 -0.4602  0.1617
12218TIP3    H158145   1.908   2.896   2.211  2.2561  0.3034  1.1256
12218TIP3    H258146   1.927   2.808   2.332 -1.8115 -1.8763  0.4040
12219TIP3   OH258147   5.774   6.001   4.426 -0.3072 -0.7050  0.2488
12219TIP3    H158148   5.714   5.996   4.351 -1.1007 -0.3531  0.8479
12219TIP3    H258149   5.861   6.002   4.386 -0.7248 -0.2070 -0.6893
12220TIP3   OH258150   2.913   3.235  16.802 -0.2796  0.1380  0.1424
12220TIP3    H158151   2.834   3.202  16.845 -0.1453 -0.2453  0.0953
12220TIP3    H258152   2.905   3.330  16.808 -1.3936  0.1440 -1.0324
12221TIP3   OH258153   1.657   5.425  12.576 -0.0360 -0.1150 -0.2149
12221TIP3    H158154   1.665   5.488  12.648  1.6629 -0.8585  0.2852
12221TIP3    H258155   1.680   5.475  12.498 -1.8263  0.6796 -0.2941
12222TIP3   OH258156   6.782   3.202   5.048 -0.2914 -0.0878 -0.1616
12222TIP3    H158157   6.769   3.212   5.142  2.2320  0.3750  0.1975
12222TIP3    H258158   6.749   3.114   5.029  1.4962 -1.2277  1.6710
12223TIP3   OH258159   0.594   3.069  16.596 -0.5029 -0.2044 -0.2119
12223TIP3    H158160   0.525   3.075  16.530 -1.3679  1.3590  0.7736
12223TIP3    H258161   0.659   3.133  16.568 -1.1349  0.8665  0.7209
12224TIP3   OH258162   1.409   2.211  14.918 -0.1358  0.1589  0.1301
12224TIP3    H158163   1.438   2.301  14.906 -0.6024  0.2829 -0.0800
12224TIP3    H258164   1.385   2.205  15.010  2.4257 -0.4978  0.8376
12225TIP3   OH258165   3.278   6.539  15.567  0.2713  0.1521 -0.1503
12225TIP3    H158166   3.191   6.515  15.600  0.8279 -0.2510  1.1158
12225TIP3    H258167   3.272   6.633  15.550 -0.1494  0.3207  0.8589
12226TIP3   OH258168   6.066   6.697  16.093 -0.0282 -0.3298  0.1071
12226TIP3    H158169   5.977   6.721  16.066 -0.2515 -1.1463  0.0910
12226TIP3    H258170   6.097   6.639  16.023  0.9336  0.7901 -0.4367
12227TIP3   OH258171   0.321   0.092   4.228  0.3701  0.3355 -0.7277
12227TIP3    H158172   0.354   0.108   4.140  1.6343 -1.1877 -0.5653
12227TIP3    H258173   0.233   0.056   4.214  1.1775 -1.4366 -1.4777
12228TIP3   OH258174   1.389   2.839  14.662 -0.5677 -0.1878  0.0042
12228TIP3    H158175   1.367   2.828  14.569 -0.8897 -0.9785  0.1719
12228TIP3    H258176   1.373   2.754  14.701  0.2154 -0.0404  0.6661
12229TIP3   OH258177   5.498   4.351  13.223 -0.1179  0.5567  0.2413
12229TIP3    H158178   5.443   4.273  13.232 -0.1154  0.7131  1.8946
12229TIP3    H258179   5.588   4.318  13.230 -0.0797  0.5954 -0.0454
12230TIP3   OH258180   2.093   4.183   3.651  0.0250 -0.1451 -0.1142
12230TIP3    H158181   2.176   4.229   3.653 -0.2510  0.3810 -0.4768
12230TIP3    H258182   2.110   4.104   3.599  0.2488  0.0567 -0.3461
12231TIP3   OH258183   4.650   5.439  15.563  0.3884  0.0275 -0.3697
12231TIP3    H158184   4.735   5.397  15.559  0.3233 -0.1119 -0.3148
12231TIP3    H258185   4.600   5.401  15.491  0.2981 -0.0626 -0.2611
12232TIP3   OH258186   4.367   3.939  14.180 -0.3310 -0.0819  0.1112
12232TIP3    H158187   4.332   3.861  14.222 -1.5909  0.4331  0.0600
12232TIP3    H258188   4.425   3.978  14.246 -2.4246  0.8301  1.5210
12233TIP3   OH258189   2.109   2.811  16.321 -0.5282  0.7648  0.1010
12233TIP3    H158190   2.078   2.843  16.406 -0.7352  1.9033 -0.3890
12233TIP3    H258191   2.137   2.890  16.274  0.2138  0.0817 -0.6423
12234TIP3   OH258192   4.587   0.284   2.545  0.1663 -0.2632 -0.6860
12234TIP3    H158193   4.505   0.280   2.496 -0.3880 -0.0128  0.2000
12234TIP3    H258194   4.614   0.376   2.537 -0.9411  0.2669  1.0509
12235TIP3   OH258195   4.870   0.076  15.816  0.1838 -0.0641 -0.4572
12235TIP3    H158196   4.909   0.118  15.893 -0.3025 -0.8054  0.2108
12235TIP3    H258197   4.873   0.143  15.748 -0.2456  0.9323  0.4767
12236TIP3   OH258198   6.228   6.512  11.990 -0.5347 -0.2509  0.2110
12236TIP3    H158199   6.152   6.523  12.048 -0.5703  0.9731 -0.0423
12236TIP3    H258200   6.275   6.595  11.996  0.3036 -0.6776 -0.3213
12237TIP3   OH258201   4.142   2.360  15.364  0.3949 -0.2345 -0.0306
12237TIP3    H158202   4.163   2.279  15.316  0.8949 -0.2678  0.2339
12237TIP3    H258203   4.047   2.359  15.372  0.4490 -1.3071  0.8145
12238TIP3   OH258204   5.615   4.277   5.741 -0.1410  0.5510 -0.6126
12238TIP3    H158205   5.641   4.365   5.715 -1.3934  1.5513  1.2095
12238TIP3    H258206   5.519   4.278   5.735 -0.2202 -0.4057  0.1896
12239TIP3   OH258207   0.958   0.252  14.014  0.5833  0.0923 -0.1928
12239TIP3    H158208   0.934   0.235  13.923 -0.9084 -0.0006  0.1944
12239TIP3    H258209   1.053   0.238  14.017  0.2753 -2.8412 -1.0859
12240TIP3   OH258210   6.291   2.017  16.839  0.5378  0.1078  0.6829
12240TIP3    H158211   6.238   2.093  16.863  0.3722 -0.5098  2.4458
12240TIP3    H258212   6.232   1.943  16.848  0.1737 -0.1908 -2.7597
12241TIP3   OH258213   3.442   3.018   1.337  0.1967 -0.4293 -0.4814
12241TIP3    H158214   3.399   3.091   1.383 -1.0557 -2.0870  1.1289
12241TIP3    H258215   3.536   3.035   1.348 -0.0729  0.8634 -0.0179
12242TIP3   OH258216   4.698   3.836  11.058 -0.2617 -0.1990 -0.0983
12242TIP3    H158217   4.610   3.864  11.033 -0.2796  0.7469  0.9220
12242TIP3    H258218   4.747   3.834  10.976 -1.0534 -0.0381 -0.5886
12243TIP3   OH258219   6.238   3.986   5.174  0.1543  0.0680 -0.1024
12243TIP3    H158220   6.241   3.918   5.242  0.6087  0.7835  0.6170
12243TIP3    H258221   6.149   4.022   5.180  0.6191  1.0913  1.1142
12244TIP3   OH258222   5.925   4.862   6.732  0.1892 -0.3718  0.0983
12244TIP3    H158223   5.835   4.829   6.725  0.4980 -0.8952 -1.9276
12244TIP3    H258224   5.976   4.804   6.676  1.7682  0.1031  0.9894
12245TIP3   OH258225   2.728   2.148   5.878  0.1880  0.1800 -0.8020
12245TIP3    H158226   2.780   2.114   5.805  0.1966  0.6151 -0.9981
12245TIP3    H258227   2.787   2.142   5.954 -0.5343 -2.3952 -0.3235
12246TIP3   OH258228   6.245   3.283   3.794  0.1389  0.8326  0.2614
12246TIP3    H158229   6.231   3.375   3.775  1.5336  0.8532 -0.8128
12246TIP3    H258230   6.332   3.264   3.760  0.7892 -0.3687  2.3809
12247TIP3   OH258231   4.496   2.471   4.132  0.2084 -0.2732 -0.2878
12247TIP3    H158232   4.464   2.512   4.213 -0.2282  0.1587 -0.6712
12247TIP3    H258233   4.433   2.401   4.115  0.0327 -0.0646 -0.5025
12248TIP3   OH258234   5.931   1.901  11.323 -0.4057  0.3722 -0.6897
12248TIP3    H158235   6.011   1.905  11.376  0.0276  1.6317 -1.3997
12248TIP3    H258236   5.935   1.979  11.268 -0.9501 -0.7912 -2.4355
12249TIP3   OH258237   5.482   2.549   2.278 -0.0578  0.4703 -0.3195
12249TIP3    H158238   5.502   2.510   2.193  2.1209  1.6576 -0.4411
12249TIP3    H258239   5.540   2.505   2.339 -0.3238  0.8631  0.2299
12250TIP3   OH258240   6.472   5.926   6.101  0.1079 -0.1512  0.3323
12250TIP3    H158241   6.531   5.917   6.177 -1.1010  0.3702  1.3786
12250TIP3    H258242   6.488   5.847   6.049  1.5257 -0.1519  0.7263
12251TIP3   OH258243   6.530   4.318  13.600 -0.4007  0.3056  0.1750
12251TIP3    H158244   6.551   4.349  13.688 -0.4573 -1.4131  0.8354
12251TIP3    H258245   6.460   4.254  13.613 -0.3248 -0.0626 -1.1004
12252TIP3   OH258246   5.475   5.035   2.624 -0.0676 -0.7925  0.0514
12252TIP3    H158247   5.405   5.064   2.564  1.2901  1.8022 -0.4516
12252TIP3    H258248   5.530   4.978   2.570 -2.2089 -3.7505  0.7389
12253TIP3   OH258249   1.206   5.202  14.116 -0.3393 -0.3992  0.0952
12253TIP3    H158250   1.115   5.174  14.104 -0.6491 -0.7415  2.7629
12253TIP3    H258251   1.257   5.123  14.098 -0.5034 -0.1412 -1.6692
12254TIP3   OH258252   3.543   0.151   4.369  0.0464 -0.3191 -0.4307
12254TIP3    H158253   3.529   0.090   4.297 -1.5471 -1.1070  0.4854
12254TIP3    H258254   3.542   0.237   4.328  0.9675 -0.8245 -1.5649
12255TIP3   OH258255   1.321   6.811   3.955 -0.2431  0.7402  0.5258
12255TIP3    H158256   1.244   6.838   4.004 -0.7797 -0.8457  0.5963
12255TIP3    H258257   1.326   6.716   3.967 -0.2979  0.2848 -2.3123
12256TIP3   OH258258   4.466   1.897   1.232 -0.1105 -0.6590 -0.0702
12256TIP3    H158259   4.411   1.959   1.185 -0.3202 -1.4937 -0.9641
12256TIP3    H258260   4.417   1.876   1.311 -1.5549 -2.0888 -1.2880
12257TIP3   OH258261   5.296   0.634   4.404 -0.1889 -0.6280  0.2862
12257TIP3    H158262   5.289   0.701   4.472 -0.3124 -0.3581  0.0126
12257TIP3    H258263   5.314   0.684   4.324 -1.4811 -0.8041 -0.1481
12258TIP3   OH258264   6.775   1.099   2.644 -0.5443 -0.3127  0.1926
12258TIP3    H158265   6.803   1.176   2.693 -0.8273 -0.2881  0.3127
12258TIP3    H258266   6.843   1.033   2.662 -0.2934 -0.0897  0.0751
12259TIP3   OH258267   3.333   1.055  16.082 -0.0765 -1.1400  0.0333
12259TIP3    H158268   3.240   1.061  16.060 -0.1549 -0.7642  0.4386
12259TIP3    H258269   3.340   0.974  16.134 -0.3887 -0.5915  0.9600
12260TIP3   OH258270   5.972   4.383   3.748 -0.0391  0.4168 -0.5344
12260TIP3    H158271   5.920   4.386   3.668 -0.0108  0.8033 -0.5381
12260TIP3    H258272   5.988   4.474   3.770  1.0029  0.2919 -0.7634
12261TIP3   OH258273   5.210   4.437   5.273 -0.6926  0.1029  0.7507
12261TIP3    H158274   5.172   4.479   5.195  1.4363  0.7871  0.0082
12261TIP3    H258275   5.194   4.499   5.344  0.2017  1.0443  0.1648
12262TIP3   OH258276   4.722   6.167   1.101  0.2133  0.3365 -0.0546
12262TIP3    H158277   4.675   6.225   1.041 -1.4969 -0.4891  0.4114
12262TIP3    H258278   4.735   6.086   1.051  1.7528  0.7615 -0.3881
12263TIP3   OH258279   4.857   2.003   1.136  0.2588  0.0086  0.5722
12263TIP3    H158280   4.823   2.062   1.204 -1.3354 -0.8109  0.5167
12263TIP3    H258281   4.785   1.995   1.074  0.9185 -1.0133 -0.0735
12264TIP3   OH258282   6.629   2.909   2.681 -0.0079  0.3179  0.1989
12264TIP3    H158283   6.659   2.818   2.679 -1.4043 -0.1603 -0.9936
12264TIP3    H258284   6.561   2.914   2.613 -0.3009  2.1368  0.5541
12265TIP3   OH258285   2.172   5.635   1.472  0.5730 -0.4140 -0.0778
12265TIP3    H158286   2.107   5.704   1.486 -0.0887 -0.6531 -1.6952
12265TIP3    H258287   2.194   5.604   1.560 -1.3152 -0.1578  0.5291
12266TIP3   OH258288   6.151   0.201  11.371  0.5631 -0.4261  0.0269
12266TIP3    H158289   6.188   0.114  11.360  0.2516 -0.4736 -0.6972
12266TIP3    H258290   6.213   0.260  11.329  0.6580 -0.3184  0.3139
12267TIP3   OH258291   1.637   4.494   6.024 -0.2530  0.2828  0.2415
12267TIP3    H158292   1.605   4.416   5.979  0.8747 -0.4977  0.7520
12267TIP3    H258293   1.615   4.479   6.116  1.4308 -0.2227  0.5898
12268TIP3   OH258294   6.398   5.365  16.271 -0.2159 -0.6866 -0.2773
12268TIP3    H158295   6.494   5.361  16.278 -0.3303 -1.2962  1.7897
12268TIP3    H258296   6.371   5.273  16.262 -0.5916 -0.4578 -1.6491
12269TIP3   OH258297   2.138   0.677   5.244  0.0120 -0.2042 -0.2582
12269TIP3    H158298   2.107   0.721   5.164  0.9832 -1.7472 -1.5371
12269TIP3    H258299   2.206   0.617   5.214  2.0868  0.8133  2.0537
12270TIP3   OH258300   2.826   2.669   2.254 -0.3602 -0.0556  0.1023
12270TIP3    H158301   2.846   2.752   2.212 -0.7291  0.0629  0.1509
12270TIP3    H258302   2.902   2.649   2.308  0.1604 -0.2586 -0.6967
12271TIP3   OH258303   0.841   1.261  16.641  0.2395  0.7517  0.1029
12271TIP3    H158304   0.767   1.283  16.698 -0.4069 -1.9107  0.4389
12271TIP3    H258305   0.804   1.253  16.554 -0.0015 -0.9559  0.3322
12272TIP3   OH258306   1.319   3.990   4.141  0.6244 -0.1273 -0.3143
12272TIP3    H158307   1.361   4.005   4.226 -0.7816 -1.9151  0.7793
12272TIP3    H258308   1.386   4.013   4.077  1.7206  1.3235  1.2575
12273TIP3   OH258309   2.972   6.691  13.976  0.1167  0.3042 -1.0744
12273TIP3    H158310   3.016   6.776  13.973  1.0265 -0.1755 -1.7348
12273TIP3    H258311   3.021   6.636  13.914  1.3005 -1.5513  1.3625
12274TIP3   OH258312   6.694   0.934   0.323 -0.8778  0.5903 -0.0124
12274TIP3    H158313   6.618   0.919   0.267  0.1584 -1.7058 -0.9324
12274TIP3    H258314   6.659   0.978   0.400 -2.6958  1.9238 -1.5054
12275TIP3   OH258315   5.342   3.419   4.238 -0.1353 -0.0782 -0.3238
12275TIP3    H158316   5.386   3.370   4.168  0.6540 -0.3150  0.3345
12275TIP3    H258317   5.321   3.353   4.303  0.3645  0.3563  0.2863
12276TIP3   OH258318   2.941   4.324  13.644  0.1501 -0.0085  0.3334
12276TIP3    H158319   2.887   4.353  13.571  1.2766  0.7510 -0.2223
12276TIP3    H258320   2.898   4.244  13.675 -0.1594 -0.5406 -1.3757
12277TIP3   OH258321   5.416   1.788   1.771  0.1144  0.0802  0.3057
12277TIP3    H158322   5.342   1.801   1.713  1.8059 -0.6094 -2.1417
12277TIP3    H258323   5.418   1.694   1.787  0.2604  0.1418  0.6593
12278TIP3   OH258324   5.039   0.420   1.529 -0.6421 -0.0237 -0.7113
12278TIP3    H158325   4.973   0.422   1.460  1.7619  0.3885 -3.1812
12278TIP3    H258326   5.107   0.480   1.499  0.7765 -0.2047  1.8199
12279TIP3   OH258327   4.161   2.090   4.198 -0.2716  0.1606 -0.4762
12279TIP3    H158328   4.087   2.149   4.214  0.4248  0.9137 -0.0286
12279TIP3    H258329   4.129   2.004   4.227 -0.4348  0.7658  1.2442
12280TIP3   OH258330   4.954   0.868   0.537  0.0152  0.0360  0.1188
12280TIP3    H158331   4.946   0.780   0.501  0.1841 -0.6043  1.5720
12280TIP3    H258332   5.047   0.890   0.526 -0.0912  0.1820 -0.5437
12281TIP3   OH258333   6.531   3.035  12.809  0.5562  0.2950  0.4912
12281TIP3    H158334   6.448   2.988  12.813 -0.8059  2.5788  2.1717
12281TIP3    H258335   6.506   3.124  12.783  2.6947  0.6622 -0.4900
12282TIP3   OH258336   3.135   5.042   0.385 -0.5218 -0.0638 -0.4321
12282TIP3    H158337   3.106   5.102   0.454 -1.5336 -1.5424  0.4859
12282TIP3    H258338   3.230   5.054   0.381 -0.4010 -0.2006  1.4692
12283TIP3   OH258339   3.711   2.917  17.214 -0.4191 -0.1900  0.3753
12283TIP3    H158340   3.667   2.981  17.158  0.7322  0.1254 -0.2041
12283TIP3    H258341   3.795   2.902  17.171  0.4712 -0.0061  1.9888
12284TIP3   OH258342   2.576   4.481  12.650 -0.2769 -0.9559 -0.4616
12284TIP3    H158343   2.547   4.418  12.715  1.1929  1.2103  2.5101
12284TIP3    H258344   2.640   4.433  12.596  1.3372 -1.9095  2.1308
12285TIP3   OH258345   2.868   5.099  16.316 -0.0300 -0.7787 -0.2557
12285TIP3    H158346   2.925   5.023  16.304  2.8243  0.8537  1.7671
12285TIP3    H258347   2.836   5.092  16.406 -1.1985 -0.4360 -0.6170
12286TIP3   OH258348   1.608   1.889   1.907  0.4168  0.8141  0.2503
12286TIP3    H158349   1.551   1.859   1.977  1.0049 -1.9940 -0.3730
12286TIP3    H258350   1.549   1.913   1.835 -0.0736 -1.2703 -0.0944
12287TIP3   OH258351   3.961   1.555  13.075  0.2181 -0.2977 -1.1313
12287TIP3    H158352   4.047   1.518  13.053 -0.7201 -2.6328 -1.1186
12287TIP3    H258353   3.898   1.487  13.051 -1.5256  0.7039  0.3395
12288TIP3   OH258354   1.994   6.460  13.082  0.3607  0.7719 -0.0361
12288TIP3    H158355   1.954   6.441  12.997 -0.0758  0.5579  0.2164
12288TIP3    H258356   2.072   6.511  13.060  0.3073  0.6312 -0.5730
12289TIP3   OH258357   6.119   1.431   4.651  0.0495 -0.0335  0.0185
12289TIP3    H158358   6.069   1.355   4.620 -0.4082 -0.9586  2.7420
12289TIP3    H258359   6.060   1.505   4.640 -0.2049 -0.3690 -0.9560
12290TIP3   OH258360   0.896   6.675   4.028  0.2330  0.2685 -0.1469
12290TIP3    H158361   0.845   6.751   4.000 -0.9624 -1.2128 -2.2716
12290TIP3    H258362   0.843   6.599   4.003  2.5460 -1.3179 -0.5689
12291TIP3   OH258363   0.774   5.457   5.056 -0.6608 -0.1334 -0.0768
12291TIP3    H158364   0.728   5.501   4.985 -1.0367  0.4856  0.5306
12291TIP3    H258365   0.714   5.389   5.085 -0.3381 -0.6523 -0.6105
12292TIP3   OH258366   0.971   2.520  15.872 -0.2173  0.7384  1.0280
12292TIP3    H158367   1.023   2.600  15.862 -0.3701  0.8302  0.9634
12292TIP3    H258368   0.886   2.551  15.904 -0.7174  0.7377 -0.2453
12293TIP3   OH258369   3.161   5.804   1.161 -0.6296  0.0574  0.4152
12293TIP3    H158370   3.096   5.856   1.113  1.3167  1.1491 -1.2042
12293TIP3    H258371   3.150   5.715   1.126 -1.2537  0.2246  0.1700
12294TIP3   OH258372   1.169   3.784   2.568 -0.9629 -0.0596  0.6217
12294TIP3    H158373   1.260   3.802   2.591 -0.5276  0.3078 -1.2631
12294TIP3    H258374   1.167   3.690   2.550 -0.8847 -0.0135  0.3702
12295TIP3   OH258375   3.811   3.694   5.670 -0.4935  0.2089  0.5862
12295TIP3    H158376   3.762   3.649   5.738 -0.5881  0.3390  0.6044
12295TIP3    H258377   3.750   3.760   5.636 -0.1515  0.7372  0.9800
12296TIP3   OH258378   0.695   1.674  15.722  0.1274 -0.3873  0.0488
12296TIP3    H158379   0.763   1.710  15.665 -0.2881  0.3238 -0.0048
12296TIP3    H258380   0.624   1.738  15.719 -0.3235 -0.8486  0.5469
12297TIP3   OH258381   3.203   3.208   1.689  0.1425 -0.1912  0.1095
12297TIP3    H158382   3.198   3.302   1.708 -0.8140 -0.1656 -0.2205
12297TIP3    H258383   3.112   3.179   1.687  0.4058 -1.0118 -0.3713
12298TIP3   OH258384   6.767   2.040   5.070 -0.2620 -0.0854  0.1324
12298TIP3    H158385   6.851   2.024   5.115 -0.1561 -0.1877 -0.1038
12298TIP3    H258386   6.701   2.021   5.136 -0.0833  1.4251  0.8093
12299TIP3   OH258387   5.655   2.376  14.728  0.1962 -0.4059 -0.4678
12299TIP3    H158388   5.641   2.289  14.690 -2.0879  0.0510 -0.7994
12299TIP3    H258389   5.591   2.432  14.685  0.5729  1.1125  0.8478
12300TIP3   OH258390   3.822   0.324   1.391  0.1402  0.3401 -0.4773
12300TIP3    H158391   3.773   0.242   1.394 -0.0513  0.4796  0.5539
12300TIP3    H258392   3.907   0.304   1.429 -0.7609  1.1524  2.1459
12301TIP3   OH258393   5.914   0.042  14.854 -0.4953 -0.2673 -0.4299
12301TIP3    H158394   5.952   0.129  14.871  1.3606 -0.5980 -2.4286
12301TIP3    H258395   5.820   0.054  14.869 -0.4102  2.3228 -1.4483
12302TIP3   OH258396   5.917   0.779   6.012 -0.4797 -0.6872 -0.1431
12302TIP3    H158397   5.977   0.822   5.952 -0.9760  0.4783  0.1773
12302TIP3    H258398   5.830   0.804   5.981 -0.8437 -2.5704 -0.7695
12303TIP3   OH258399   0.361   6.355   3.501 -0.3551 -0.1314 -0.3102
12303TIP3    H158400   0.277   6.398   3.487 -1.4226 -2.1910 -0.7462
12303TIP3    H258401   0.417   6.385   3.429 -0.2918  2.1357  0.6226
12304TIP3   OH258402   0.871   6.654   4.916 -0.0576  0.0015  0.2935
12304TIP3    H158403   0.891   6.628   5.005 -1.9217 -2.7088  0.0549
12304TIP3    H258404   0.949   6.701   4.886  0.4866  1.2731  3.3857
12305TIP3   OH258405   4.188   0.197   1.048 -0.0175  0.6423  0.3150
12305TIP3    H158406   4.241   0.207   1.127 -1.1055 -0.7796  1.2749
12305TIP3    H258407   4.140   0.280   1.041 -0.4668  0.5176  1.6074
12306TIP3   OH258408   3.315   2.838  12.813 -0.0119 -0.7864 -0.5300
12306TIP3    H158409   3.227   2.801  12.809  0.0687 -0.9173 -1.2988
12306TIP3    H258410   3.319   2.883  12.897 -1.7185  1.4696 -1.5419
12307TIP3   OH258411   4.922   2.717  13.238  0.0025 -0.7730 -0.3222
12307TIP3    H158412   4.866   2.640  13.247 -1.1548  0.2277  1.6873
12307TIP3    H258413   4.865   2.791  13.260  1.8265  0.3936  0.7737
12308TIP3   OH258414   4.726   1.871   3.740  0.1063 -0.2592  0.3765
12308TIP3    H158415   4.739   1.932   3.668  0.7329 -0.5323  0.2479
12308TIP3    H258416   4.708   1.926   3.816  1.1989  0.1206  0.3813
12309TIP3   OH258417   6.333   1.495  16.871 -0.0165 -0.9856  0.4685
12309TIP3    H158418   6.292   1.558  16.811  0.7648 -0.8038  0.1131
12309TIP3    H258419   6.267   1.427  16.882 -0.7929 -0.2283  0.6702
12310TIP3   OH258420   4.670   6.629   1.345  0.2353  0.2750  0.2857
12310TIP3    H158421   4.607   6.688   1.386  0.9544 -0.0857  1.9700
12310TIP3    H258422   4.727   6.600   1.416  0.3740 -1.8757 -0.6061
12311TIP3   OH258423   2.161   0.035  16.003 -0.0195  0.0903  0.0823
12311TIP3    H158424   2.244   0.062  15.964  0.1425 -1.3878 -0.6460
12311TIP3    H258425   2.185  -0.038  16.061 -0.7163  0.1557  0.4593
12312TIP3   OH258426   3.240   0.533  14.677  0.5031 -0.2445  0.6367
12312TIP3    H158427   3.243   0.481  14.757 -0.4414 -0.4556  0.5532
12312TIP3    H258428   3.329   0.532  14.643  1.7821  2.4809  3.3498
12313TIP3   OH258429   1.204   5.200   3.252 -0.3170  0.2447  0.0609
12313TIP3    H158430   1.112   5.197   3.224 -0.6058  1.7110  0.7107
12313TIP3    H258431   1.214   5.125   3.309 -0.9592 -0.2566 -0.4684
12314TIP3   OH258432   2.282   1.447  15.607 -0.5043  0.3049 -0.3492
12314TIP3    H158433   2.339   1.370  15.601  1.8782  1.7536  1.7345
12314TIP3    H258434   2.311   1.504  15.535  0.6227  0.9574  0.5922
12315TIP3   OH258435   2.000   2.937   1.280  0.1586  0.0888 -0.3231
12315TIP3    H158436   2.075   2.906   1.331 -0.4845 -0.2984  0.3963
12315TIP3    H258437   1.987   2.870   1.213  1.7884  1.1961 -1.8531
12316TIP3   OH258438   5.045   3.298  12.890  0.1709  0.2879  0.3747
12316TIP3    H158439   5.057   3.203  12.884  0.1107  0.2453  0.8460
12316TIP3    H258440   5.079   3.332  12.808 -1.6474 -0.3031 -0.6807
12317TIP3   OH258441   3.358   4.759  16.107  0.0050  0.4679  0.3451
12317TIP3    H158442   3.379   4.674  16.146 -2.3528 -0.1049  0.5708
12317TIP3    H258443   3.367   4.821  16.178  0.6847  0.2279  0.4688
12318TIP3   OH258444   2.348   2.924   2.241 -0.7656  0.1106 -0.1333
12318TIP3    H158445   2.416   2.868   2.203 -1.2728  0.2272 -1.2706
12318TIP3    H258446   2.355   3.006   2.192 -1.3004  0.3454  0.1752
12319TIP3   OH258447   0.998   0.639   6.407  0.2002  0.3216  0.4435
12319TIP3    H158448   1.068   0.691   6.367 -0.5656  1.0562  0.0395
12319TIP3    H258449   0.918   0.670   6.365 -0.3553 -0.6376  0.7721
12320TIP3   OH258450   3.629   3.587   3.764 -0.1137  0.5568  0.3670
12320TIP3    H158451   3.691   3.564   3.833  0.7718 -1.3290 -0.9301
12320TIP3    H258452   3.681   3.633   3.699 -0.7514  1.5839  0.5653
12321TIP3   OH258453   0.198   5.129   2.383 -0.7632 -0.2870 -0.0288
12321TIP3    H158454   0.205   5.163   2.294 -1.1644 -1.5222 -0.5507
12321TIP3    H258455   0.265   5.061   2.388  1.9898  2.3440  1.9037
12322TIP3   OH258456   4.878   4.887   0.958  0.5699  0.4963  0.8267
12322TIP3    H158457   4.829   4.822   0.908  0.6277 -0.6538  2.1771
12322TIP3    H258458   4.969   4.872   0.934  0.7567 -1.0841  2.3053
12323TIP3   OH258459   6.626   3.473  14.120 -0.1147  0.7172 -0.5034
12323TIP3    H158460   6.564   3.433  14.181 -0.0712  0.4576 -0.6319
12323TIP3    H258461   6.691   3.515  14.177 -0.2761  0.7857 -0.3702
12324TIP3   OH258462   3.799   2.976   5.534  0.5685 -0.5319 -0.2928
12324TIP3    H158463   3.733   2.927   5.485 -1.7616  3.1444 -1.2900
12324TIP3    H258464   3.871   2.988   5.471 -0.1987 -0.0970 -1.1168
12325TIP3   OH258465   3.620   6.669   1.755  0.6971  0.7090  0.2687
12325TIP3    H158466   3.556   6.629   1.696 -0.7336  1.3668  1.3156
12325TIP3    H258467   3.658   6.741   1.704  1.5575 -0.4707 -0.8009
12326TIP3   OH258468   0.058   6.702   3.291  0.1100 -0.3944 -0.1013
12326TIP3    H158469  -0.032   6.670   3.300  0.0135  0.3966  3.7285
12326TIP3    H258470   0.048   6.791   3.256 -0.5688 -0.4537 -0.0727
12327TIP3   OH258471   1.303   0.771  14.340  0.1078  0.1494  0.0286
12327TIP3    H158472   1.374   0.835  14.344 -0.1983  0.5895 -1.1443
12327TIP3    H258473   1.311   0.720  14.421  0.9488  1.0415  0.5196
12328TIP3   OH258474   0.559   5.442   5.945  0.0398 -0.5419  0.0642
12328TIP3    H158475   0.526   5.521   5.904 -0.2451 -0.2522  0.8376
12328TIP3    H258476   0.517   5.439   6.031  1.2146 -0.7089  0.6620
12329TIP3   OH258477   5.655   4.563  12.522 -0.3061  0.0978 -0.9076
12329TIP3    H158478   5.618   4.584  12.607  0.3517  1.5734 -0.9512
12329TIP3    H258479   5.621   4.631  12.464  2.3847  1.5524 -0.9337
12330TIP3   OH258480   1.555   0.535  11.452  0.2213  0.2930  0.2418
12330TIP3    H158481   1.469   0.493  11.449  1.2417 -2.1227  1.6668
12330TIP3    H258482   1.603   0.495  11.379  0.0577  1.9351 -0.8030
12331TIP3   OH258483   2.601   6.508   5.758  0.1096  0.0830 -0.0720
12331TIP3    H158484   2.606   6.453   5.836  0.6735 -2.6793 -1.9128
12331TIP3    H258485   2.632   6.594   5.787  0.5916 -0.9240  2.6460
12332TIP3   OH258486   2.828   4.487   5.152 -0.4294 -0.5892 -0.1722
12332TIP3    H158487   2.751   4.502   5.207  0.1183  2.5578 -0.0690
12332TIP3    H258488   2.895   4.455   5.213 -0.4720  0.7462  0.6316
12333TIP3   OH258489   6.105   6.190  12.288  0.0882 -0.0656 -0.1743
12333TIP3    H158490   6.172   6.259  12.278 -0.2580  0.5919  1.6625
12333TIP3    H258491   6.107   6.169  12.381  0.5927 -3.0359 -0.7649
12334TIP3   OH258492   4.012   1.906   0.633  0.4834 -0.2040 -0.3766
12334TIP3    H158493   3.990   1.906   0.726  0.1572 -0.0103 -0.4519
12334TIP3    H258494   4.019   1.813   0.610  0.1930 -0.2604 -0.2442
12335TIP3   OH258495   1.086   2.982  12.789  0.0032 -0.1982 -0.0294
12335TIP3    H158496   1.015   3.046  12.795  0.5660  0.5608 -1.1522
12335TIP3    H258497   1.108   2.962  12.880  0.8791  2.4205  0.4148
12336TIP3   OH258498   2.090   6.056   2.834 -0.4236 -0.3247  0.2249
12336TIP3    H158499   2.065   6.054   2.742 -1.0473  1.1864  0.3469
12336TIP3    H258500   2.180   6.024   2.835 -0.9868 -2.1157 -0.6673
12337TIP3   OH258501   1.039   5.387   0.829 -0.4918  0.2459 -0.1425
12337TIP3    H158502   1.089   5.405   0.750 -1.1474  1.4493 -0.3095
12337TIP3    H258503   0.947   5.385   0.800 -0.6852 -0.0365  0.4679
12338TIP3   OH258504   5.032   1.188  12.959  0.1922  0.2008  0.1387
12338TIP3    H158505   4.945   1.148  12.956  0.7705 -1.1222  0.3478
12338TIP3    H258506   5.027   1.250  13.032 -0.0576 -1.1857  1.3485
12339TIP3   OH258507   4.758   4.748  13.044 -0.2255  0.1430  0.4820
12339TIP3    H158508   4.804   4.818  13.090 -0.9831  0.4795  0.7283
12339TIP3    H258509   4.696   4.793  12.986 -0.2048 -0.3071  0.1003
12340TIP3   OH258510   1.858   0.706  12.628  0.0528  0.6200 -0.0499
12340TIP3    H158511   1.943   0.719  12.670  0.1809 -0.2466 -0.0265
12340TIP3    H258512   1.866   0.622  12.582 -1.2750 -0.2372  1.1934
12341TIP3   OH258513   4.235   4.636  15.713 -0.1478  0.1386  0.4140
12341TIP3    H158514   4.314   4.690  15.712 -0.1954  0.2197  0.9627
12341TIP3    H258515   4.163   4.699  15.710 -0.2016  0.0481 -0.8322
12342TIP3   OH258516   3.777   1.345  13.088  0.0011  0.2948  0.1068
12342TIP3    H158517   3.850   1.320  13.145 -0.1214  1.9996  1.0746
12342TIP3    H258518   3.730   1.412  13.138 -0.8596  0.9263 -1.4931
12343TIP3   OH258519   5.264   2.108  14.077  0.0536 -0.3196 -0.0058
12343TIP3    H158520   5.226   2.073  13.996  0.0138 -1.8567  0.6469
12343TIP3    H258521   5.264   2.203  14.064 -1.5402 -0.4283 -1.1065
12344TIP3   OH258522   1.045   5.152  12.153 -0.0693  0.1788  0.0770
12344TIP3    H158523   0.993   5.169  12.232 -0.1789  0.6160 -0.0877
12344TIP3    H258524   1.057   5.238  12.113 -0.2912 -0.0805 -0.5603
12345TIP3   OH258525   3.581   3.951  14.372 -0.3594  0.0675  0.3459
12345TIP3    H158526   3.575   4.023  14.309 -0.3337  0.4610  0.7941
12345TIP3    H258527   3.674   3.938  14.385 -0.3696  0.4443  0.8229
12346TIP3   OH258528   6.020   6.153   4.856 -0.0102  0.4132 -1.0429
12346TIP3    H158529   6.110   6.148   4.826  0.7014  1.2326  0.7809
12346TIP3    H258530   5.992   6.061   4.865  1.1846  0.1074 -0.1874
12347TIP3   OH258531   3.591   4.130   1.613 -0.6570  0.0124  0.4790
12347TIP3    H158532   3.656   4.070   1.577 -1.7267  0.1828 -1.8991
12347TIP3    H258533   3.560   4.086   1.693  0.0066 -1.6348 -0.1262
12348TIP3   OH258534   0.552   1.076   1.225 -0.2821  0.4420 -0.4095
12348TIP3    H158535   0.623   1.069   1.162 -0.4623  1.0450 -0.6889
12348TIP3    H258536   0.482   1.021   1.189  0.3365 -0.8675  0.3075
12349TIP3   OH258537   1.158   1.880  12.634 -0.3186 -0.0179  0.1082
12349TIP3    H158538   1.103   1.924  12.570  0.0736  0.2586 -0.0456
12349TIP3    H258539   1.101   1.864  12.709 -0.2812  1.5015  0.5027
12350TIP3   OH258540   2.297   2.643  16.541 -0.3447  0.2039  0.0361
12350TIP3    H158541   2.202   2.629  16.544 -0.0011 -2.4923  1.1364
12350TIP3    H258542   2.333   2.559  16.512  1.7766  0.7456  0.9229
12351TIP3   OH258543   0.265   2.240   2.522 -0.1056 -0.1291  0.1596
12351TIP3    H158544   0.315   2.258   2.442 -0.0667 -0.1560  0.1775
12351TIP3    H258545   0.326   2.189   2.576  0.1221  0.5034  0.5021
12352TIP3   OH258546   0.012   4.484   2.145  0.0562 -0.1540 -0.4738
12352TIP3    H158547   0.082   4.545   2.122 -0.0699  0.6590  1.1682
12352TIP3    H258548   0.023   4.411   2.083  0.7369  1.1173 -1.9208
12353TIP3   OH258549   5.038   5.639   1.363  0.7012 -0.6413  0.0195
12353TIP3    H158550   5.088   5.574   1.314 -0.2584 -1.9730  0.7540
12353TIP3    H258551   5.025   5.599   1.450 -2.3910 -0.7932 -0.3995
12354TIP3   OH258552   5.226   1.085  16.351  0.5189 -0.1778 -0.4848
12354TIP3    H158553   5.209   1.150  16.418 -0.7537  0.9925 -1.8723
12354TIP3    H258554   5.170   1.010  16.376 -0.6410  0.5915 -0.7041
12355TIP3   OH258555   2.536   6.343  15.796  0.6556  0.2642  0.1758
12355TIP3    H158556   2.502   6.293  15.722 -0.8615  0.3598  0.7738
12355TIP3    H258557   2.498   6.301  15.873  1.0935  1.0162  0.8167
12356TIP3   OH258558   4.190   5.155  15.274  0.3736  0.1580 -0.3107
12356TIP3    H158559   4.127   5.214  15.232 -0.6022  0.1661  1.1065
12356TIP3    H258560   4.138   5.104  15.336  1.7597  0.2097  0.9434
12357TIP3   OH258561   3.394   3.077  12.670  0.5515 -0.0453 -0.2228
12357TIP3    H158562   3.388   2.986  12.700  1.2812 -0.6904 -1.9152
12357TIP3    H258563   3.481   3.106  12.697  0.5269 -0.0264 -0.1631
12358TIP3   OH258564   4.039   3.282  14.996 -0.4085 -0.4455 -0.0946
12358TIP3    H158565   4.068   3.282  14.905 -0.0097 -0.0840  0.0301
12358TIP3    H258566   3.946   3.303  14.992 -0.9057 -2.4829 -0.5706
12359TIP3   OH258567   1.543   6.580  16.671 -0.2752 -0.1769 -0.1026
12359TIP3    H158568   1.580   6.665  16.693 -1.9729  0.4443  0.5179
12359TIP3    H258569   1.612   6.536  16.621  0.2143  2.0403 -1.5267
12360TIP3   OH258570   0.235   0.429   5.950 -0.4235 -0.5513 -0.5775
12360TIP3    H158571   0.293   0.505   5.956 -1.2518  0.0985 -0.5225
12360TIP3    H258572   0.233   0.394   6.039  0.1844 -0.8104 -0.6644
12361TIP3   OH258573   1.467   3.527   2.946 -0.3585  0.1623  0.0061
12361TIP3    H158574   1.409   3.600   2.924 -2.2309 -1.6985 -1.7128
12361TIP3    H258575   1.446   3.507   3.037  1.2867  2.6179  1.0157
12362TIP3   OH258576   1.659   5.771  13.315  0.2973  0.2535 -0.2164
12362TIP3    H158577   1.582   5.744  13.364  1.8928 -0.8635  1.8580
12362TIP3    H258578   1.691   5.849  13.360  1.4883 -0.4669  0.2223
12363TIP3   OH258579   2.705   5.108   5.859  0.6333 -0.2815  0.0254
12363TIP3    H158580   2.664   5.024   5.878 -1.4406  0.9036  1.1325
12363TIP3    H258581   2.730   5.143   5.944 -0.0783  0.9496 -0.2477
12364TIP3   OH258582   3.557   3.324   0.386 -0.6438  0.4881  0.1867
12364TIP3    H158583   3.484   3.287   0.337  1.0403  0.8247 -2.8105
12364TIP3    H258584   3.521   3.403   0.426 -1.9653  0.6231 -1.1701
12365TIP3   OH258585   2.930   0.979  13.646 -0.6129 -0.4584 -0.3625
12365TIP3    H158586   2.968   0.981  13.734  0.0091  1.4821 -0.6255
12365TIP3    H258587   2.861   1.045  13.649  1.2498  1.7420 -2.0296
12366TIP3   OH258588   4.631   3.559   5.980 -0.1632 -0.1531 -0.2731
12366TIP3    H158589   4.702   3.563   5.917 -0.9163  0.8616 -1.0852
12366TIP3    H258590   4.553   3.539   5.929 -0.7897  0.6873  0.3091
12367TIP3   OH258591   2.096   1.147   4.324 -0.4994  0.2394 -0.6723
12367TIP3    H158592   2.040   1.099   4.263 -0.3227  1.0141 -1.4720
12367TIP3    H258593   2.056   1.134   4.410 -1.1965 -0.2324 -1.0605
12368TIP3   OH258594   2.094   5.431  14.457 -0.4794 -0.1263  0.6458
12368TIP3    H158595   2.123   5.499  14.395 -0.6687  0.9173  1.6566
12368TIP3    H258596   2.162   5.364  14.453 -1.9406 -1.6615 -2.9695
12369TIP3   OH258597   3.622   5.702  17.287 -0.2948  0.7079 -0.1165
12369TIP3    H158598   3.577   5.771  17.238 -1.7469  0.6987  1.1556
12369TIP3    H258599   3.554   5.639  17.308  1.3092 -2.2522 -2.9607
12370TIP3   OH258600   3.596   3.673   4.972  0.0364  0.1102  0.0562
12370TIP3    H158601   3.595   3.722   5.054  0.7589 -0.3487  0.3456
12370TIP3    H258602   3.688   3.654   4.957 -0.0957  0.1429 -0.8399
12371TIP3   OH258603   0.235   4.859  16.044 -0.1693 -0.6223 -0.0156
12371TIP3    H158604   0.219   4.906  15.962 -4.2744 -1.7197 -0.0453
12371TIP3    H258605   0.234   4.767  16.021  2.7303 -0.9893  0.8198
12372TIP3   OH258606   3.121   4.902   5.040 -0.1813  0.4407 -0.4161
12372TIP3    H158607   3.067   4.837   5.085 -0.5404  0.6160 -0.5961
12372TIP3    H258608   3.127   4.975   5.102  2.0770 -0.6140  0.7610
12373TIP3   OH258609   0.372   3.239  11.500 -0.4365 -0.5089 -0.2306
12373TIP3    H158610   0.441   3.257  11.564 -0.3200  0.7612 -0.6768
12373TIP3    H258611   0.349   3.326  11.466 -2.3170 -0.8970 -0.0278
12374TIP3   OH258612   4.601   6.721   2.603  0.4259  0.7093 -0.4617
12374TIP3    H158613   4.537   6.714   2.532 -0.4042  2.2815  0.0951
12374TIP3    H258614   4.647   6.803   2.587  1.5374  0.1427 -0.2253
12375TIP3   OH258615   3.257   0.643   5.580 -0.3674  0.1902  0.2291
12375TIP3    H158616   3.352   0.656   5.585 -0.2680 -0.5968  0.5210
12375TIP3    H258617   3.246   0.573   5.515 -0.7186  0.0446  0.4402
12376TIP3   OH258618   4.242   4.089  10.416  0.3248 -0.6970  0.0510
12376TIP3    H158619   4.180   4.160  10.432  0.3528 -0.4158 -1.0080
12376TIP3    H258620   4.222   4.060  10.326  1.6428 -0.6735 -0.2667
12377TIP3   OH258621   0.720   4.280  17.023  0.4672  0.0528 -0.9179
12377TIP3    H158622   0.700   4.198  16.978  0.9286  0.2397 -1.4806
12377TIP3    H258623   0.730   4.344  16.953 -0.8085  0.8110 -0.4441
12378TIP3   OH258624   4.508   0.827  13.292  0.6404  0.4480 -0.3342
12378TIP3    H158625   4.537   0.741  13.323  1.2261  0.5439 -0.6062
12378TIP3    H258626   4.543   0.835  13.204 -1.0470  0.1732 -1.0689
12379TIP3   OH258627   4.624   1.477  12.877 -0.1385 -0.2825 -0.0524
12379TIP3    H158628   4.575   1.465  12.959  1.3706 -0.1974  0.9010
12379TIP3    H258629   4.623   1.572  12.863  0.9081 -0.1361  0.7353
12380TIP3   OH258630   3.490   6.176   0.654 -0.2060 -0.2070  0.2803
12380TIP3    H158631   3.537   6.094   0.639 -0.7076 -0.4828  0.1916
12380TIP3    H258632   3.403   6.148   0.682 -0.2285  0.2994  0.7218
12381TIP3   OH258633   6.639   5.014   5.304  0.0468  0.6955 -0.1072
12381TIP3    H158634   6.711   4.953   5.322 -2.4004 -2.3318  0.3362
12381TIP3    H258635   6.673   5.100   5.329  3.4124 -0.5668  0.1793
12382TIP3   OH258636   2.722   0.708  13.797  0.1108 -0.1671  0.1659
12382TIP3    H158637   2.687   0.683  13.883  1.1056 -0.0001  0.6408
12382TIP3    H258638   2.805   0.752  13.818 -0.3392  1.1961 -0.7984
12383TIP3   OH258639   4.812   3.627   1.449 -0.0660 -0.5115 -0.2105
12383TIP3    H158640   4.885   3.679   1.417 -0.5058 -0.9120 -1.9867
12383TIP3    H258641   4.796   3.562   1.380 -1.7193 -0.7945  0.3827
12384TIP3   OH258642   3.914   4.026  16.802  0.1561 -0.3361 -0.2810
12384TIP3    H158643   3.912   3.936  16.836 -1.1617  0.3033  1.5268
12384TIP3    H258644   3.939   4.079  16.878 -0.0109  0.9260 -1.0820
12385TIP3   OH258645   4.555   3.673   3.728  0.0760  0.0268 -0.3031
12385TIP3    H158646   4.546   3.749   3.670  0.9835  0.4836  0.1363
12385TIP3    H258647   4.533   3.708   3.815  3.6682  0.6800  0.4852
12386TIP3   OH258648   5.079   4.499  13.327  0.1404 -0.5946  0.3222
12386TIP3    H158649   5.075   4.433  13.396  1.6871 -0.9102  0.1547
12386TIP3    H258650   5.024   4.571  13.359 -2.7092 -2.4151 -0.0874
12387TIP3   OH258651   2.292   1.565  14.341 -1.0026  0.6439 -0.5880
12387TIP3    H158652   2.375   1.599  14.374 -1.1259 -0.8327  1.4004
12387TIP3    H258653   2.239   1.643  14.326  0.2120  1.5369 -0.4420
12388TIP3   OH258654   5.462   6.562  12.773 -0.5375  0.2395  0.6561
12388TIP3    H158655   5.468   6.518  12.688 -1.3155  2.3478 -0.5887
12388TIP3    H258656   5.458   6.491  12.837  1.3729 -1.4293 -0.9246
12389TIP3   OH258657   6.364   2.713  15.763 -0.2988  0.2000 -0.2925
12389TIP3    H158658   6.330   2.625  15.744 -0.6926  0.6096 -1.5705
12389TIP3    H258659   6.458   2.707  15.747 -0.5962  0.4962 -2.3847
12390TIP3   OH258660   3.360   5.191  13.228 -0.5942 -0.1878 -0.3525
12390TIP3    H158661   3.442   5.236  13.248  0.2374 -1.7316 -0.0951
12390TIP3    H258662   3.374   5.101  13.259 -1.9444 -0.7871 -1.3650
12391TIP3   OH258663   3.259   5.727   4.652 -0.2386 -0.4476  1.1214
12391TIP3    H158664   3.322   5.704   4.720 -0.1426 -0.4832  1.0214
12391TIP3    H258665   3.294   5.685   4.573  0.3137  0.6273  0.7842
12392TIP3   OH258666   1.281   2.659  11.441  0.6041  0.3708 -0.1371
12392TIP3    H158667   1.308   2.567  11.442 -1.2701 -0.2372  0.1295
12392TIP3    H258668   1.351   2.706  11.487  1.2342 -1.0443  0.4064
12393TIP3   OH258669   3.254   3.990  15.081 -0.0026  0.5806 -0.4595
12393TIP3    H158670   3.160   4.010  15.085  0.2714  2.1653 -1.2300
12393TIP3    H258671   3.270   3.971  14.988  0.4304  0.2428 -0.3175
12394TIP3   OH258672   4.508   1.595  14.039 -0.1128 -0.0294  0.2390
12394TIP3    H158673   4.566   1.653  13.989  1.0940 -0.6202  0.9020
12394TIP3    H258674   4.446   1.654  14.081  1.1328  0.8187  0.9608
12395TIP3   OH258675   5.910   4.106  16.965  0.6824  0.0428 -0.0721
12395TIP3    H158676   5.953   4.101  17.051  0.4298  0.5710  0.0868
12395TIP3    H258677   5.818   4.119  16.985  0.6368  0.2679 -0.4289
12396TIP3   OH258678   0.579   0.099   4.212 -0.0928 -0.1774  0.2534
12396TIP3    H158679   0.634   0.152   4.270  1.5393 -1.8555  0.3205
12396TIP3    H258680   0.494   0.096   4.256  0.4742  0.4233  1.4290
12397TIP3   OH258681   3.033   0.452   3.114  0.3366 -0.2938  0.0582
12397TIP3    H158682   3.042   0.545   3.133 -0.9678 -0.3656  1.1769
12397TIP3    H258683   2.945   0.442   3.079  0.5354 -1.0945 -0.2558
12398TIP3   OH258684   1.076   0.234  14.276 -0.0561  1.0535 -0.0600
12398TIP3    H158685   0.993   0.222  14.229 -0.4437  1.3754  0.5260
12398TIP3    H258686   1.132   0.165  14.242 -1.3759 -0.8081  1.3293
12399TIP3   OH258687   5.758   1.120  11.042  0.9050  0.1904 -0.3681
12399TIP3    H158688   5.728   1.055  10.979 -0.3197 -0.8765  1.2295
12399TIP3    H258689   5.784   1.069  11.119 -0.1784  1.5515  0.9653
12400TIP3   OH258690   5.597   5.607   5.947  0.2242 -0.0944  0.1458
12400TIP3    H158691   5.542   5.562   5.883  0.1574 -0.3074  0.3509
12400TIP3    H258692   5.585   5.557   6.028  2.6477 -1.7442 -0.3758
12401TIP3   OH258693   6.517   4.771   6.716 -0.2584  0.4403 -0.0015
12401TIP3    H158694   6.508   4.700   6.653  3.2113 -0.8859  0.7728
12401TIP3    H258695   6.536   4.849   6.664 -4.3538  1.0804 -0.8783
12402TIP3   OH258696   0.122   1.234  15.500 -0.5314 -0.7989  0.1250
12402TIP3    H158697   0.177   1.262  15.573 -1.5701  0.3182  0.5061
12402TIP3    H258698   0.144   1.293  15.428  0.3964 -1.8146 -0.4528
12403TIP3   OH258699   1.918   4.339  13.251 -0.1872  0.3301 -0.1337
12403TIP3    H158700   1.924   4.295  13.335 -0.6842  1.6446  0.6182
12403TIP3    H258701   1.935   4.270  13.186  0.8075 -0.5799  1.0458
12404TIP3   OH258702   4.608   5.344   3.685 -0.3499 -0.4761 -0.5990
12404TIP3    H158703   4.647   5.274   3.738 -0.4079 -1.8314 -2.2539
12404TIP3    H258704   4.593   5.415   3.747  3.2842 -0.4317  0.5006
12405TIP3   OH258705   1.370   3.500   2.347 -0.1345  0.4160  0.2612
12405TIP3    H158706   1.459   3.531   2.367 -0.7711  1.7172  1.2549
12405TIP3    H258707   1.356   3.525   2.256  1.6356 -2.6958 -1.0339
12406TIP3   OH258708   0.050   1.915   0.950  0.6131 -0.3018 -0.2778
12406TIP3    H158709  -0.014   1.844   0.949 -1.1411  1.2089 -0.7632
12406TIP3    H258710   0.135   1.871   0.936 -0.5186 -2.1610 -1.8377
12407TIP3   OH258711   5.983   5.391   4.489  0.5677 -0.1857 -0.1092
12407TIP3    H158712   5.920   5.319   4.481  0.7496 -0.3566 -0.0144
12407TIP3    H258713   5.973   5.422   4.579  1.9163 -1.4357  0.5200
12408TIP3   OH258714   0.637   3.612   3.889 -0.8327  0.6048  0.0333
12408TIP3    H158715   0.668   3.701   3.904 -0.3898  0.3444  0.7315
12408TIP3    H258716   0.715   3.563   3.865 -0.6359 -0.0665  1.8513
12409TIP3   OH258717   5.166   1.145  13.256 -0.3736  0.1800 -0.7161
12409TIP3    H158718   5.122   1.133  13.340  0.0653 -0.0819 -0.5228
12409TIP3    H258719   5.120   1.219  13.215 -0.6047  0.2881 -0.2612
12410TIP3   OH258720   2.883   6.167   4.173  0.4091  0.2519 -0.6999
12410TIP3    H158721   2.879   6.109   4.249  0.9970 -0.5831 -1.2888
12410TIP3    H258722   2.936   6.241   4.203  3.1870 -1.4250 -1.0989
12411TIP3   OH258723   3.543   2.542  12.931  0.2845 -0.3741 -0.5205
12411TIP3    H158724   3.624   2.496  12.907  0.2894 -0.5178 -0.2388
12411TIP3    H258725   3.484   2.473  12.960  0.3403 -0.1922  0.0370
12412TIP3   OH258726   3.901   3.843  15.590  0.3356 -0.2177 -0.9292
12412TIP3    H158727   3.942   3.757  15.595 -0.2895 -0.4722  0.0705
12412TIP3    H258728   3.807   3.825  15.589  0.0583  0.4859  2.0612
12413TIP3   OH258729   1.637   2.270   6.520 -0.1179 -0.4352 -0.2659
12413TIP3    H158730   1.612   2.292   6.609  0.9040 -0.2608 -0.0142
12413TIP3    H258731   1.558   2.231   6.482 -0.1928 -1.7305  1.1268
12414TIP3   OH258732   1.746   3.995   1.533 -0.4240 -1.1690 -0.0451
12414TIP3    H158733   1.724   3.918   1.480 -2.0324 -1.2835  0.7231
12414TIP3    H258734   1.720   3.971   1.622 -1.5544  0.4585  0.1170
12415TIP3   OH258735   6.221   5.088  13.613  0.4965  0.3251  0.1604
12415TIP3    H158736   6.257   5.169  13.649  0.9812 -0.1204  0.7172
12415TIP3    H258737   6.137   5.076  13.659  1.2722 -0.4178  1.4389
12416TIP3   OH258738   3.184   5.142   5.146 -0.1549  0.0359 -0.4679
12416TIP3    H158739   3.187   5.158   5.240 -0.8718 -2.9910  0.1587
12416TIP3    H258740   3.265   5.181   5.113 -1.2409  3.7778  0.8284
12417TIP3   OH258741   0.745   1.281  14.458  0.5169 -0.5715  0.3169
12417TIP3    H158742   0.826   1.259  14.412 -0.5345 -0.9245 -1.4322
12417TIP3    H258743   0.726   1.203  14.511 -0.2140 -1.7044 -1.5409
12418TIP3   OH258744   6.410   4.788   2.720  0.4503 -0.3020 -0.1161
12418TIP3    H158745   6.375   4.847   2.654  2.6640  0.2791 -0.8566
12418TIP3    H258746   6.364   4.705   2.705 -1.9059  0.8704  0.2338
12419TIP3   OH258747   4.830   3.882  11.917 -0.6154  0.4939 -0.2381
12419TIP3    H158748   4.787   3.968  11.915  0.7179  1.2989  1.8814
12419TIP3    H258749   4.904   3.894  11.978 -0.9855 -2.4276  0.9489
12420TIP3   OH258750   3.076   5.485   2.315  0.1973  0.0640 -0.3808
12420TIP3    H158751   2.995   5.530   2.290 -1.3761 -1.1422  2.0601
12420TIP3    H258752   3.085   5.415   2.251 -0.4308  0.5196 -0.9840
12421TIP3   OH258753   3.179   2.885  12.275 -0.2948 -0.6818 -0.5073
12421TIP3    H158754   3.165   2.858  12.366  2.5046  0.4842  0.3728
12421TIP3    H258755   3.260   2.841  12.249 -0.5639 -0.2833 -2.1712
12422TIP3   OH258756   1.406   0.576   0.252 -0.1166 -0.6685 -0.5818
12422TIP3    H158757   1.370   0.502   0.300  0.9678 -0.0907  1.2072
12422TIP3    H258758   1.345   0.648   0.269 -0.4026 -0.7685 -1.1426
12423TIP3   OH258759   2.138   0.734  12.670  0.2746 -0.5166  0.3459
12423TIP3    H158760   2.219   0.721  12.719 -0.1017 -1.4082  0.7571
12423TIP3    H258761   2.155   0.810  12.615  1.6781 -1.1824 -0.1949
12424TIP3   OH258762   0.570   3.389   5.428  0.7813  0.7951  0.0570
12424TIP3    H158763   0.513   3.396   5.505 -1.5968 -1.1979 -1.4060
12424TIP3    H258764   0.599   3.298   5.428  0.8418  0.7994 -1.3511
12425TIP3   OH258765   3.196   6.582  12.320 -0.1760  0.4729 -0.2536
12425TIP3    H158766   3.177   6.517  12.252 -0.0511  0.5006 -0.3139
12425TIP3    H258767   3.112   6.625  12.336 -0.8414 -1.2796  1.4293
12426TIP3   OH258768   5.102   5.068  14.839  0.4063 -0.1745  0.4769
12426TIP3    H158769   5.014   5.066  14.876  0.1589 -1.7371 -0.1098
12426TIP3    H258770   5.159   5.044  14.912 -0.0727 -3.1990 -0.0027
12427TIP3   OH258771   1.532   0.682   0.001  0.6714 -0.3305 -0.3246
12427TIP3    H158772   1.518   0.682   0.096  2.2579  1.1488 -0.0222
12427TIP3    H258773   1.445   0.690  -0.036 -0.0505 -1.7040  0.9653
12428TIP3   OH258774   2.892   6.451  16.311 -0.4634 -0.3868  0.1998
12428TIP3    H158775   2.820   6.442  16.248  1.3430 -1.6149 -1.8475
12428TIP3    H258776   2.947   6.374  16.295  0.9323  0.1068  2.2279
12429TIP3   OH258777   4.070   2.958  12.638  0.2953  0.3147  0.0967
12429TIP3    H158778   4.089   2.890  12.574  0.7344  0.4719  0.0599
12429TIP3    H258779   4.068   3.039  12.586  0.6382  0.4409  0.2816
12430TIP3   OH258780   0.384   5.494   2.228  0.2411  0.4031  0.3399
12430TIP3    H158781   0.370   5.564   2.292  1.2539  1.1885 -0.2792
12430TIP3    H258782   0.303   5.493   2.176  0.8825  2.3158 -0.7711
12431TIP3   OH258783   6.740   6.758   6.291 -0.0280 -0.1438  0.4382
12431TIP3    H158784   6.651   6.784   6.269  0.9334  1.0363 -2.5675
12431TIP3    H258785   6.786   6.757   6.208  2.5425 -1.8101  1.7468
12432TIP3   OH258786   1.804   5.042  13.383 -0.6051  0.0125 -0.0124
12432TIP3    H158787   1.815   4.947  13.382  0.6515  0.1080  1.5478
12432TIP3    H258788   1.873   5.076  13.326  0.5759  0.0709  1.3861
12433TIP3   OH258789   0.204   0.014   4.560  0.2649 -0.0061 -0.5021
12433TIP3    H158790   0.293   0.032   4.528 -0.0460 -0.6852 -1.8283
12433TIP3    H258791   0.187  -0.076   4.532 -0.2192 -0.4975  1.2447
12434TIP3   OH258792   3.073   5.461  13.037 -0.1481 -0.2412 -0.3220
12434TIP3    H158793   3.020   5.405  13.093 -1.0738  0.3005 -0.6277
12434TIP3    H258794   3.086   5.410  12.957  2.0930 -1.4625  0.7242
12435TIP3   OH258795   1.665   2.143   1.978 -0.2358  0.7951  0.3641
12435TIP3    H158796   1.644   2.191   1.899  0.7143  1.4504  0.4954
12435TIP3    H258797   1.627   2.056   1.965 -0.0626  0.8901 -0.8104
12436TIP3   OH258798   1.347   0.304  14.251 -0.4678  0.0618  0.1110
12436TIP3    H158799   1.434   0.299  14.289 -0.1627 -0.0588 -0.5950
12436TIP3    H258800   1.338   0.396  14.223 -0.2334 -0.1170 -0.5775
12437TIP3   OH258801   3.024   2.908  13.889  0.3552 -0.0369 -0.0891
12437TIP3    H158802   3.015   2.964  13.967 -0.9842  0.6000 -0.6807
12437TIP3    H258803   3.090   2.953  13.836  0.9249 -0.2231  0.4378
12438TIP3   OH258804   5.695   4.143   2.510  0.0989  0.2747 -0.3301
12438TIP3    H158805   5.623   4.090   2.475 -2.2002  3.1416 -0.3974
12438TIP3    H258806   5.721   4.198   2.436 -0.3730  1.9641  0.7139
12439TIP3   OH258807   1.990   4.828  17.267  0.1046  0.1270 -0.1206
12439TIP3    H158808   1.935   4.785  17.332  1.7336 -1.7171  0.1272
12439TIP3    H258809   1.933   4.896  17.228 -3.1753 -3.1044 -1.5916
12440TIP3   OH258810   1.729   6.281  14.830  0.2047  0.6139  0.0573
12440TIP3    H158811   1.742   6.194  14.869  0.7731  0.3360 -0.7268
12440TIP3    H258812   1.693   6.263  14.743  0.5020  1.1524 -0.1802
12441TIP3   OH258813   4.388   3.618   3.968 -0.3832 -0.0898 -0.0437
12441TIP3    H158814   4.360   3.587   4.055  1.2653 -2.3701 -0.2194
12441TIP3    H258815   4.316   3.594   3.910 -0.5766 -0.5621  0.3804
12442TIP3   OH258816   2.942   2.900  16.500 -0.1489 -0.1689 -0.0293
12442TIP3    H158817   2.856   2.877  16.533 -0.5650 -0.9355 -1.5557
12442TIP3    H258818   2.952   2.849  16.420  0.5078  2.0933 -1.4866
12443TIP3   OH258819   0.483   3.791  11.248 -0.1935 -0.0748 -0.3151
12443TIP3    H158820   0.505   3.761  11.337  0.4368 -1.0513 -0.7828
12443TIP3    H258821   0.530   3.874  11.239 -0.7583  0.3486  0.4755
12444TIP3   OH258822   5.479   3.149  12.699  0.3105 -0.0669 -0.1291
12444TIP3    H158823   5.411   3.177  12.637  1.3767  1.1621 -0.7886
12444TIP3    H258824   5.553   3.124  12.644  0.5822 -0.9174  0.5982
12445TIP3   OH258825   5.159   2.433  11.850  0.3387 -0.5088 -0.2194
12445TIP3    H158826   5.084   2.468  11.897  1.3307 -0.6392  1.5302
12445TIP3    H258827   5.185   2.503  11.790 -0.8504 -0.2906 -0.5040
12446TIP3   OH258828   0.252   6.595  12.613 -0.0103 -0.6112  0.0310
12446TIP3    H158829   0.241   6.528  12.680 -1.7139 -1.2156 -0.7926
12446TIP3    H258830   0.230   6.551  12.531 -1.8144  1.0732 -0.4690
12447TIP3   OH258831   4.243   3.561  12.162  0.1222  0.0441 -0.1099
12447TIP3    H158832   4.306   3.602  12.103  0.5907 -0.3798  0.0874
12447TIP3    H258833   4.295   3.534  12.238 -0.3049 -0.2710  0.0735
12448TIP3   OH258834   5.509   1.540  12.100 -0.1120 -0.1023 -0.3638
12448TIP3    H158835   5.496   1.518  12.008 -0.4379 -0.0441 -0.3325
12448TIP3    H258836   5.460   1.621  12.112 -0.7212 -0.5239  0.0508
12449TIP3   OH258837   6.460   0.043  17.173  0.2228  0.3338 -0.1211
12449TIP3    H158838   6.467   0.009  17.262  2.0560 -0.9331 -0.6936
12449TIP3    H258839   6.448   0.137  17.184 -0.4767  0.0981  1.4521
12450TIP3   OH258840   0.199   1.031   1.932  0.1365  0.3201  0.6817
12450TIP3    H158841   0.121   1.075   1.897  0.2862  0.0517 -0.0176
12450TIP3    H258842   0.183   0.938   1.914  0.5977  0.2609  0.5659
12451TIP3   OH258843   3.966   1.443   0.209  0.6931 -0.9812  0.2092
12451TIP3    H158844   4.002   1.524   0.244  0.5574 -1.1140  0.6648
12451TIP3    H258845   3.872   1.450   0.224  0.5980 -0.9003 -0.4228
12452TIP3   OH258846   2.072   5.901   1.526  0.0710 -0.0096  0.3738
12452TIP3    H158847   2.096   5.973   1.467  0.3672  0.8643  1.5216
12452TIP3    H258848   1.996   5.933   1.575  0.2506 -0.4459  0.9561
12453TIP3   OH258849   4.388   2.246   5.341  0.0835  0.2845 -0.8352
12453TIP3    H158850   4.404   2.192   5.263  1.6307 -1.8981  0.8516
12453TIP3    H258851   4.439   2.326   5.325  2.1634 -1.0332 -1.2182
12454TIP3   OH258852   5.236   1.316  11.916  0.1986  0.1046 -0.1570
12454TIP3    H158853   5.174   1.318  11.989  1.6396 -0.5516  1.1371
12454TIP3    H258854   5.309   1.263  11.948  0.5413 -0.8838 -2.3662
12455TIP3   OH258855   2.182   5.819  11.493  0.5482  0.2902 -1.1751
12455TIP3    H158856   2.184   5.737  11.444  0.5776  0.2008 -1.0227
12455TIP3    H258857   2.274   5.837  11.514  0.8085  1.4656 -3.0552
12456TIP3   OH258858   0.550   2.210  13.634 -0.3420 -0.3394 -0.4553
12456TIP3    H158859   0.525   2.195  13.726 -1.9313  0.4689 -0.7181
12456TIP3    H258860   0.617   2.278  13.638 -2.8668  2.2989 -0.0174
12457TIP3   OH258861   2.918   5.486  16.806  0.4441  0.3809  0.0128
12457TIP3    H158862   2.889   5.534  16.884  0.4247 -1.1107  0.9622
12457TIP3    H258863   2.850   5.503  16.741  0.4755  1.6735  0.2756
12458TIP3   OH258864   2.497   4.431   1.948  0.1659 -0.0384 -0.6274
12458TIP3    H158865   2.496   4.463   1.858 -1.5907  0.4663 -0.4461
12458TIP3    H258866   2.440   4.490   1.997  0.6812 -0.6010  0.7288
12459TIP3   OH258867   6.286   2.632  11.063  0.1719 -0.2885 -0.7267
12459TIP3    H158868   6.351   2.700  11.080 -0.0141  0.0544 -1.3525
12459TIP3    H258869   6.319   2.587  10.986  0.0296 -0.5749 -0.6208
12460TIP3   OH258870   3.296   0.726  12.311  0.0188 -0.1076  0.6755
12460TIP3    H158871   3.371   0.754  12.363 -0.8026  0.6805  1.4858
12460TIP3    H258872   3.223   0.779  12.344 -0.3598  1.1645 -1.9571
12461TIP3   OH258873   5.941   0.362   4.830  0.0705 -0.0593 -0.1851
12461TIP3    H158874   5.930   0.446   4.874  0.5051 -0.4355  0.6659
12461TIP3    H258875   6.029   0.366   4.792 -0.0225 -0.0151 -0.3945
12462TIP3   OH258876   5.839   5.216  11.997  0.5013 -0.3671 -0.0721
12462TIP3    H158877   5.863   5.124  11.998 -1.9823 -1.1157 -0.7132
12462TIP3    H258878   5.882   5.252  11.920  2.4704 -0.6204  0.8421
12463TIP3   OH258879   6.231   1.081   2.270 -0.0920  0.3765 -0.1666
12463TIP3    H158880   6.233   1.129   2.187 -0.1300  1.2295  0.3155
12463TIP3    H258881   6.230   0.988   2.244  0.2451  0.6230 -1.1088
12464TIP3   OH258882   2.831   2.349   0.196  0.0130 -0.6147 -0.5072
12464TIP3    H158883   2.879   2.359   0.114  0.5348 -0.1542 -0.1559
12464TIP3    H258884   2.763   2.284   0.177 -0.2148 -0.1219 -1.4477
12465TIP3   OH258885   2.322   6.608  13.962  0.4824  0.5035  0.0357
12465TIP3    H158886   2.363   6.685  14.001  1.8747 -0.0034 -0.4050
12465TIP3    H258887   2.319   6.626  13.868  0.7896  0.0266 -0.0666
12466TIP3   OH258888   1.586   0.875   2.842  0.7621 -0.0576  0.2844
12466TIP3    H158889   1.662   0.817   2.853  0.2724 -0.8408 -0.2914
12466TIP3    H258890   1.596   0.941   2.910  0.7594 -1.4619  1.7163
12467TIP3   OH258891   0.305   0.635  12.223  0.5790  0.7076 -0.5887
12467TIP3    H158892   0.356   0.561  12.257 -1.3346 -0.1460  0.5730
12467TIP3    H258893   0.281   0.686  12.300 -0.6030  0.8707 -1.0402
12468TIP3   OH258894   3.655   3.114  12.805 -0.7584  0.4442  0.0230
12468TIP3    H158895   3.725   3.053  12.826 -0.6579  0.2388 -0.8489
12468TIP3    H258896   3.665   3.185  12.868 -0.7029 -0.2994  0.8602
12469TIP3   OH258897   6.218   4.616   2.563  0.3429  0.1694  0.5271
12469TIP3    H158898   6.191   4.525   2.571  0.9871  0.0065  0.8605
12469TIP3    H258899   6.262   4.621   2.478 -2.0460  0.7836 -0.7708
12470TIP3   OH258900   6.569   2.192   4.934 -0.2593 -0.0488  0.0049
12470TIP3    H158901   6.490   2.243   4.950  1.7321  3.1821  0.4784
12470TIP3    H258902   6.598   2.165   5.021 -0.8280 -1.3009 -0.1750
12471TIP3   OH258903   1.250   4.821   4.175 -0.4963 -0.0074  0.2394
12471TIP3    H158904   1.221   4.862   4.257 -0.1845  0.1336  0.2813
12471TIP3    H258905   1.305   4.888   4.133 -0.8919  0.0304 -0.2231
12472TIP3   OH258906   2.502   5.382  14.659  0.2381 -0.3310  0.1783
12472TIP3    H158907   2.481   5.381  14.752  0.9865  1.8745  0.4235
12472TIP3    H258908   2.598   5.375  14.656  0.2369 -0.1232 -0.4194
12473TIP3   OH258909   6.703   2.606  14.361 -0.2991 -0.3512 -0.3920
12473TIP3    H158910   6.651   2.652  14.296 -0.4866 -0.1663 -0.1131
12473TIP3    H258911   6.739   2.675  14.417  1.7888 -0.2991 -1.6793
12474TIP3   OH258912   2.851   1.394   3.365  0.2522  0.4319  0.4307
12474TIP3    H158913   2.763   1.403   3.329  0.8875  0.3110 -1.2600
12474TIP3    H258914   2.839   1.356   3.452 -1.3424  0.3145  0.1747
12475TIP3   OH258915   6.823   3.344  13.764 -0.1514 -0.4471  0.4387
12475TIP3    H158916   6.886   3.416  13.756 -0.8836  0.0746 -0.9692
12475TIP3    H258917   6.833   3.294  13.683 -1.1355 -0.6949  0.4587
12476TIP3   OH258918   1.196   3.507  16.887 -0.1647 -0.0583 -0.0107
12476TIP3    H158919   1.255   3.563  16.837  0.1301  1.1261  1.5534
12476TIP3    H258920   1.119   3.497  16.832  0.1967  1.0628 -0.7547
12477TIP3   OH258921   6.088   4.047   3.771 -0.2887  0.5154 -0.0804
12477TIP3    H158922   6.015   4.103   3.796 -1.4496 -0.2306 -1.6924
12477TIP3    H258923   6.121   4.085   3.690 -0.5867 -0.6639 -0.7694
12478TIP3   OH258924   1.237   2.624  16.739 -0.0685 -0.3408  0.8615
12478TIP3    H158925   1.246   2.677  16.660  1.0393  0.4973  1.5185
12478TIP3    H258926   1.277   2.540  16.717  1.5539  0.3722  0.9512
12479TIP3   OH258927   5.050   5.542  13.161 -0.4382 -0.6095  0.2154
12479TIP3    H158928   4.997   5.543  13.081 -2.5948 -0.6836  1.5470
12479TIP3    H258929   5.134   5.507  13.134 -1.3817 -1.4238 -1.8703
12480TIP3   OH258930   4.817   1.749  15.380  0.2746  0.0102  0.1038
12480TIP3    H158931   4.760   1.717  15.449  1.4764  0.5095  1.3765
12480TIP3    H258932   4.902   1.710  15.398  0.3688 -0.7813 -1.7929
12481TIP3   OH258933   2.233   1.848  13.011 -0.3046 -0.1220  0.2020
12481TIP3    H158934   2.154   1.880  13.054 -0.0124  0.2039  0.4941
12481TIP3    H258935   2.209   1.842  12.918 -0.4920  0.5131  0.2092
12482TIP3   OH258936   2.039   2.211   0.043 -0.2709 -0.1048  0.2197
12482TIP3    H158937   2.082   2.135   0.082 -1.3459  0.0202  1.7566
12482TIP3    H258938   2.098   2.239  -0.027  2.2519  0.1165  2.2729
12483TIP3   OH258939   5.678   3.890   0.582 -0.3885 -0.7257 -0.3201
12483TIP3    H158940   5.680   3.974   0.629 -1.0805 -1.2560  0.6951
12483TIP3    H258941   5.601   3.896   0.526 -1.3101 -1.2175  0.8407
12484TIP3   OH258942   0.233   5.394   0.549  0.1273  0.2278  0.5228
12484TIP3    H158943   0.156   5.351   0.512  0.9072 -0.7505 -0.0103
12484TIP3    H258944   0.243   5.474   0.498  0.3623 -0.4140 -0.4671
12485TIP3   OH258945   5.847   3.688   6.372 -0.3796  0.4631  0.1559
12485TIP3    H158946   5.897   3.756   6.326  1.9702 -1.5448 -0.4510
12485TIP3    H258947   5.772   3.672   6.315 -1.4323  2.9797  0.6706
12486TIP3   OH258948   4.379   0.245   4.267  0.5477  0.0753  0.1120
12486TIP3    H158949   4.459   0.283   4.233  0.5748 -0.9606 -1.0480
12486TIP3    H258950   4.331   0.215   4.190 -0.6287  0.0181  0.8255
12487TIP3   OH258951   2.785   5.654  14.070  0.3705 -0.3827 -0.5636
12487TIP3    H158952   2.880   5.645  14.070  0.8780  3.3816  0.1739
12487TIP3    H258953   2.760   5.646  13.978  1.2700 -1.9201 -0.7100
12488TIP3   OH258954   1.043   1.199  14.774  0.1575  0.0173  0.2414
12488TIP3    H158955   1.061   1.139  14.845 -0.9787  1.4093  1.7848
12488TIP3    H258956   1.128   1.214  14.732  0.7290 -1.2950  0.9023
12489TIP3   OH258957   1.268   0.570  15.786 -0.4880  0.3705  0.4331
12489TIP3    H158958   1.257   0.527  15.702 -1.3536  0.1937  0.6296
12489TIP3    H258959   1.288   0.661  15.764 -1.1443  0.4237  0.0380
12490TIP3   OH258960   6.342   1.717  10.947 -0.2175  0.2464  0.2885
12490TIP3    H158961   6.269   1.685  11.000 -0.1454 -0.4122 -0.0026
12490TIP3    H258962   6.332   1.812  10.948 -0.5484  0.2154  1.0084
12491TIP3   OH258963   4.816   4.144  14.460 -0.4068  0.2659 -0.0014
12491TIP3    H158964   4.849   4.181  14.378 -0.5417  1.0498  0.2911
12491TIP3    H258965   4.837   4.209  14.527  0.2579 -0.6298  0.7040
12492TIP3   OH258966   1.166   1.236  13.328  0.5038  0.2285 -0.0418
12492TIP3    H158967   1.237   1.185  13.290  1.2079  0.0039  1.4813
12492TIP3    H258968   1.099   1.172  13.351  1.1053  0.0275  1.2559
12493TIP3   OH258969   6.258   4.230   6.145  0.6507 -0.4590 -0.0216
12493TIP3    H158970   6.232   4.138   6.140 -0.0441 -0.2481 -0.4391
12493TIP3    H258971   6.192   4.271   6.202 -2.0536  0.7440 -3.6016
12494TIP3   OH258972   0.426   5.718  16.067 -0.1828 -0.0521  0.3598
12494TIP3    H158973   0.515   5.746  16.044  0.1820 -2.0266 -0.9216
12494TIP3    H258974   0.384   5.797  16.101  1.2420  1.6171 -1.4996
12495TIP3   OH258975   0.157   4.857   0.218  0.5585  0.0939 -0.9018
12495TIP3    H158976   0.240   4.881   0.259  0.4260 -1.5409  0.4377
12495TIP3    H258977   0.183   4.799   0.146  0.6102  0.0792 -0.8718
12496TIP3   OH258978   2.485   1.602   4.734 -0.0664  0.1570  0.1057
12496TIP3    H158979   2.457   1.688   4.703  0.7826  0.4865  0.2126
12496TIP3    H258980   2.550   1.574   4.669 -0.7630 -0.6762 -0.2513
12497TIP3   OH258981   4.901   1.356   0.327 -0.4474 -0.1917 -0.7751
12497TIP3    H158982   4.987   1.322   0.301  0.2006 -0.8442  1.9243
12497TIP3    H258983   4.900   1.446   0.293  2.1415  0.4935  0.6563
12498TIP3   OH258984   1.712   4.242  13.715 -0.2887  0.1906  0.3035
12498TIP3    H158985   1.650   4.313  13.731 -1.0348  0.0047 -1.5529
12498TIP3    H258986   1.784   4.283  13.667 -0.3154 -0.1293 -0.0150
12499TIP3   OH258987   0.215   3.515  13.700 -0.0289  0.6030  0.0612
12499TIP3    H158988   0.231   3.554  13.786  1.1973  0.6535 -0.1669
12499TIP3    H258989   0.233   3.585  13.638  2.3184 -0.2595 -0.3584
12500TIP3   OH258990   0.657   1.398   4.872  0.5114 -0.4383  0.0956
12500TIP3    H158991   0.626   1.318   4.829  1.8226 -1.0803  0.2824
12500TIP3    H258992   0.736   1.370   4.918  0.7173  0.8768  0.5601
12501TIP3   OH258993   2.244   0.904   1.665  0.6547 -0.4767 -0.4732
12501TIP3    H158994   2.336   0.900   1.692  0.0989 -0.3490  1.6094
12501TIP3    H258995   2.220   0.813   1.649  0.4293 -0.8755  1.7739
12502TIP3   OH258996   1.020   2.589  13.693  0.6588 -0.0333 -0.4168
12502TIP3    H158997   1.000   2.643  13.769  0.1659 -0.1635 -0.4528
12502TIP3    H258998   1.077   2.520  13.728 -1.4365 -1.4683  0.3468
12503TIP3   OH258999   1.251   4.973  16.436 -0.1760  0.0805  0.3433
12503TIP3    H159000   1.225   4.896  16.385 -3.6258  0.2175  1.6617
12503TIP3    H259001   1.235   4.949  16.527  1.6807  1.3358  1.0556
12504TIP3   OH259002   0.996   1.423   4.757  0.0224 -0.6112  0.1238
12504TIP3    H159003   0.906   1.451   4.770  0.0180 -1.2222  1.6643
12504TIP3    H259004   1.044   1.504   4.737 -0.9497 -0.3770 -1.3928
12505TIP3   OH259005   2.573   5.005  14.704 -0.0185  0.6130  0.0934
12505TIP3    H159006   2.655   5.031  14.663  0.2826  1.3549  1.1399
12505TIP3    H259007   2.579   5.038  14.794 -0.0943 -2.0614  1.1781
12506TIP3   OH259008   1.329   6.807   4.376  0.7276 -0.5275 -0.0200
12506TIP3    H159009   1.279   6.745   4.324  0.6944  0.2165 -0.8992
12506TIP3    H259010   1.285   6.891   4.363  1.6254 -0.0390 -0.0283
12507TIP3   OH259011   1.580   4.824   3.032 -0.6839 -0.4669 -0.0990
12507TIP3    H159012   1.641   4.842   3.104  0.2491  0.8210 -1.1790
12507TIP3    H259013   1.514   4.893   3.039  0.8068  1.2551 -1.9494
12508TIP3   OH259014   5.578   0.781  16.327 -0.2104  0.1924  0.1279
12508TIP3    H159015   5.633   0.731  16.388 -0.2559 -0.5494 -0.4161
12508TIP3    H259016   5.639   0.813  16.261 -0.2021  0.7538  0.4061
12509TIP3   OH259017   0.571   0.749  13.226  0.2119  0.0450  0.2179
12509TIP3    H159018   0.495   0.802  13.201 -0.5767  0.0057  2.3328
12509TIP3    H259019   0.551   0.661  13.193  0.4378  0.5346 -1.2608
12510TIP3   OH259020   2.598   1.890  12.077  0.0095 -0.1799  0.0232
12510TIP3    H159021   2.687   1.897  12.112 -0.6118 -1.4754  2.0311
12510TIP3    H259022   2.547   1.953  12.128 -0.6330 -1.0107  0.4284
12511TIP3   OH259023   2.912   0.898   2.978  0.1290  0.1801  0.7508
12511TIP3    H159024   2.930   0.839   3.051 -3.0243 -1.4290  0.4062
12511TIP3    H259025   2.913   0.840   2.901  0.2795  1.2383 -0.0615
12512TIP3   OH259026   3.594   6.570  13.082  0.1658  0.4194  0.0969
12512TIP3    H159027   3.597   6.539  12.991 -0.0417 -0.1145  0.2682
12512TIP3    H259028   3.653   6.512  13.129  1.8207  1.9228 -0.0363
12513TIP3   OH259029   4.902   5.543  12.351  0.0108 -0.0631 -0.4151
12513TIP3    H159030   4.860   5.457  12.348 -3.7621  1.5721 -2.2170
12513TIP3    H259031   4.954   5.547  12.271 -0.3756 -0.4258 -0.6887
12514TIP3   OH259032   5.601   0.211  15.928 -0.0419 -0.0176  0.2286
12514TIP3    H159033   5.567   0.237  16.013  1.5501  0.8302  0.6268
12514TIP3    H259034   5.538   0.146  15.896 -1.0091  0.1413  1.7390
12515TIP3   OH259035   5.815   0.631  15.311  0.6215 -0.4940  0.1268
12515TIP3    H159036   5.818   0.594  15.400  0.6687  0.4107  0.5154
12515TIP3    H259037   5.827   0.725  15.324 -2.3671  0.0668 -0.5703
12516TIP3   OH259038   1.141   3.664  16.456 -0.2484  0.9157 -0.1373
12516TIP3    H159039   1.206   3.664  16.526 -0.2467  1.7917 -0.1190
12516TIP3    H259040   1.193   3.671  16.376 -0.2457 -0.1796 -0.2429
12517TIP3   OH259041   4.426   3.459   3.265 -0.9105 -0.0401 -0.1114
12517TIP3    H159042   4.484   3.436   3.193  1.6625  0.4998  1.6617
12517TIP3    H259043   4.372   3.530   3.230  0.6789  0.6259 -1.3621
12518TIP3   OH259044   2.686   5.733   3.820 -0.4097  0.8796  0.2219
12518TIP3    H159045   2.757   5.797   3.811 -0.1607  0.5818  0.0654
12518TIP3    H259046   2.622   5.760   3.754 -1.2868  2.2329  1.5625
12519TIP3   OH259047   4.423   3.322  13.697 -0.5395  0.3492  0.0893
12519TIP3    H159048   4.506   3.344  13.739 -0.3360 -0.2267 -0.0079
12519TIP3    H259049   4.358   3.327  13.768 -0.4592  0.9716  0.1295
12520TIP3   OH259050   2.214   4.678  11.576 -0.5825 -0.1128  0.2282
12520TIP3    H159051   2.251   4.744  11.635  0.3673  0.8662 -1.3747
12520TIP3    H259052   2.290   4.642  11.530 -1.4273  1.5000 -2.7207
12521TIP3   OH259053   3.620   4.229   4.893  0.2263  0.0975  0.1584
12521TIP3    H159054   3.553   4.207   4.828 -1.9752  2.0169  1.6029
12521TIP3    H259055   3.596   4.178   4.971  0.7513  0.4165  0.5349
12522TIP3   OH259056   3.711   1.167  11.431  0.2861  0.0146  0.1259
12522TIP3    H159057   3.762   1.147  11.352  0.8461 -0.7079  0.6626
12522TIP3    H259058   3.692   1.082  11.470  0.6921  0.4094  1.1987
12523TIP3   OH259059   4.682   1.720   4.044 -0.5319 -0.1567  0.4175
12523TIP3    H159060   4.723   1.689   4.125 -0.1466 -2.5942 -0.6032
12523TIP3    H259061   4.683   1.815   4.051  0.5182 -0.2644  2.7522
12524TIP3   OH259062   4.016   4.807  14.123  0.5136  0.0850  0.1679
12524TIP3    H159063   4.060   4.812  14.038 -1.3791  0.0154 -0.8546
12524TIP3    H259064   4.000   4.714  14.136 -0.8096  0.2275 -0.2891
12525TIP3   OH259065   1.014   4.851   0.432 -0.2143  0.4480 -0.0544
12525TIP3    H159066   0.994   4.935   0.390  1.0374  0.2636 -1.0828
12525TIP3    H259067   1.088   4.870   0.489 -1.9817  0.7302  2.2990
12526TIP3   OH259068   3.511   5.689   3.569  0.9169  0.1701  0.0903
12526TIP3    H159069   3.600   5.700   3.535  1.1428 -0.8390  0.3363
12526TIP3    H259070   3.511   5.603   3.611 -0.4061 -0.2281 -0.6414
12527TIP3   OH259071   4.854   0.264   4.273  0.0076  0.4830  0.3353
12527TIP3    H159072   4.945   0.288   4.293 -0.1201  2.5509 -1.2753
12527TIP3    H259073   4.835   0.192   4.334  2.4800  0.4470  1.1904
12528TIP3   OH259074   2.572   6.626  16.357  0.4852 -0.3477  0.1927
12528TIP3    H159075   2.549   6.543  16.315 -1.3519 -0.3260  1.0884
12528TIP3    H259076   2.587   6.604  16.449  1.9689  0.0223  0.0726
12529TIP3   OH259077   3.220   0.318  15.473 -0.8228 -0.4633  0.0289
12529TIP3    H159078   3.151   0.330  15.407  0.5355  0.0296 -1.3558
12529TIP3    H259079   3.205   0.387  15.537 -1.7872 -0.5564 -0.0788
12530TIP3   OH259080   0.588   1.427   2.486  0.1906  0.1776  0.3418
12530TIP3    H159081   0.652   1.460   2.550  0.4333  0.6328 -0.1211
12530TIP3    H259082   0.565   1.504   2.434  0.0146 -0.1918 -0.1341
12531TIP3   OH259083   0.206   1.297  11.980 -0.0284 -0.5991 -0.1426
12531TIP3    H159084   0.217   1.328  12.070  0.3656 -0.7744 -0.1279
12531TIP3    H259085   0.292   1.309  11.940 -0.3068 -0.1380 -0.6193
12532TIP3   OH259086   1.268   5.402  13.278  0.3435  0.3024 -0.1241
12532TIP3    H159087   1.204   5.393  13.207  1.2377  1.5153 -1.1318
12532TIP3    H259088   1.300   5.313  13.293  0.7100  0.1070 -1.8099
12533TIP3   OH259089   0.605   2.223  14.370 -0.0996  0.5375 -0.0698
12533TIP3    H159090   0.676   2.215  14.306 -0.3131  1.9165 -0.5101
12533TIP3    H259091   0.527   2.194  14.324 -0.0319  0.1875  0.0289
12534TIP3   OH259092   0.988   5.799   6.801  0.0675 -0.1267  0.1630
12534TIP3    H159093   0.924   5.817   6.869  2.0541  0.4400  2.0201
12534TIP3    H259094   0.985   5.704   6.789  1.0046 -0.5314  2.5644
12535TIP3   OH259095   1.839   5.140   4.193 -0.4198  0.0966  0.0231
12535TIP3    H159096   1.892   5.092   4.129 -1.1083  1.6086 -1.7883
12535TIP3    H259097   1.902   5.188   4.246  0.1285 -0.4047 -0.1634
12536TIP3   OH259098   6.786   5.855  12.619 -0.1082  0.3041  0.3451
12536TIP3    H159099   6.791   5.931  12.676 -1.4497  0.9681 -0.3914
12536TIP3    H259100   6.813   5.888  12.533 -0.4050 -0.1322  0.0854
12537TIP3   OH259101   6.146   4.633   5.039  0.6532  0.1119  0.3732
12537TIP3    H159102   6.235   4.663   5.059  1.1484 -0.9598 -0.1492
12537TIP3    H259103   6.158   4.549   4.996 -0.3297  2.0494 -4.1931
12538TIP3   OH259104   0.949   4.264  16.366 -0.0929  0.0039 -0.0963
12538TIP3    H159105   1.010   4.329  16.401 -0.9990  0.8656 -0.0790
12538TIP3    H259106   0.909   4.307  16.291 -0.1271 -0.8377 -0.5637
12539TIP3   OH259107   0.353   5.671   3.931  0.3737  0.0544  0.3431
12539TIP3    H159108   0.337   5.579   3.911 -1.6792  0.2210  0.9921
12539TIP3    H259109   0.360   5.674   4.027 -2.3928  0.8816  0.6031
12540TIP3   OH259110   3.549   4.423   1.628  0.1660 -0.0826  0.3642
12540TIP3    H159111   3.538   4.329   1.637 -0.9546  0.1185  1.3446
12540TIP3    H259112   3.643   4.437   1.638  0.8857 -1.3737 -3.1714
12541TIP3   OH259113   4.378   0.652   5.897 -0.1503 -0.2838 -0.1594
12541TIP3    H159114   4.441   0.721   5.873  1.8182 -2.0822 -0.4138
12541TIP3    H259115   4.408   0.574   5.850 -0.7043 -2.0254  2.1982
12542TIP3   OH259116   3.576   2.948   5.985 -0.4910  0.0020  0.7203
12542TIP3    H159117   3.508   3.014   5.968 -3.0045 -2.5058  0.3827
12542TIP3    H259118   3.612   2.928   5.899  0.5653  1.1051  0.8656
12543TIP3   OH259119   0.855   1.170  17.202  0.3980 -0.1750  0.1496
12543TIP3    H159120   0.766   1.167  17.169  0.2416  0.9922  0.4120
12543TIP3    H259121   0.908   1.192  17.125  0.2094  1.0609  0.3467
12544TIP3   OH259122   6.193   3.690  11.485 -0.0038 -0.2081 -0.1188
12544TIP3    H159123   6.212   3.624  11.418  0.2795 -0.2869  0.0366
12544TIP3    H259124   6.263   3.754  11.475  2.2117 -2.0107  2.4569
12545TIP3   OH259125   5.937   6.364   0.600 -0.3859 -0.2685 -0.2464
12545TIP3    H159126   6.006   6.364   0.534  0.0364 -1.3613  0.1575
12545TIP3    H259127   5.856   6.374   0.551  0.0639  1.2981 -0.7053
12546TIP3   OH259128   2.235   1.803  17.277 -0.0709 -0.4718 -0.1522
12546TIP3    H159129   2.318   1.777  17.317 -0.3336  0.2578  0.9447
12546TIP3    H259130   2.178   1.726  17.287  0.2399 -0.7102 -0.2118
12547TIP3   OH259131   4.405   1.162   1.029  0.3222 -0.4116  0.4783
12547TIP3    H159132   4.428   1.254   1.041  0.7913 -0.4881  0.2195
12547TIP3    H259133   4.313   1.162   1.003  0.5089  0.0316 -0.2039
12548TIP3   OH259134   2.525   5.425   5.267 -0.5857 -0.2820  0.1268
12548TIP3    H159135   2.613   5.444   5.234 -0.3465  0.2038  0.9959
12548TIP3    H259136   2.530   5.334   5.298 -0.1837 -0.0422  0.7897
12549TIP3   OH259137   2.130   0.788  17.018  0.3755  0.3101  0.7755
12549TIP3    H159138   2.075   0.813  17.093 -0.4517 -1.4537  0.8110
12549TIP3    H259139   2.105   0.698  16.999  2.0342  0.0390 -0.3516
12550TIP3   OH259140   6.357   5.449   1.795  0.4234 -0.2091 -0.3763
12550TIP3    H159141   6.383   5.360   1.819 -0.1975 -0.0233  1.1436
12550TIP3    H259142   6.408   5.506   1.854  0.0183  0.3765 -0.5799
12551TIP3   OH259143   0.562   6.610  16.392 -1.2191 -0.6536 -0.5883
12551TIP3    H159144   0.518   6.582  16.472 -2.8242  1.0329 -0.8241
12551TIP3    H259145   0.582   6.702  16.406 -0.7020 -0.5541 -1.7914
12552TIP3   OH259146   0.124   1.300  16.070  0.0961 -0.2456 -0.3505
12552TIP3    H159147   0.138   1.388  16.036  0.7959 -0.5264 -0.8275
12552TIP3    H259148   0.165   1.300  16.156 -0.9392  0.2222  0.1691
12553TIP3   OH259149   1.293   2.983   4.802 -0.0297 -0.7008  0.0656
12553TIP3    H159150   1.350   3.049   4.842 -0.5179  0.9406 -1.8304
12553TIP3    H259151   1.204   3.013   4.821 -0.3924  1.4875 -3.9462
12554TIP3   OH259152   6.690   1.618   4.635  0.4001  0.4833  0.1546
12554TIP3    H159153   6.715   1.527   4.617  2.1257  1.1800 -1.3199
12554TIP3    H259154   6.598   1.623   4.610  0.5702 -0.6023 -0.7805
12555TIP3   OH259155   3.317   3.470   4.446 -0.1150 -0.6001 -0.3611
12555TIP3    H159156   3.333   3.541   4.383  0.5514 -0.1460  0.2949
12555TIP3    H259157   3.222   3.460   4.447 -0.2543  0.5368 -0.2170
12556TIP3   OH259158   4.254   2.213  14.161  0.9946  0.2133 -0.5792
12556TIP3    H159159   4.249   2.200  14.066  1.5253  1.3729 -0.7810
12556TIP3    H259160   4.250   2.308  14.172  1.6816  0.1297  0.5051
12557TIP3   OH259161   2.535   4.971  13.789  0.5800  0.3185 -1.2826
12557TIP3    H159162   2.629   4.955  13.775  0.6178 -0.0974 -0.6507
12557TIP3    H259163   2.502   5.000  13.705  0.5207 -3.1735 -2.6179
12558TIP3   OH259164   6.544   4.860   3.345  0.1917 -0.2620  0.2581
12558TIP3    H159165   6.635   4.840   3.321 -0.2937 -1.7540 -0.4577
12558TIP3    H259166   6.534   4.822   3.432  0.1785 -0.2967  0.2411
12559TIP3   OH259167   5.879   6.339  11.984 -0.0492 -0.3615 -0.2923
12559TIP3    H159168   5.795   6.298  11.965  0.2318 -0.2899 -1.8722
12559TIP3    H259169   5.881   6.417  11.928  0.2054  0.8036  1.2814
12560TIP3   OH259170   0.290   2.258   3.752 -0.3019  0.6399  0.2779
12560TIP3    H159171   0.352   2.188   3.733  0.7199  1.3197  1.0198
12560TIP3    H259172   0.235   2.263   3.673  0.0206 -0.5513 -0.0363
12561TIP3   OH259173   0.589   1.601  16.669 -0.3346  0.2645 -0.4198
12561TIP3    H159174   0.625   1.553  16.594 -1.6131  0.8422 -1.4531
12561TIP3    H259175   0.608   1.693  16.650 -1.1332  0.4603 -0.3113
12562TIP3   OH259176   0.040   1.623  11.178  0.4531  0.8761  0.3701
12562TIP3    H159177   0.120   1.571  11.180  1.0452  1.7612  0.5465
12562TIP3    H259178   0.070   1.714  11.185 -0.6453  1.1495  2.3895
12563TIP3   OH259179   4.582   1.367   1.046 -0.8481 -0.4356 -0.1561
12563TIP3    H159180   4.578   1.337   1.136  0.4709 -0.6588 -0.1484
12563TIP3    H259181   4.652   1.315   1.006 -1.6741 -0.6339 -1.4276
12564TIP3   OH259182   6.214   3.638   4.574  0.2688  0.1067  0.0614
12564TIP3    H159183   6.263   3.560   4.550  0.4645 -0.0382  0.9074
12564TIP3    H259184   6.234   3.652   4.666 -1.1906  0.0934  0.4162
12565TIP3   OH259185   2.150   5.362  11.733  0.2407 -0.3827 -0.3405
12565TIP3    H159186   2.111   5.449  11.746 -0.0622 -0.8866  2.9087
12565TIP3    H259187   2.075   5.302  11.730  0.5274 -0.7335 -0.5263
12566TIP3   OH259188   4.354   2.585   1.768  0.2698 -0.0788  0.8177
12566TIP3    H159189   4.268   2.563   1.733  0.5434 -1.2186  0.8347
12566TIP3    H259190   4.336   2.619   1.856 -0.5900  4.3377 -0.7785
12567TIP3   OH259191   5.797   4.737   1.834  0.2357 -0.2465  0.5909
12567TIP3    H159192   5.748   4.814   1.862  0.7187  1.8253 -3.4416
12567TIP3    H259193   5.734   4.686   1.783  0.5556 -1.2554  1.1812
12568TIP3   OH259194   2.253   3.286  14.450 -0.3061  0.1714 -0.2362
12568TIP3    H159195   2.264   3.339  14.530  0.6835  1.3677 -1.1202
12568TIP3    H259196   2.168   3.244  14.461 -0.0686  0.0566  1.5837
12569TIP3   OH259197   3.095   4.958  13.871 -0.2459 -0.1986  0.3916
12569TIP3    H159198   3.117   5.016  13.798 -1.5774  0.6241  0.6198
12569TIP3    H259199   3.161   4.977  13.938 -1.5965  2.3272  1.1332
12570TIP3   OH259200   3.763   4.780  16.235  0.0684  0.1853  0.3369
12570TIP3    H159201   3.856   4.785  16.215 -0.0333 -0.5139 -0.3406
12570TIP3    H259202   3.726   4.724  16.167 -0.6548 -0.4752  1.2499
12571TIP3   OH259203   1.730   2.364   4.340 -0.0458 -0.0143 -0.3125
12571TIP3    H159204   1.659   2.408   4.294 -0.3878  0.6588  0.8218
12571TIP3    H259205   1.758   2.427   4.407  0.8759 -0.7081 -0.0178
12572TIP3   OH259206   3.945   1.234   3.903  0.2185  0.3486  0.2902
12572TIP3    H159207   4.030   1.210   3.865  0.0348  1.1789 -0.6952
12572TIP3    H259208   3.936   1.327   3.883  0.3532  0.9954  2.9137
12573TIP3   OH259209   6.466   3.795  15.569 -0.4447  0.0655  0.3678
12573TIP3    H159210   6.547   3.828  15.529 -0.6416 -1.3366 -1.3179
12573TIP3    H259211   6.490   3.709  15.603 -0.7824  0.4378  1.5746
12574TIP3   OH259212   2.157   3.082   3.456  0.0882  1.0357 -0.8908
12574TIP3    H159213   2.159   2.988   3.439 -1.7925  0.4915  1.2807
12574TIP3    H259214   2.222   3.095   3.525 -0.5041  1.0859 -0.3324
12575TIP3   OH259215   1.593   6.730  13.660  0.2124  0.0417 -0.0514
12575TIP3    H159216   1.616   6.812  13.705  0.5104 -0.3325  0.4830
12575TIP3    H259217   1.677   6.688  13.642  0.0097 -1.1946  1.6535
12576TIP3   OH259218   1.622   5.661   4.563 -0.0740 -0.4105  0.1750
12576TIP3    H159219   1.588   5.594   4.622 -1.8748 -0.7433 -1.1567
12576TIP3    H259220   1.647   5.734   4.620  1.5606 -2.0024  1.6185
12577TIP3   OH259221   3.589   6.762  15.138 -0.1122  0.2783  1.0133
12577TIP3    H159222   3.569   6.853  15.115 -1.8696 -0.5415 -0.9658
12577TIP3    H259223   3.536   6.745  15.215 -2.1348  0.1232 -0.3283
12578TIP3   OH259224   0.391   1.379   5.459  0.0966 -0.2235  0.3162
12578TIP3    H159225   0.312   1.412   5.501  0.1406 -1.0716  1.1028
12578TIP3    H259226   0.414   1.445   5.394 -2.3570 -0.8521 -1.2973
12579TIP3   OH259227   6.746   6.170  14.117  0.0736  0.3756 -0.2567
12579TIP3    H159228   6.834   6.208  14.105 -0.3212  1.4673  0.1581
12579TIP3    H259229   6.687   6.245  14.108 -0.9542 -0.6098 -2.1935
12580TIP3   OH259230   1.653   1.003  15.069 -0.3938  0.7967 -0.1833
12580TIP3    H159231   1.743   0.976  15.052 -0.3906  0.8468 -0.2477
12580TIP3    H259232   1.618   1.028  14.984 -1.2416 -1.4594 -0.5646
12581TIP3   OH259233   6.010   1.987   2.778  0.0061  0.3132 -0.3267
12581TIP3    H159234   6.062   1.929   2.722 -0.7780  0.2398 -0.9902
12581TIP3    H259235   6.041   2.075   2.756 -0.2335  0.2774 -0.8155
12582TIP3   OH259236   5.343   0.805   1.566  0.1905  0.2221  0.0891
12582TIP3    H159237   5.412   0.867   1.590 -1.1313  1.2821  1.2440
12582TIP3    H259238   5.387   0.719   1.567  1.8370  1.0083 -0.6861
12583TIP3   OH259239   3.899   3.091   3.006  0.1983  0.2122 -0.2275
12583TIP3    H159240   3.877   2.998   3.002 -2.1564  0.7368 -0.5438
12583TIP3    H259241   3.839   3.133   2.944 -0.0525  2.1582  1.2406
12584TIP3   OH259242   5.316   2.084  14.605 -0.1539  0.4190  0.0023
12584TIP3    H159243   5.306   2.093  14.510  2.2870 -1.0569 -0.4956
12584TIP3    H259244   5.316   2.174  14.637 -1.7969  0.9225 -1.2609
12585TIP3   OH259245   5.172   2.749   5.885 -0.3194 -0.1132  0.1958
12585TIP3    H159246   5.204   2.732   5.973  0.0093 -0.2162  0.0583
12585TIP3    H259247   5.106   2.818   5.896  1.0319  1.2025  0.3112
12586TIP3   OH259248   1.780   5.370  15.561  0.0797  0.7012  0.9254
12586TIP3    H159249   1.728   5.401  15.635 -0.8413  0.8627  0.2218
12586TIP3    H259250   1.723   5.380  15.485 -0.6759 -3.5150  0.7039
12587TIP3   OH259251   5.656   0.753   4.050  0.2615 -0.4111 -0.3514
12587TIP3    H159252   5.618   0.736   4.137 -0.8022 -0.6906 -0.8504
12587TIP3    H259253   5.608   0.695   3.992 -0.2336  0.9861 -1.3958
12588TIP3   OH259254   1.001   5.080  16.923  0.2266  0.0331 -0.1229
12588TIP3    H159255   0.940   5.153  16.933  0.7271  0.2576  1.4934
12588TIP3    H259256   1.014   5.046  17.011  0.0981 -1.9725 -0.8134
12589TIP3   OH259257   6.142   3.947   4.556 -0.1167 -0.2213  0.0857
12589TIP3    H159258   6.086   4.025   4.552 -1.1448 -0.7197  2.9920
12589TIP3    H259259   6.091   3.879   4.512 -0.5223  0.0247  0.1725
12590TIP3   OH259260   4.985   6.152   1.540 -0.2718  0.7170 -0.4703
12590TIP3    H159261   5.000   6.064   1.508  1.4883  1.8440 -3.0486
12590TIP3    H259262   4.898   6.175   1.507 -1.0960 -0.2740  0.9160
12591TIP3   OH259263   3.933   1.610  12.292 -0.6944  0.0301  0.0901
12591TIP3    H159264   3.964   1.624  12.381 -0.7390  1.1034 -0.0522
12591TIP3    H259265   3.859   1.551  12.301  0.4884 -1.4457  0.5673
12592TIP3   OH259266   1.993   1.953  13.146  0.0771  0.0763 -0.4304
12592TIP3    H159267   1.998   2.005  13.066  0.2106 -1.5230 -1.5103
12592TIP3    H259268   1.973   2.016  13.215  1.5105  1.7361 -1.4621
12593TIP3   OH259269   0.111   2.363  12.127 -0.2066  0.2700  0.1885
12593TIP3    H159270   0.200   2.373  12.162 -0.4546 -1.7630  1.5688
12593TIP3    H259271   0.101   2.437  12.067  0.8465  3.0749  3.2022
12594TIP3   OH259272   0.180   0.251   1.167 -0.0051  0.5785 -0.4030
12594TIP3    H159273   0.181   0.240   1.262  0.0780 -1.6013 -0.6201
12594TIP3    H259274   0.258   0.305   1.148  0.2469  0.6256  0.7095
12595TIP3   OH259275   5.862   0.198   5.125 -0.1571 -0.0985  0.0213
12595TIP3    H159276   5.806   0.272   5.148 -1.9599 -1.7971  1.4523
12595TIP3    H259277   5.910   0.177   5.205 -0.0274 -0.7623 -0.2216
12596TIP3   OH259278   6.114   0.321   2.930 -0.2066 -0.7151  0.1771
12596TIP3    H159279   6.133   0.243   2.982  0.9483 -1.7270 -1.6423
12596TIP3    H259280   6.088   0.287   2.845  1.2909  0.8436 -0.9796
12597TIP3   OH259281   4.368   0.707   5.152  0.5582 -0.9690  0.7245
12597TIP3    H159282   4.405   0.718   5.239  0.0358  2.6557  0.6558
12597TIP3    H259283   4.444   0.708   5.093  0.7357 -0.1648  0.9623
12598TIP3   OH259284   2.909   5.986  11.499 -0.3005 -0.0165  0.0758
12598TIP3    H159285   2.922   5.920  11.430  1.1276  0.3581 -0.0540
12598TIP3    H259286   2.994   5.990  11.544 -1.6473 -1.4601  2.9951
12599TIP3   OH259287   3.723   0.259  16.038  0.2992 -0.2631 -0.3612
12599TIP3    H159288   3.783   0.240  16.111  1.2323  1.1722 -0.7143
12599TIP3    H259289   3.643   0.290  16.081  0.6172 -0.0268  0.0695
12600TIP3   OH259290   1.445   6.297  16.151 -0.0101  0.1583  0.0418
12600TIP3    H159291   1.527   6.340  16.128  0.2184 -1.1655 -1.8663
12600TIP3    H259292   1.462   6.258  16.236  0.8279  1.1309  0.3437
12601TIP3   OH259293   0.460   5.240  15.502  0.1735  0.3980 -0.0996
12601TIP3    H159294   0.384   5.281  15.461 -0.2703 -1.5349 -1.3400
12601TIP3    H259295   0.530   5.249  15.438  0.6902  1.1441  0.5511
12602TIP3   OH259296   3.950   0.350   0.414  0.3333 -0.3213  0.0109
12602TIP3    H159297   3.918   0.273   0.463  0.3543 -0.5724 -0.3667
12602TIP3    H259298   3.996   0.312   0.339  1.7881  0.0233  0.7092
12603TIP3   OH259299   0.703   0.575   1.250 -0.0626 -0.2598  0.0453
12603TIP3    H159300   0.665   0.648   1.299  1.5856  0.0590  0.9299
12603TIP3    H259301   0.798   0.585   1.262  0.2582 -1.7323 -1.0088
12604TIP3   OH259302   5.876   1.506  16.136  0.0971  0.5411  0.0219
12604TIP3    H159303   5.790   1.547  16.128  0.6480  2.0833  1.4200
12604TIP3    H259304   5.902   1.485  16.046 -2.0843 -0.7960 -0.3685
12605TIP3   OH259305   0.943   1.274   3.002 -0.1890  0.1188 -0.3671
12605TIP3    H159306   0.861   1.305   2.964 -1.6408 -3.3225 -0.4494
12605TIP3    H259307   0.916   1.232   3.084  1.4713 -1.0776 -0.3860
12606TIP3   OH259308   6.619   4.206   0.376  0.2602 -0.1866 -1.0063
12606TIP3    H159309   6.679   4.219   0.449 -0.1633 -2.0770 -0.2806
12606TIP3    H259310   6.675   4.199   0.299  0.8782 -0.6129 -0.5205
12607TIP3   OH259311   5.484   1.417  12.334  0.2911  0.1541  0.0066
12607TIP3    H159312   5.490   1.449  12.244 -0.0064  1.9241  0.5858
12607TIP3    H259313   5.391   1.402  12.349  0.4620 -1.4901 -0.3974
12608TIP3   OH259314   2.760   5.301   2.337 -0.5670  0.5643 -0.2033
12608TIP3    H159315   2.777   5.381   2.387  2.1800  0.9110 -1.4751
12608TIP3    H259316   2.793   5.230   2.393 -1.0055  0.5443  0.0316
12609TIP3   OH259317   6.424   2.054   0.702  0.3461  0.5312 -0.4855
12609TIP3    H159318   6.430   2.061   0.606  0.5562  2.5229 -0.3573
12609TIP3    H259319   6.488   1.986   0.724  0.1138 -0.1457 -1.7613
12610TIP3   OH259320   6.596   0.310   6.097  0.2239 -0.2670  0.1568
12610TIP3    H159321   6.666   0.253   6.065  0.2252 -0.1868  0.0177
12610TIP3    H259322   6.585   0.285   6.189  0.5573 -0.1601  0.2277
12611TIP3   OH259323   2.637   3.084   0.665  0.1480 -0.3655  0.7225
12611TIP3    H159324   2.649   3.006   0.719  0.1477 -0.3568  0.7350
12611TIP3    H259325   2.640   3.051   0.575 -3.0205 -0.8796  0.6847
12612TIP3   OH259326   1.169   4.223  11.409 -0.5949 -0.2609 -0.9040
12612TIP3    H159327   1.118   4.256  11.483  0.3285  1.5903 -1.0387
12612TIP3    H259328   1.141   4.132  11.399 -0.9701 -0.4661  1.5186
12613TIP3   OH259329   2.885   4.269  16.642  0.2090 -0.1938 -0.3796
12613TIP3    H159330   2.874   4.324  16.565 -1.2847  0.2326  0.0899
12613TIP3    H259331   2.903   4.331  16.713  1.4110 -0.5684 -0.3443
12614TIP3   OH259332   5.283   6.674  16.663  0.3126  0.2017  0.3870
12614TIP3    H159333   5.241   6.685  16.748 -4.5365 -1.9584 -1.4176
12614TIP3    H259334   5.308   6.582  16.660  0.5762  0.2933 -0.5014
12615TIP3   OH259335   0.174   4.857  16.715  0.4692  0.0543 -0.1700
12615TIP3    H159336   0.152   4.939  16.759  0.8497  0.9533 -1.5756
12615TIP3    H259337   0.264   4.838  16.741  0.2204 -0.1951  0.5364
12616TIP3   OH259338   6.763   5.670   1.673  0.4006 -0.2961 -0.2817
12616TIP3    H159339   6.712   5.711   1.603  0.9129  0.9015  0.0197
12616TIP3    H259340   6.834   5.732   1.690  1.5493 -1.6001 -0.2007
12617TIP3   OH259341   0.463   6.689  13.549 -0.9411 -0.7478  0.1571
12617TIP3    H159342   0.459   6.773  13.504 -0.9249 -0.3884  0.8114
12617TIP3    H259343   0.457   6.624  13.479  0.7661 -0.2263 -0.5305
12618TIP3   OH259344   4.853   6.493   1.523 -0.1334 -0.2282  0.0537
12618TIP3    H159345   4.906   6.471   1.600 -1.1873  0.8489  1.1345
12618TIP3    H259346   4.905   6.462   1.448  1.3758 -0.4171  1.1376
12619TIP3   OH259347   1.272   3.855   2.131 -0.3856 -0.4486 -0.1835
12619TIP3    H159348   1.309   3.871   2.044 -0.4122 -0.2807 -0.1660
12619TIP3    H259349   1.301   3.930   2.183  0.3439 -0.9826  0.1822
12620TIP3   OH259350   4.837   1.339   2.408 -0.1458  0.3149 -0.5836
12620TIP3    H159351   4.746   1.367   2.403 -0.1798  0.1315 -0.9634
12620TIP3    H259352   4.850   1.317   2.501 -0.5248  0.2120 -0.5540
12621TIP3   OH259353   2.880   4.791   1.130  0.2047  0.3135 -0.0440
12621TIP3    H159354   2.815   4.789   1.200  2.7865  0.1736  2.5533
12621TIP3    H259355   2.925   4.876   1.141  1.0674  0.0297 -1.1477
12622TIP3   OH259356   1.271   2.495   3.797  0.0799  0.3160 -0.2613
12622TIP3    H159357   1.324   2.457   3.727 -1.2139  3.1298 -3.0086
12622TIP3    H259358   1.335   2.525   3.862  1.2804 -2.8798  0.2034
12623TIP3   OH259359   4.408   4.649  13.203 -0.5256 -0.4186  0.3619
12623TIP3    H159360   4.403   4.636  13.108 -0.3523 -0.8099  0.4048
12623TIP3    H259361   4.493   4.614  13.228  0.0551  1.0023  0.4649
12624TIP3   OH259362   1.080   4.512   2.861  0.0923 -0.5484 -0.5269
12624TIP3    H159363   0.991   4.518   2.897  0.7679 -1.9727  1.5416
12624TIP3    H259364   1.094   4.596   2.817 -0.7443  1.4967  2.7820
12625TIP3   OH259365   2.420   6.038  12.964 -0.1304 -0.1268  0.0437
12625TIP3    H159366   2.426   6.133  12.961  0.1192 -0.1144  0.7802
12625TIP3    H259367   2.345   6.020  13.020  0.4822 -0.3662  0.7962
12626TIP3   OH259368   1.334   2.730  14.408 -0.0910  0.7361  0.5086
12626TIP3    H159369   1.273   2.657  14.420 -0.6416  0.7017 -2.0367
12626TIP3    H259370   1.415   2.688  14.380  0.7531  0.8928  2.5375
12627TIP3   OH259371   6.032   1.905  11.616  0.1761  0.1797 -0.0998
12627TIP3    H159372   6.071   1.846  11.681  0.1505 -0.1519 -0.3788
12627TIP3    H259373   5.947   1.865  11.596 -0.1323  0.6789  0.2044
12628TIP3   OH259374   2.158   3.667   2.693  0.3019 -0.0684  0.0185
12628TIP3    H159375   2.206   3.646   2.614 -0.1105  1.0952 -0.5648
12628TIP3    H259376   2.111   3.587   2.715  0.3395 -0.3704 -0.9774
12629TIP3   OH259377   0.462   5.855  14.885  0.2854 -0.3497 -0.4806
12629TIP3    H159378   0.415   5.852  14.802  1.0994  0.3129 -0.9829
12629TIP3    H259379   0.501   5.942  14.887  1.2670 -0.7846  0.0405
12630TIP3   OH259380   0.056   0.587  14.550  0.1877 -0.2134 -0.0009
12630TIP3    H159381   0.008   0.505  14.543 -0.2136  0.1416 -1.8208
12630TIP3    H259382   0.012   0.635  14.621  0.4045 -1.5203  1.0487
12631TIP3   OH259383   1.829   5.332   1.104 -0.5794  0.1374 -0.5112
12631TIP3    H159384   1.770   5.406   1.115 -0.3747  0.5262 -1.8159
12631TIP3    H259385   1.868   5.318   1.190 -0.8303  1.3668 -0.1912
12632TIP3   OH259386   6.572   1.350  10.969  0.1628  0.0673  0.1996
12632TIP3    H159387   6.614   1.264  10.959  0.9409  0.1143  2.5519
12632TIP3    H259388   6.578   1.369  11.062 -1.2578  2.0769 -0.0595
12633TIP3   OH259389   4.687   3.330   2.414  0.1537  0.2614  0.1667
12633TIP3    H159390   4.695   3.425   2.420  0.5537  0.2146  0.3902
12633TIP3    H259391   4.728   3.307   2.330  0.2683  0.2648  0.2210
12634TIP3   OH259392   4.558   6.437   1.942  0.4880 -0.5603 -0.3361
12634TIP3    H159393   4.570   6.527   1.972  1.4312 -0.8634  0.2528
12634TIP3    H259394   4.600   6.435   1.856 -1.8156  0.1942 -1.5386
12635TIP3   OH259395   0.414   0.561   3.257 -0.3137 -0.3058  0.5986
12635TIP3    H159396   0.499   0.531   3.288 -0.0307 -0.0125  0.1020
12635TIP3    H259397   0.381   0.489   3.202 -0.6117 -0.6274  1.1780
12636TIP3   OH259398   3.497   1.052   1.336 -0.0624 -0.0781 -0.4801
12636TIP3    H159399   3.493   0.958   1.320 -1.0750 -0.2468  0.5740
12636TIP3    H259400   3.545   1.060   1.418  0.9504  0.4084 -1.1103
12637TIP3   OH259401   5.219   5.949   5.062  0.1912 -0.2032 -0.5263
12637TIP3    H159402   5.239   6.022   5.004 -1.2345  0.6222 -0.0321
12637TIP3    H259403   5.244   5.980   5.149 -1.9963  0.4232 -0.0577
12638TIP3   OH259404   2.309   4.531  15.395 -0.1725  0.6449  0.3946
12638TIP3    H159405   2.290   4.609  15.344  0.3805  0.5074 -0.0335
12638TIP3    H259406   2.404   4.521  15.388 -0.2889 -0.3072  0.0878
12639TIP3   OH259407   3.992   3.898  15.884 -0.5143  0.1620  0.4656
12639TIP3    H159408   4.085   3.878  15.883 -0.6096 -0.3127  0.5583
12639TIP3    H259409   3.963   3.886  15.793  0.1017  3.3194 -0.2586
12640TIP3   OH259410   3.367   4.308  14.516  0.1001 -0.7556 -0.3044
12640TIP3    H159411   3.354   4.290  14.423  1.5521  0.7870 -0.8632
12640TIP3    H259412   3.409   4.394  14.518 -0.3309 -0.5335  1.8145
12641TIP3   OH259413   0.638   0.958  15.720  0.2833  0.4721  0.5084
12641TIP3    H159414   0.651   0.877  15.670 -0.6667 -0.6318  1.9569
12641TIP3    H259415   0.707   0.955  15.787 -1.5876 -0.7815  2.5053
12642TIP3   OH259416   2.228   5.370   4.855 -0.6268 -0.4655  0.1482
12642TIP3    H159417   2.188   5.358   4.941  0.1412  1.7746  0.9015
12642TIP3    H259418   2.238   5.465   4.847  2.8174 -0.7633 -0.7392
12643TIP3   OH259419   2.102   5.083  16.919 -0.3214 -0.3683 -0.1349
12643TIP3    H159420   2.121   5.002  16.871  1.4770 -0.7435  1.1192
12643TIP3    H259421   2.134   5.067  17.007 -0.1741  1.6300  0.2187
12644TIP3   OH259422   1.129   4.795  13.633 -0.2161  0.3159 -0.7623
12644TIP3    H159423   1.211   4.841  13.650  0.7321  0.1376 -4.0040
12644TIP3    H259424   1.064   4.864  13.619  0.5626  0.7124 -2.8357
12645TIP3   OH259425   6.560   6.262   5.767  0.0676  0.8399 -0.0119
12645TIP3    H159426   6.492   6.303   5.713 -0.1216 -1.2263 -1.4648
12645TIP3    H259427   6.512   6.218   5.837  0.2025  2.1876  0.9663
12646TIP3   OH259428   0.552   0.798   5.814 -0.4168  0.5223 -0.8508
12646TIP3    H159429   0.599   0.722   5.848 -1.3926 -0.0627 -0.7698
12646TIP3    H259430   0.471   0.762   5.778 -1.2124  1.6038 -0.2040
12647TIP3   OH259431   5.660   5.538  14.490 -0.3323 -0.7102  0.3113
12647TIP3    H159432   5.744   5.552  14.447  0.1891  0.4531  1.6060
12647TIP3    H259433   5.602   5.509  14.421  1.3109 -2.2864 -0.4799
12648TIP3   OH259434   0.562   4.663   2.639 -0.0657  0.2679 -0.3117
12648TIP3    H159435   0.477   4.707   2.642  0.8502  2.1144 -0.3217
12648TIP3    H259436   0.623   4.731   2.612  1.7199 -0.5400  1.4796
12649TIP3   OH259437   6.396   6.333  11.294  0.8868 -0.1209  0.1485
12649TIP3    H159438   6.407   6.306  11.203 -1.8521  0.9947 -0.6229
12649TIP3    H259439   6.395   6.429  11.291 -1.0765 -0.0625  1.0164
12650TIP3   OH259440   6.686   5.891   5.080 -0.0598  0.0184 -0.4723
12650TIP3    H159441   6.642   5.894   5.165  3.1217 -0.1835  1.3769
12650TIP3    H259442   6.736   5.973   5.077  1.4597 -0.8953 -1.1422
12651TIP3   OH259443   1.542   6.312   4.205  0.2407 -0.3709 -0.3592
12651TIP3    H159444   1.489   6.298   4.284  0.4145 -0.1863 -0.2094
12651TIP3    H259445   1.626   6.342   4.238 -0.0910  0.9703 -0.6665
12652TIP3   OH259446   5.432   2.299   0.654  0.6102  0.3048 -0.1069
12652TIP3    H159447   5.470   2.286   0.567  1.5704  0.1000  0.3409
12652TIP3    H259448   5.479   2.374   0.691  0.0084  0.5758  0.1374
12653TIP3   OH259449   6.723   6.594  15.691  0.8952 -0.8009  0.3442
12653TIP3    H159450   6.682   6.559  15.770 -1.6036 -1.0485 -0.9679
12653TIP3    H259451   6.752   6.682  15.716 -1.2959 -0.2594  1.1626
12654TIP3   OH259452   2.271   5.191  12.836 -0.0682 -0.3189  0.5949
12654TIP3    H159453   2.209   5.118  12.838  0.8932 -1.1783  3.2615
12654TIP3    H259454   2.338   5.165  12.772 -0.7610 -0.8421  0.0766
12655TIP3   OH259455   1.820   5.524  16.441  0.6829 -0.0679  0.1202
12655TIP3    H159456   1.910   5.555  16.436  0.5790  0.1713 -0.2793
12655TIP3    H259457   1.818   5.470  16.520  1.4166 -0.8769 -0.3911
12656TIP3   OH259458   6.018   2.997   1.349 -0.0509  0.6114 -0.2585
12656TIP3    H159459   5.992   2.914   1.390  1.2135  0.2238 -0.2018
12656TIP3    H259460   6.010   2.979   1.255  0.8563  0.2012 -0.2622
12657TIP3   OH259461   6.552   5.184  14.955  0.3107 -0.4310  0.3157
12657TIP3    H159462   6.552   5.196  14.861 -0.1727  0.4039  0.4134
12657TIP3    H259463   6.597   5.262  14.990 -0.7320 -0.0520  0.8435
12658TIP3   OH259464   2.405   3.344  16.476 -0.2688  0.2539  0.0715
12658TIP3    H159465   2.491   3.319  16.441  0.3129 -0.3008  1.7951
12658TIP3    H259466   2.411   3.439  16.490 -0.4501  0.4553 -1.0867
12659TIP3   OH259467   1.535   0.975  11.572  0.7114 -0.1052 -0.1770
12659TIP3    H159468   1.487   1.050  11.607  0.6025  0.0870 -0.7241
12659TIP3    H259469   1.467   0.913  11.546  0.7438  0.2039 -1.0347
12660TIP3   OH259470   2.827   0.200   1.181  0.2959 -0.3742  0.1253
12660TIP3    H159471   2.838   0.229   1.090 -0.6812 -1.4204 -0.3664
12660TIP3    H259472   2.759   0.133   1.176 -0.0019 -0.2293  1.6907
12661TIP3   OH259473   0.706   6.662   1.267  0.2932 -0.2998 -0.2550
12661TIP3    H159474   0.749   6.588   1.310 -0.6999  0.5687  2.4464
12661TIP3    H259475   0.623   6.627   1.235  0.3512 -0.6329 -0.0461
12662TIP3   OH259476   1.231   0.532   3.967 -0.0967  0.7416 -0.4214
12662TIP3    H159477   1.205   0.547   4.058 -0.3453  1.4674 -0.6069
12662TIP3    H259478   1.177   0.592   3.916  0.7725  1.0925 -0.9603
12663TIP3   OH259479   0.956   4.138   5.547 -0.3568  0.5082 -0.1929
12663TIP3    H159480   0.889   4.130   5.616 -0.5512 -0.1789 -0.4475
12663TIP3    H259481   0.988   4.227   5.555 -0.1972  0.3719  0.9622
12664TIP3   OH259482   4.283   1.341   3.398 -0.2516  0.3301 -0.2553
12664TIP3    H159483   4.242   1.259   3.370 -0.9452  0.5069  0.2370
12664TIP3    H259484   4.212   1.392   3.438 -0.1213  1.7147 -1.6957
12665TIP3   OH259485   2.584   0.449  14.804  0.2918 -0.4361  0.1310
12665TIP3    H159486   2.611   0.363  14.770 -0.4389  0.2027 -2.3006
12665TIP3    H259487   2.495   0.461  14.769 -0.1540  0.7483  1.5859
12666TIP3   OH259488   1.396   2.586   4.858  0.3097 -0.2514  0.4960
12666TIP3    H159489   1.467   2.650   4.865  0.7714 -0.4872 -1.3612
12666TIP3    H259490   1.441   2.503   4.844 -0.3101 -0.5284  0.1316
12667TIP3   OH259491   0.280   1.514   5.792 -0.7734 -0.5065  0.4687
12667TIP3    H159492   0.308   1.487   5.880 -1.0816 -0.1100  0.6933
12667TIP3    H259493   0.236   1.598   5.806 -1.5566 -0.8424  0.0447
12668TIP3   OH259494   4.332   3.331   1.501  0.1692  0.2038 -0.0950
12668TIP3    H159495   4.268   3.278   1.454  0.4648  0.0057 -0.2755
12668TIP3    H259496   4.341   3.410   1.448 -1.4156  1.1447  0.9531
12669TIP3   OH259497   2.142   3.296   1.937 -0.6269  0.5833 -0.6005
12669TIP3    H159498   2.208   3.255   1.880  0.5877  0.9997  0.4587
12669TIP3    H259499   2.120   3.227   2.000  0.4734  1.0916  0.3956
12670TIP3   OH259500   3.128   4.625  12.767  0.2531 -0.0805  0.2779
12670TIP3    H159501   3.033   4.616  12.757  0.2377  0.6514 -0.2871
12670TIP3    H259502   3.148   4.575  12.846 -0.3974 -1.4747 -0.3951
12671TIP3   OH259503   4.579   3.922  15.618  0.3580  0.2066  0.3995
12671TIP3    H159504   4.602   4.011  15.645  0.5960 -0.3513  2.1650
12671TIP3    H259505   4.586   3.870  15.698 -2.0866 -0.9780 -0.0581
12672TIP3   OH259506   3.629   1.758   5.071  0.2363 -0.4248 -0.2771
12672TIP3    H159507   3.639   1.776   4.977  2.5935  0.2049  0.0288
12672TIP3    H259508   3.662   1.668   5.081  3.0607  0.5516  0.2947
12673TIP3   OH259509   3.130   0.393   5.092  0.4871 -0.2330 -0.0753
12673TIP3    H159510   3.069   0.432   5.028  0.1013  1.3686  1.2219
12673TIP3    H259511   3.076   0.332   5.141 -0.4425  1.9119  1.7458
12674TIP3   OH259512   2.896   6.671  12.298 -0.3555 -0.1227  0.0412
12674TIP3    H159513   2.810   6.628  12.298 -0.4532  0.0618  0.7608
12674TIP3    H259514   2.914   6.689  12.390 -0.0491  0.8404 -0.1953
12675TIP3   OH259515   5.375   5.379   2.149  0.0005 -0.2576 -0.2771
12675TIP3    H159516   5.323   5.300   2.141 -0.9911  0.1053  1.8302
12675TIP3    H259517   5.339   5.424   2.226  3.6034 -0.1552  1.5991
12676TIP3   OH259518   1.406   5.025   4.364 -0.1596  1.0023  0.4276
12676TIP3    H159519   1.320   5.003   4.399  0.1019 -1.6144 -0.3458
12676TIP3    H259520   1.388   5.080   4.287 -1.2338 -0.1657 -0.1989
12677TIP3   OH259521   1.972   0.226  15.953 -0.3603 -0.2122 -0.2669
12677TIP3    H159522   1.948   0.238  16.045  0.0597  1.0150 -0.2995
12677TIP3    H259523   2.047   0.167  15.955 -0.3772 -0.2206  0.1764
12678TIP3   OH259524   3.993   4.376  13.239 -0.9739 -0.1059  0.0395
12678TIP3    H159525   4.017   4.369  13.331 -1.1295 -0.6406  0.0435
12678TIP3    H259526   4.071   4.347  13.192 -0.3915  1.5193 -0.0429
12679TIP3   OH259527   0.131   5.570   2.167  0.3569 -0.5304 -0.1891
12679TIP3    H159528   0.053   5.554   2.113  0.8277  1.6786 -1.6899
12679TIP3    H259529   0.101   5.560   2.257 -1.0779 -1.9485 -0.7871
12680TIP3   OH259530   5.843   4.524  14.259 -0.3694  0.2516 -0.0322
12680TIP3    H159531   5.926   4.566  14.236  0.6768 -0.3003  2.4342
12680TIP3    H259532   5.786   4.542  14.184  1.1415  2.8999 -0.6911
12681TIP3   OH259533   6.825   6.504  11.402 -0.0545  0.7179 -0.0268
12681TIP3    H159534   6.797   6.470  11.317  1.2089  2.1796 -1.0860
12681TIP3    H259535   6.913   6.540  11.386 -0.4991  2.6514  1.4523
12682TIP3   OH259536   1.479   5.380  16.936 -0.2585  0.0522  0.0811
12682TIP3    H159537   1.498   5.377  16.842  3.2848 -0.6629  0.6800
12682TIP3    H259538   1.418   5.308  16.950  1.2363 -1.5963 -1.3458
12683TIP3   OH259539   5.248   5.159   2.508 -0.1150 -0.3615 -0.3888
12683TIP3    H159540   5.226   5.235   2.454  1.4354  0.7608  0.4894
12683TIP3    H259541   5.209   5.178   2.593 -0.2656 -0.8549 -0.3461
12684TIP3   OH259542   3.002   5.340  16.525 -0.4784  0.3134  0.4815
12684TIP3    H159543   2.934   5.273  16.515  0.5582 -1.1413  2.4736
12684TIP3    H259544   3.044   5.345  16.439 -1.3593 -0.7250 -0.0248
12685TIP3   OH259545   6.375   4.069   1.598 -0.1553  0.3577 -0.2859
12685TIP3    H159546   6.310   4.029   1.539 -1.1926  1.1619  0.2627
12685TIP3    H259547   6.322   4.106   1.669  0.9798  0.4276  0.5460
12686TIP3   OH259548   4.605   1.962  16.759 -0.0282  0.6367  0.1267
12686TIP3    H159549   4.589   1.881  16.709  0.5203  0.8043 -0.3280
12686TIP3    H259550   4.671   2.009  16.708  0.3320  0.9476  0.8706
12687TIP3   OH259551   2.054   1.168  11.188  0.1583  0.4685  0.7908
12687TIP3    H159552   2.121   1.118  11.143  1.1380  1.9223  0.5556
12687TIP3    H259553   2.073   1.155  11.281 -0.2756 -0.4559  0.7589
12688TIP3   OH259554   2.061   5.941  15.748 -0.1762 -0.1761  0.1102
12688TIP3    H159555   1.998   6.009  15.774 -0.6505 -0.2259 -0.8682
12688TIP3    H259556   2.145   5.974  15.779 -0.5247  0.4269  0.4410
12689TIP3   OH259557   3.716   1.312  14.661 -0.5767 -0.2091 -0.1363
12689TIP3    H159558   3.726   1.374  14.590 -0.8343 -1.1832 -1.0453
12689TIP3    H259559   3.733   1.226  14.621 -2.1664 -0.9188  0.6305
12690TIP3   OH259560   0.534   4.658  15.152  0.0757  0.3389 -0.0344
12690TIP3    H159561   0.563   4.737  15.107  2.7643  0.4541  1.6976
12690TIP3    H259562   0.509   4.688  15.239  1.9882 -0.7399  0.9536
12691TIP3   OH259563   0.100   5.030   4.162  0.3784 -0.7469 -0.0666
12691TIP3    H159564   0.106   5.006   4.070  0.6690  0.0325 -0.2596
12691TIP3    H259565   0.006   5.028   4.181  0.1690  0.6065 -0.8157
12692TIP3   OH259566   0.198   4.745  13.393  0.3382  0.3621 -0.3958
12692TIP3    H159567   0.235   4.759  13.480 -0.9142 -0.3235  0.2708
12692TIP3    H259568   0.172   4.832  13.364  0.4526  0.5504  0.0513
12693TIP3   OH259569   5.947   6.053   3.766  0.3353 -0.0066  0.0627
12693TIP3    H159570   5.886   6.002   3.819  0.7166 -0.2964  0.2301
12693TIP3    H259571   5.912   6.142   3.767  0.5037  0.0516  1.0482
12694TIP3   OH259572   2.043   6.544   6.529  0.4678  0.5045 -0.1425
12694TIP3    H159573   2.119   6.600   6.549  0.5487  0.4643 -0.3332
12694TIP3    H259574   1.968   6.593   6.563  0.7946 -0.6595  2.5134
12695TIP3   OH259575   3.225   2.264  12.300  0.4640  0.3187 -0.3582
12695TIP3    H159576   3.203   2.357  12.291 -0.1763  0.3741  1.4591
12695TIP3    H259577   3.141   2.219  12.309  0.7946 -0.3440 -0.5039
12696TIP3   OH259578   2.257   1.631   2.528 -0.6438  0.0281  0.6831
12696TIP3    H159579   2.259   1.638   2.432 -2.0451  1.2269  0.7092
12696TIP3    H259580   2.254   1.721   2.559  0.5033 -0.3226  1.9128
12697TIP3   OH259581   0.281   4.520   6.236 -0.2186 -0.0871  0.2704
12697TIP3    H159582   0.263   4.600   6.285 -0.5674  0.0517 -0.0774
12697TIP3    H259583   0.233   4.452   6.282 -0.0358 -0.0728  0.4846
12698TIP3   OH259584   5.956   1.663  16.579 -0.2342 -0.0351 -0.5513
12698TIP3    H159585   5.893   1.736  16.574 -0.2171 -0.0460 -0.9739
12698TIP3    H259586   5.903   1.585  16.560 -0.3924 -0.2213  0.5701
12699TIP3   OH259587   3.102   0.875   1.145 -0.5280 -0.4334  0.3233
12699TIP3    H159588   3.193   0.845   1.147  0.0260  1.1495  1.5969
12699TIP3    H259589   3.076   0.876   1.237 -2.2757 -1.9795 -0.0926
12700TIP3   OH259590   6.030   4.573   4.338 -0.0769 -0.5640  0.3104
12700TIP3    H159591   6.090   4.572   4.412 -1.8409 -0.5178  1.8001
12700TIP3    H259592   6.036   4.485   4.300  0.2142 -0.8583  1.0304
12701TIP3   OH259593   6.451   2.668  14.849  0.2617 -0.0023 -0.0987
12701TIP3    H159594   6.371   2.671  14.900  0.4536  1.4747  0.1682
12701TIP3    H259595   6.424   2.641  14.762 -0.3302 -0.7816  0.3239
12702TIP3   OH259596   0.009   4.465   6.098 -0.4020  1.0183 -0.2293
12702TIP3    H159597  -0.002   4.527   6.026  1.8511  0.6540 -0.9557
12702TIP3    H259598   0.090   4.492   6.141 -0.4210 -0.2496  0.6556
12703TIP3   OH259599   2.082   1.638  11.490 -0.6025  0.3129 -0.5497
12703TIP3    H159600   2.106   1.620  11.581 -2.2130  0.6990 -0.0172
12703TIP3    H259601   2.038   1.558  11.461 -1.5589  0.7799 -0.4337
12704TIP3   OH259602   0.863   6.085   4.663  0.3854  0.8237 -0.3577
12704TIP3    H159603   0.789   6.030   4.639 -0.4775  0.7289  2.2002
12704TIP3    H259604   0.937   6.046   4.617 -0.4574 -1.6117  0.1704
12705TIP3   OH259605   2.529   5.185   2.213 -0.5205 -0.4524 -0.1590
12705TIP3    H159606   2.609   5.212   2.258 -0.9230 -0.4081  0.5449
12705TIP3    H259607   2.459   5.202   2.276 -1.3276  1.3989 -1.4526
12706TIP3   OH259608   4.495   0.217   4.967 -0.0322  0.0168 -0.2820
12706TIP3    H159609   4.457   0.300   4.939 -1.9444 -0.8342 -0.3378
12706TIP3    H259610   4.420   0.159   4.978  1.1991 -1.4809  0.5385
12707TIP3   OH259611   3.778   0.055   1.651  0.2237  0.3291  0.1115
12707TIP3    H159612   3.864   0.095   1.641  0.2980  0.1368 -0.0405
12707TIP3    H259613   3.732   0.076   1.569  0.5853 -0.6585 -0.3618
12708TIP3   OH259614   2.132   6.222  14.431 -0.2928  0.0376 -0.2698
12708TIP3    H159615   2.189   6.194  14.502  1.0470  0.1792 -1.2662
12708TIP3    H259616   2.124   6.146  14.374 -1.5347 -0.1423  0.0939
12709TIP3   OH259617   1.956   2.210   4.323 -0.0699 -0.2401  0.3464
12709TIP3    H159618   1.934   2.152   4.250  0.1750  0.2887 -0.1637
12709TIP3    H259619   1.876   2.259   4.340  0.0585  0.1157 -0.0328
12710TIP3   OH259620   2.067   1.540  12.782 -0.0470 -0.7011 -0.1608
12710TIP3    H159621   1.985   1.491  12.791 -1.8055  1.8844 -0.7879
12710TIP3    H259622   2.047   1.609  12.719  2.1168  1.0190  0.8779
12711TIP3   OH259623   0.270   2.617  15.123 -0.4550 -0.9745 -0.2392
12711TIP3    H159624   0.274   2.654  15.035  0.6142 -1.3387 -0.3625
12711TIP3    H259625   0.357   2.632  15.160 -0.1174 -2.8777 -0.1182
12712TIP3   OH259626   1.064   2.189  16.775  0.1329  0.2387 -0.1047
12712TIP3    H159627   1.136   2.126  16.783  2.4356  2.7659  0.8795
12712TIP3    H259628   1.001   2.162  16.841 -0.6943 -2.8963 -1.9264
12713TIP3   OH259629   0.293   6.504   6.245  0.1958 -0.5493  0.2069
12713TIP3    H159630   0.348   6.506   6.323  1.5851  0.0899 -0.7636
12713TIP3    H259631   0.348   6.540   6.175 -1.1180 -0.8172 -1.0096
12714TIP3   OH259632   4.314   3.163  12.299 -0.4078 -0.1352 -0.2807
12714TIP3    H159633   4.369   3.125  12.230 -1.7828  1.0937 -2.1550
12714TIP3    H259634   4.373   3.220  12.347  0.0616  1.0738 -2.1767
12715TIP3   OH259635   5.597   2.330  15.651  0.0804 -0.5225 -0.2842
12715TIP3    H159636   5.569   2.282  15.729 -0.4818 -0.1422 -0.2438
12715TIP3    H259637   5.689   2.352  15.668 -0.5313  1.2327  1.1692
12716TIP3   OH259638   3.427   2.329  13.040 -0.0128 -0.0780 -0.6084
12716TIP3    H159639   3.361   2.262  13.058 -0.4398  0.4236 -0.2655
12716TIP3    H259640   3.510   2.290  13.070 -0.4053 -0.0705  0.5119
12717TIP3   OH259641   1.392   2.939  14.927  0.7315  0.8244  0.0973
12717TIP3    H159642   1.488   2.945  14.935  0.9894 -0.0272 -1.8519
12717TIP3    H259643   1.377   2.917  14.835 -1.3022 -0.3627  0.6641
12718TIP3   OH259644   2.470   4.709   1.543  0.6235  0.2674 -0.2902
12718TIP3    H159645   2.520   4.774   1.594  0.7179  0.2562 -0.3693
12718TIP3    H259646   2.406   4.762   1.495 -0.5869  0.1448  1.1121
12719TIP3   OH259647   6.368   5.626  13.648  0.6021 -0.3264  0.5141
12719TIP3    H159648   6.319   5.636  13.567  0.3512 -0.2165  0.6750
12719TIP3    H259649   6.440   5.567  13.627  1.2309  0.6150 -0.0895
12720TIP3   OH259650   0.406   1.346   0.423 -0.2516 -0.2449  0.3267
12720TIP3    H159651   0.389   1.256   0.453 -1.4710 -0.2752 -0.3865
12720TIP3    H259652   0.460   1.335   0.345  1.8824 -0.2142  1.7201
12721TIP3   OH259653   4.246   6.741  13.797  0.9523 -0.6682  0.0324
12721TIP3    H159654   4.296   6.787  13.729 -0.2091  0.6161 -0.0038
12721TIP3    H259655   4.290   6.764  13.878  1.0391 -0.3968 -0.0893
12722TIP3   OH259656   2.076   2.765  12.562 -0.4353 -0.1385 -0.2088
12722TIP3    H159657   2.009   2.745  12.627 -0.4540  0.7695  0.0708
12722TIP3    H259658   2.157   2.772  12.613 -0.0476 -1.5585 -0.5893
12723TIP3   OH259659   1.618   0.431   2.559 -0.7158  0.0859 -0.4949
12723TIP3    H159660   1.539   0.485   2.555 -1.2682 -0.7368 -0.9963
12723TIP3    H259661   1.602   0.360   2.497  0.6752  0.2340 -1.0749
12724TIP3   OH259662   6.437   2.349   2.957  0.1938  0.3437  0.0536
12724TIP3    H159663   6.442   2.373   3.049 -0.2089  0.2621  0.0987
12724TIP3    H259664   6.398   2.425   2.914 -0.0612  0.1967  0.0242
12725TIP3   OH259665   1.418   4.529  13.918 -0.2392 -0.2129 -0.2929
12725TIP3    H159666   1.457   4.511  13.833 -1.4636 -0.5705 -0.8083
12725TIP3    H259667   1.356   4.457  13.932 -0.7177  0.3217  0.4686
12726TIP3   OH259668   0.671   5.685  14.917 -0.5047 -0.3801 -0.0630
12726TIP3    H159669   0.584   5.724  14.922 -0.1420  0.6952 -1.5443
12726TIP3    H259670   0.731   5.759  14.918  0.6457 -1.1528  3.6765
12727TIP3   OH259671   5.984   6.505   2.062  0.1203 -0.0457 -0.5079
12727TIP3    H159672   5.895   6.512   2.027  0.3014 -0.5395 -1.0862
12727TIP3    H259673   5.973   6.463   2.147 -0.4593  2.3619  0.6860
12728TIP3   OH259674   5.458   1.927  11.603 -0.0353  0.3154  0.5045
12728TIP3    H159675   5.403   1.850  11.587  0.6776  0.1621 -1.5009
12728TIP3    H259676   5.396   1.995  11.631 -1.3111  0.1294 -1.6142
12729TIP3   OH259677   5.427   1.061  13.796  0.1565  0.6145 -0.2070
12729TIP3    H159678   5.399   1.136  13.744  0.5469  0.1493 -1.1069
12729TIP3    H259679   5.496   1.020  13.744 -0.6091 -0.8414 -0.1131
12730TIP3   OH259680   5.409   0.093  15.204  0.8247  0.0180  0.2237
12730TIP3    H159681   5.380   0.181  15.227  0.0524 -0.3803  0.8325
12730TIP3    H259682   5.395   0.088  15.109 -0.3465  0.1275  0.3774
12731TIP3   OH259683   0.957   3.907   2.782 -0.0893 -0.0277  0.3892
12731TIP3    H159684   1.032   3.888   2.726  0.4364  1.3710  0.5738
12731TIP3    H259685   0.994   3.910   2.870 -0.2491  1.1398  0.4318
12732TIP3   OH259686   4.471   6.305   0.302 -0.1491  0.0987 -0.3387
12732TIP3    H159687   4.398   6.353   0.263  0.0882  1.0909  0.3871
12732TIP3    H259688   4.491   6.353   0.383  0.4191 -0.9494  0.1752
12733TIP3   OH259689   5.635   1.079  11.866 -0.7242  0.4140 -0.1349
12733TIP3    H159690   5.579   1.036  11.801  2.2640 -1.2302 -1.8216
12733TIP3    H259691   5.722   1.078  11.827  0.7900  1.5983  2.9156
12734TIP3   OH259692   3.264   6.247  14.680  0.1144 -0.1767 -0.1764
12734TIP3    H159693   3.272   6.165  14.729 -1.8941 -0.6117 -0.5024
12734TIP3    H259694   3.197   6.230  14.614  1.0446  1.1456 -1.5597
12735TIP3   OH259695   5.862   2.501   4.185 -0.4775  0.1709  0.3529
12735TIP3    H159696   5.868   2.561   4.110  1.7222  0.9702  1.0658
12735TIP3    H259697   5.902   2.550   4.257 -0.9818 -1.2208  1.6266
12736TIP3   OH259698   5.647   0.404  16.955  0.0713  0.2036 -0.2421
12736TIP3    H159699   5.645   0.309  16.947 -0.3692  0.1230  0.6795
12736TIP3    H259700   5.648   0.420  17.050 -0.3213  1.1164 -0.3837
12737TIP3   OH259701   4.039   0.903  12.397  0.1670 -0.1868  0.2238
12737TIP3    H159702   4.014   0.816  12.428 -0.1511  0.0753  0.7165
12737TIP3    H259703   4.008   0.963  12.465  1.9134  0.1888  0.7478
12738TIP3   OH259704   5.536   0.759  14.863 -0.5020 -0.1436  0.6941
12738TIP3    H159705   5.538   0.853  14.881  1.8697  0.2049 -0.8887
12738TIP3    H259706   5.521   0.754  14.768 -0.5992 -1.3718  0.7620
12739TIP3   OH259707   4.652   1.718   2.155  0.2563 -0.1975  0.1500
12739TIP3    H159708   4.695   1.637   2.127  1.3654 -0.3940  2.1669
12739TIP3    H259709   4.559   1.702   2.143  0.4582 -1.7644  0.4465
12740TIP3   OH259710   3.508   1.726  11.373 -0.1021 -0.4674 -0.1849
12740TIP3    H159711   3.508   1.689  11.462 -0.0645 -0.1653 -0.0584
12740TIP3    H259712   3.433   1.685  11.330 -0.2898 -0.3995  0.0765
12741TIP3   OH259713   4.872   1.977  15.727 -0.0315 -0.5710 -0.2706
12741TIP3    H159714   4.905   1.898  15.770 -0.1172 -0.1767  0.5256
12741TIP3    H259715   4.794   1.947  15.680  0.9149 -1.3204 -1.4263
12742TIP3   OH259716   5.126   1.111   5.213 -0.2146  0.3498  0.0866
12742TIP3    H159717   5.161   1.173   5.149  1.0690 -3.1304 -2.9728
12742TIP3    H259718   5.202   1.059   5.239 -1.7729 -2.7263 -1.0211
12743TIP3   OH259719   3.516   4.522   2.211 -0.2850 -0.0760 -0.2242
12743TIP3    H159720   3.593   4.525   2.267 -0.1152  2.4559 -0.4730
12743TIP3    H259721   3.481   4.434   2.223  0.8510 -0.2781  2.3114
12744TIP3   OH259722   0.672   1.118   3.071  0.7250  0.1933 -0.4473
12744TIP3    H159723   0.617   1.175   3.017 -0.6509  0.5342  1.2317
12744TIP3    H259724   0.706   1.174   3.140  0.9701 -0.6083  0.0993
12745TIP3   OH259725   6.617   0.871  14.482 -0.2115  0.2961  0.1429
12745TIP3    H159726   6.587   0.785  14.511 -0.4254  0.1026 -0.6481
12745TIP3    H259727   6.646   0.914  14.563  0.3881 -0.7046  0.4843
12746TIP3   OH259728   3.472   3.709  11.956  0.1685 -0.1647 -0.3692
12746TIP3    H159729   3.566   3.706  11.940  0.2877 -2.7414  0.3272
12746TIP3    H259730   3.464   3.735  12.047  0.2867 -1.1519 -0.0699
12747TIP3   OH259731   0.781   2.226   3.247 -0.0320  0.5764 -0.3587
12747TIP3    H159732   0.762   2.143   3.205 -1.3964  1.1496 -0.9162
12747TIP3    H259733   0.797   2.203   3.339 -1.0855 -0.2250 -0.3641
12748TIP3   OH259734   2.179   4.881   0.670  0.3953  0.2397 -0.2870
12748TIP3    H159735   2.182   4.785   0.672 -1.3465  0.1704  1.0804
12748TIP3    H259736   2.192   4.903   0.577  1.7234 -1.2467 -0.4987
12749TIP3   OH259737   0.313   1.599   4.352 -0.1806  0.2552 -0.0479
12749TIP3    H159738   0.352   1.589   4.439  1.8886  0.4314 -0.9107
12749TIP3    H259739   0.297   1.693   4.343  0.4073  0.3440 -0.1806
12750TIP3   OH259740   0.893   1.502  16.817  0.1410 -0.2984 -0.2477
12750TIP3    H159741   0.835   1.478  16.890  0.7300 -2.0104 -0.3048
12750TIP3    H259742   0.976   1.523  16.859  0.3131 -0.7007 -0.3953
12751TIP3   OH259743   0.280   2.713   3.413 -0.1471  0.6532  0.0150
12751TIP3    H159744   0.196   2.748   3.441 -0.8718 -1.7506  1.1663
12751TIP3    H259745   0.281   2.725   3.318 -2.0824  0.2335 -0.0996
12752TIP3   OH259746   3.917   5.938   3.500 -0.3702 -0.1737 -0.3289
12752TIP3    H159747   3.903   5.878   3.573  1.3624  0.1011  0.2834
12752TIP3    H259748   3.953   6.017   3.541 -1.4908  0.8472 -1.2517
12753TIP3   OH259749   3.032   0.953  10.919  0.3961  0.1635  0.5462
12753TIP3    H159750   3.066   0.901  10.992  2.0177  0.7888  0.2694
12753TIP3    H259751   3.078   0.920  10.842  0.7193  1.3349  0.2200
12754TIP3   OH259752   6.388   6.477   5.684 -0.3295  0.0899 -0.0610
12754TIP3    H159753   6.367   6.543   5.618 -0.7505  0.5523  0.5278
12754TIP3    H259754   6.304   6.440   5.709 -0.3965  1.2689  1.5993
12755TIP3   OH259755   1.273   2.651   0.366 -0.3088  0.7046  0.3017
12755TIP3    H159756   1.187   2.676   0.397 -0.9731 -1.0228 -0.0252
12755TIP3    H259757   1.263   2.561   0.335  1.3699  0.7961 -0.6943
12756TIP3   OH259758   1.508   1.071  17.285 -0.2165  0.3559 -0.1288
12756TIP3    H159759   1.440   1.124  17.328 -0.2559 -0.5594  0.9765
12756TIP3    H259760   1.533   1.006  17.350  0.3205 -0.5703 -1.2183
12757TIP3   OH259761   4.287   0.965  14.157 -0.2823 -0.1952  0.2141
12757TIP3    H159762   4.215   0.978  14.096 -0.7791  1.2789  1.0638
12757TIP3    H259763   4.246   0.922  14.233 -0.3233  0.7655  0.7526
12758TIP3   OH259764   2.647   5.708   3.164 -0.3129  0.1364 -0.3829
12758TIP3    H159765   2.663   5.621   3.126 -0.2439  0.4391 -1.0706
12758TIP3    H259766   2.734   5.747   3.171 -0.0985 -0.6129  1.8830
12759TIP3   OH259767   4.359   0.596   4.524  0.1280  0.0927  0.1493
12759TIP3    H159768   4.327   0.506   4.527 -0.8327  0.4258  0.3346
12759TIP3    H259769   4.454   0.589   4.538 -0.1928 -0.7539  2.3025
12760TIP3   OH259770   4.846   0.365  11.957  0.1017  0.0913 -0.4074
12760TIP3    H159771   4.789   0.309  11.904  0.2693  0.4032 -0.9175
12760TIP3    H259772   4.897   0.415  11.894  0.4712  0.2984  0.0478
12761TIP3   OH259773   1.461   5.244   2.277  0.0476 -0.1596 -0.1463
12761TIP3    H159774   1.417   5.279   2.354 -0.9005 -1.7889  0.1049
12761TIP3    H259775   1.390   5.209   2.223  0.9063 -1.4735 -0.4638
12762TIP3   OH259776   0.372   3.741  12.145 -0.1780  0.5483  0.8399
12762TIP3    H159777   0.322   3.799  12.088 -0.2606 -1.5703 -1.4555
12762TIP3    H259778   0.311   3.671  12.169  0.6822 -0.1771  1.0038
12763TIP3   OH259779   5.242   1.131   4.198 -0.1249  0.0967  0.3510
12763TIP3    H159780   5.190   1.170   4.267 -0.6426  1.4126 -0.7320
12763TIP3    H259781   5.330   1.166   4.211 -0.1841  0.2057  0.4566
12764TIP3   OH259782   0.970   1.485   0.829 -0.4153 -0.5519  0.0918
12764TIP3    H159783   0.900   1.449   0.883 -0.4198 -1.4850 -0.5015
12764TIP3    H259784   0.927   1.549   0.773 -1.1754 -2.3550 -1.4915
12765TIP3   OH259785   5.375   1.316   5.747  0.0978  0.3315 -0.0434
12765TIP3    H159786   5.323   1.275   5.678  0.1107  1.5229 -0.7775
12765TIP3    H259787   5.321   1.307   5.825  0.4283 -1.7678  0.0193
12766TIP3   OH259788   4.735   5.754   0.740  0.1748  0.5637 -0.0189
12766TIP3    H159789   4.786   5.713   0.810 -0.6246 -0.6628 -0.1226
12766TIP3    H259790   4.666   5.691   0.721  1.9557 -0.5547 -3.8762
12767TIP3   OH259791   2.224   4.924   3.125  0.1821 -0.3347  0.1943
12767TIP3    H159792   2.222   4.834   3.092  0.1324  0.1525 -1.1997
12767TIP3    H259793   2.295   4.924   3.190 -0.1504 -1.4860  0.5795
12768TIP3   OH259794   0.951   0.851   2.973 -0.4197  0.5728  0.0980
12768TIP3    H159795   0.950   0.757   2.957  0.3194  0.6911 -0.7181
12768TIP3    H259796   0.928   0.860   3.066 -1.7983 -0.3234 -0.1248
12769TIP3   OH259797   5.647   2.109  14.624  0.0001  0.5324 -0.2228
12769TIP3    H159798   5.681   2.101  14.713 -0.8583 -1.1757 -0.0171
12769TIP3    H259799   5.674   2.029  14.580 -3.0562 -0.6043 -0.2371
12770TIP3   OH259800   5.368   0.355   2.466  0.7113 -0.7192 -0.1245
12770TIP3    H159801   5.300   0.318   2.409  0.4100 -2.0249  1.0169
12770TIP3    H259802   5.446   0.305   2.444  0.5647 -1.3172  0.6504
12771TIP3   OH259803   0.806   3.513   4.359  0.6207  0.0163  0.3667
12771TIP3    H159804   0.868   3.559   4.303  0.6531 -1.3085 -0.7377
12771TIP3    H259805   0.803   3.424   4.324 -0.2753 -0.5307  1.7408
12772TIP3   OH259806   0.689   0.269   4.412 -0.2746 -0.0635 -0.2994
12772TIP3    H159807   0.691   0.326   4.489  1.8064  0.6341 -0.7983
12772TIP3    H259808   0.680   0.330   4.338  1.3179 -0.3812 -0.7938
12773TIP3   OH259809   0.714   6.100   5.168  0.4990 -0.0686  0.1426
12773TIP3    H159810   0.697   6.016   5.210 -1.3858 -1.1012 -2.3901
12773TIP3    H259811   0.787   6.083   5.109  0.4487  0.1985  0.0022
12774TIP3   OH259812   3.152   6.593  15.210  0.4766  0.1625 -0.5855
12774TIP3    H159813   3.206   6.514  15.211  0.3000  0.0316 -0.9751
12774TIP3    H259814   3.113   6.594  15.122 -1.8067 -0.8628  0.3325
12775TIP3   OH259815   3.910   6.242  11.153 -0.0681  0.4186  0.2306
12775TIP3    H159816   3.936   6.198  11.072 -0.1785 -0.0872  0.4684
12775TIP3    H259817   3.824   6.205  11.174  0.4375 -0.2551  1.1630
12776TIP3   OH259818   2.625   2.048  13.311  0.1442 -0.1876  0.0437
12776TIP3    H159819   2.556   2.001  13.264  0.5266 -0.0862 -0.6294
12776TIP3    H259820   2.577   2.109  13.367 -0.3272 -0.0854 -0.4535
12777TIP3   OH259821   4.481   2.359  13.080  0.4472  0.0220 -0.2589
12777TIP3    H159822   4.448   2.400  13.000  0.7357  0.2030 -0.2899
12777TIP3    H259823   4.433   2.277  13.088 -0.0624  0.3220 -0.2554
12778TIP3   OH259824   2.931   3.043  11.550 -0.2825 -0.5792  0.1671
12778TIP3    H159825   2.898   3.093  11.625 -1.1523 -0.2316 -0.4293
12778TIP3    H259826   3.019   3.016  11.576  1.0730  2.9537 -0.2387
12779TIP3   OH259827   5.215   6.352   1.460 -0.6229 -0.3336 -0.3851
12779TIP3    H159828   5.158   6.358   1.537  1.3582 -0.5540  1.1729
12779TIP3    H259829   5.202   6.434   1.414  0.3997  1.1964  1.8787
12780TIP3   OH259830   2.136   3.790   2.938  0.5997  0.2884  0.3368
12780TIP3    H159831   2.168   3.769   2.850 -0.3646 -0.4023  0.1408
12780TIP3    H259832   2.114   3.705   2.977 -0.1054  0.6806  0.8146
12781TIP3   OH259833   3.548   5.028   5.139 -0.5245  0.0425  0.3505
12781TIP3    H159834   3.499   4.946   5.138  2.5158 -2.0145 -2.3784
12781TIP3    H259835   3.585   5.033   5.227 -0.7167 -1.5987  0.5500
12782TIP3   OH259836   1.544   3.776  12.004  0.2106  0.2836  0.1929
12782TIP3    H159837   1.538   3.680  12.008  1.4091  0.1338 -0.9701
12782TIP3    H259838   1.507   3.805  12.088 -0.3444 -1.1704  0.4985
12783TIP3   OH259839   3.807   4.555   0.709 -0.0899 -0.7723 -0.3213
12783TIP3    H159840   3.735   4.618   0.704 -0.4151 -1.0627  0.5842
12783TIP3    H259841   3.777   4.489   0.771  1.2240 -0.5558  0.5765
12784TIP3   OH259842   2.680   1.026   0.276  0.8513 -0.4374  0.4208
12784TIP3    H159843   2.769   0.998   0.294  0.7077  0.0503  2.0419
12784TIP3    H259844   2.627   0.948   0.294  0.7276 -0.0075  2.1569
12785TIP3   OH259845   0.129   2.399   4.089 -0.1664  0.4879  0.8057
12785TIP3    H159846   0.082   2.339   4.146 -0.1687 -0.4870 -0.1848
12785TIP3    H259847   0.218   2.364   4.085 -0.7823 -1.1073 -1.8752
12786TIP3   OH259848   2.653   3.827  13.768  0.0755 -0.0319  0.1762
12786TIP3    H159849   2.567   3.843  13.730 -0.5827  0.8763  1.9032
12786TIP3    H259850   2.636   3.766  13.840  0.7044  0.9170  1.1560
12787TIP3   OH259851   0.957   4.695   5.193  0.1431  0.7933  0.0544
12787TIP3    H159852   0.867   4.662   5.188  0.1838  0.7986 -1.2757
12787TIP3    H259853   1.001   4.655   5.117  1.2901  0.7207  0.7375
12788TIP3   OH259854   3.116   5.507  15.143  0.1716 -0.3153  0.1300
12788TIP3    H159855   3.149   5.421  15.167  1.2701 -0.7659 -2.6087
12788TIP3    H259856   3.175   5.569  15.185  0.8205 -0.9666  0.1915
12789TIP3   OH259857   0.435   5.681  13.461 -0.3596 -0.6253 -0.0290
12789TIP3    H159858   0.372   5.737  13.415 -0.3149 -1.3674 -1.0371
12789TIP3    H259859   0.422   5.594  13.423  2.0383 -0.5978 -1.1468
12790TIP3   OH259860   1.790   2.524  13.953  0.2834 -0.3849  0.0032
12790TIP3    H159861   1.784   2.599  14.013 -2.7051 -0.0961 -0.4723
12790TIP3    H259862   1.839   2.458  14.001  1.8867  1.3957  0.9499
12791TIP3   OH259863   3.887   3.215   2.188  0.1692 -0.1444  0.0693
12791TIP3    H159864   3.807   3.188   2.144  0.9394  0.6542 -1.9874
12791TIP3    H259865   3.954   3.211   2.119  1.6561  0.2967  1.4277
12792TIP3   OH259866   6.473   4.711  12.486 -0.5591 -0.3435  0.8072
12792TIP3    H159867   6.430   4.723  12.401 -1.3105 -1.7638  0.9567
12792TIP3    H259868   6.462   4.618  12.505  2.8537 -0.9047  0.7336
12793TIP3   OH259869   5.421   4.342  14.101  0.2312 -0.5905  0.7095
12793TIP3    H159870   5.471   4.270  14.063 -1.2108 -0.9213 -0.7031
12793TIP3    H259871   5.477   4.419  14.092  1.5581 -1.4012  1.7113
12794TIP3   OH259872   2.575   3.856   5.015 -0.3845 -0.7472 -0.8273
12794TIP3    H159873   2.599   3.940   4.978  1.4888 -1.0112 -0.2743
12794TIP3    H259874   2.560   3.800   4.938  0.3040 -0.4358 -1.1986
12795TIP3   OH259875   3.650   2.888  13.332 -0.0488 -0.2922 -0.0701
12795TIP3    H159876   3.669   2.982  13.329 -1.4215  0.0441  0.7171
12795TIP3    H259877   3.641   2.862  13.240 -1.9117  0.8841 -0.2766
12796TIP3   OH259878   4.159   2.977   3.963 -0.0879 -0.2240  0.0727
12796TIP3    H159879   4.233   2.957   4.021  0.4672  2.3201  0.3869
12796TIP3    H259880   4.083   2.975   4.020  0.0611 -0.5257  0.2640
12797TIP3   OH259881   2.019   5.370   0.667  0.3687  0.1815 -0.1468
12797TIP3    H159882   2.052   5.318   0.594  0.9483  0.3174  0.0123
12797TIP3    H259883   2.069   5.340   0.743 -2.0217 -1.8324  0.7624
12798TIP3   OH259884   0.903   6.324   5.645 -0.1118 -0.6016 -0.1759
12798TIP3    H159885   0.876   6.317   5.737 -0.1673 -1.8886 -0.2695
12798TIP3    H259886   0.870   6.244   5.604  2.7084 -1.6925 -0.5883
12799TIP3   OH259887   1.620   1.198  10.853  0.1393  0.0385  0.0945
12799TIP3    H159888   1.579   1.159  10.775  0.0325  1.7339 -0.7440
12799TIP3    H259889   1.703   1.233  10.821  0.6936 -0.3677  1.0554
12800TIP3   OH259890   0.745   2.901  14.613 -0.2971  0.1060 -0.0494
12800TIP3    H159891   0.747   2.826  14.672 -0.9687  0.1302  0.0142
12800TIP3    H259892   0.666   2.888  14.560 -0.6262  0.9554  0.2185
12801TIP3   OH259893   5.380   4.279   6.111  0.0858 -0.1223  0.3520
12801TIP3    H159894   5.359   4.290   6.204 -0.9772 -2.3927  0.4426
12801TIP3    H259895   5.424   4.361   6.087  0.4333  0.5178  2.8427
12802TIP3   OH259896   0.703   0.927  13.547  0.2885  0.6377 -0.6507
12802TIP3    H159897   0.722   0.990  13.478 -1.1413  1.0753 -0.6753
12802TIP3    H259898   0.632   0.967  13.597  0.1189 -0.4516  0.0138
12803TIP3   OH259899   3.819   4.365  16.098  0.1383  0.3866 -0.1183
12803TIP3    H159900   3.880   4.324  16.037  0.6416 -0.8193  1.1352
12803TIP3    H259901   3.807   4.454  16.065 -1.0013 -0.6934 -2.9792
12804TIP3   OH259902   3.273   2.279   0.480 -0.2769  0.2591 -0.1923
12804TIP3    H159903   3.271   2.334   0.559  2.7652 -0.6169  0.6223
12804TIP3    H259904   3.309   2.337   0.412  2.6914 -0.5012  0.6053
12805TIP3   OH259905   5.615   3.622  16.054  0.3020  0.2675  0.2079
12805TIP3    H159906   5.695   3.575  16.074  1.7855  2.5222 -0.0521
12805TIP3    H259907   5.631   3.662  15.968 -1.7777 -0.5412 -0.6404
12806TIP3   OH259908   3.109   1.758  14.061  0.2604  0.0938 -0.1531
12806TIP3    H159909   3.078   1.846  14.085 -1.8560 -1.0102  1.4501
12806TIP3    H259910   3.095   1.753  13.966 -0.4006  1.1811 -0.1389
12807TIP3   OH259911   0.493   4.157   5.007 -0.6645 -0.5523  0.1069
12807TIP3    H159912   0.451   4.088   4.954  0.3541 -1.4027  0.3576
12807TIP3    H259913   0.576   4.173   4.962 -0.6782  0.1820  0.3340
12808TIP3   OH259914   0.727   5.954  14.041 -0.1130  0.4249 -0.2891
12808TIP3    H159915   0.642   5.969  13.998 -0.2966  0.1915 -0.0108
12808TIP3    H259916   0.782   5.916  13.972 -0.2937  0.3969 -0.4195
12809TIP3   OH259917   0.024   3.172  12.930  0.1844  0.2364  0.4268
12809TIP3    H159918  -0.036   3.245  12.918  0.5842  0.3837 -0.7912
12809TIP3    H259919   0.094   3.207  12.985  0.9506  1.1294 -1.0776
12810TIP3   OH259920   0.704   5.164  11.137 -0.2063 -0.3158 -0.0342
12810TIP3    H159921   0.776   5.114  11.174 -0.4560 -2.6634 -2.4461
12810TIP3    H259922   0.725   5.255  11.159  2.4929 -1.0647  0.9173
12811TIP3   OH259923   5.364   4.123  16.529 -0.0405 -0.1059  0.3515
12811TIP3    H159924   5.287   4.067  16.525 -0.6198  0.6931  0.0535
12811TIP3    H259925   5.436   4.068  16.497 -0.3727 -1.0369  1.1812
12812TIP3   OH259926   6.465   4.663  11.910 -0.2834 -0.2025 -0.2001
12812TIP3    H159927   6.507   4.648  11.995  0.1253  0.7745 -0.2041
12812TIP3    H259928   6.518   4.733  11.870 -1.1315  0.1262 -0.7809
12813TIP3   OH259929   1.433   2.300   3.046 -0.5147  0.3977  0.2203
12813TIP3    H159930   1.495   2.345   3.104  0.0949 -0.2062  0.0490
12813TIP3    H259931   1.357   2.358   3.043  1.2049  2.7817 -2.0803
12814TIP3   OH259932   6.617   1.939  15.365  0.5003 -0.2841 -0.5771
12814TIP3    H159933   6.576   1.910  15.446  0.8266 -0.1869 -0.3774
12814TIP3    H259934   6.624   1.860  15.312 -0.2602 -0.2454 -0.7571
12815TIP3   OH259935   3.947   5.191   5.224 -0.2611 -0.3102 -0.0709
12815TIP3    H159936   3.972   5.133   5.295 -1.4218 -0.9554 -0.1589
12815TIP3    H259937   4.007   5.169   5.153 -1.5511 -2.4794 -0.6023
12816TIP3   OH259938   3.013   6.579   0.878  0.4187 -0.7849  0.4682
12816TIP3    H159939   2.923   6.584   0.912  0.2622 -0.2978 -0.0075
12816TIP3    H259940   3.054   6.660   0.908  0.1745 -0.1776 -0.7790
12817TIP3   OH259941   5.808   0.399   3.347 -0.2545 -0.0856  0.0657
12817TIP3    H159942   5.885   0.434   3.303  0.2884 -1.4719 -0.1378
12817TIP3    H259943   5.752   0.367   3.276 -0.0099 -1.0748  0.3129
12818TIP3   OH259944   1.359   3.658   6.225  0.7075  0.2033  0.3499
12818TIP3    H159945   1.335   3.745   6.257  1.1161  0.2741  0.4801
12818TIP3    H259946   1.388   3.674   6.134  0.4560  0.1517  0.2618
12819TIP3   OH259947   4.673   2.977   2.031  0.0482 -0.1178  0.3545
12819TIP3    H159948   4.681   3.060   1.983 -0.8007 -0.2124  0.0354
12819TIP3    H259949   4.737   2.919   1.990  0.3122  0.2388  0.2632
12820TIP3   OH259950   5.394   2.455   4.363 -0.0673 -0.4280  0.3629
12820TIP3    H159951   5.405   2.431   4.455 -0.3485 -1.2042  0.2013
12820TIP3    H259952   5.479   2.437   4.323 -0.1694 -0.8357  0.3188
12821TIP3   OH259953   6.281   4.848   1.588 -0.4878 -0.1195 -0.0244
12821TIP3    H159954   6.227   4.926   1.604  1.5711  1.2507  0.6303
12821TIP3    H259955   6.314   4.824   1.674 -1.3936 -2.0405 -0.1504
12822TIP3   OH259956   2.711   6.093   1.864 -0.5106 -0.2829 -0.4473
12822TIP3    H159957   2.685   6.163   1.804  1.2201  0.8529  0.0565
12822TIP3    H259958   2.792   6.058   1.826  0.5472  0.3723  1.0870
12823TIP3   OH259959   3.609   5.140  16.996 -0.4160 -0.1067  0.2870
12823TIP3    H159960   3.543   5.206  17.018 -0.0820  0.1331  0.5768
12823TIP3    H259961   3.559   5.067  16.960 -0.7749  0.3947 -0.2530
12824TIP3   OH259962   1.641   3.475  17.197  0.1422 -0.0753 -0.5626
12824TIP3    H159963   1.724   3.522  17.206  0.2074 -0.1368 -0.8401
12824TIP3    H259964   1.665   3.392  17.155  0.1278 -0.6465  0.5182
12825TIP3   OH259965   3.331   0.877   2.949  0.1200  0.1648 -0.1647
12825TIP3    H159966   3.341   0.958   2.999  2.0349 -0.8879  1.2727
12825TIP3    H259967   3.287   0.904   2.868 -2.2902  2.0887  1.6263
12826TIP3   OH259968   4.483   0.235  14.009  0.3604 -0.3409  0.1169
12826TIP3    H159969   4.431   0.284  13.944 -1.4282 -1.8496  0.3081
12826TIP3    H259970   4.543   0.300  14.046  0.1227  0.9969 -1.6874
12827TIP3   OH259971   2.467   2.727  17.057 -0.0896  1.2148 -0.1522
12827TIP3    H159972   2.459   2.766  17.144  0.7740  1.1813 -0.0511
12827TIP3    H259973   2.560   2.705  17.049 -0.6714 -1.9591  0.3096
12828TIP3   OH259974   4.402   1.292   2.194  0.2525  0.1204  0.2125
12828TIP3    H159975   4.409   1.211   2.244  1.1016  0.4430  0.6353
12828TIP3    H259976   4.420   1.266   2.103 -0.2721 -0.2912  0.2230
12829TIP3   OH259977   4.550   0.899  14.131  0.4029  0.3075 -0.0797
12829TIP3    H159978   4.593   0.979  14.102  0.4816  0.7308  1.1813
12829TIP3    H259979   4.456   0.920  14.129  0.3640  0.1000 -0.6982
12830TIP3   OH259980   6.253   4.899  11.876  0.1136 -0.0746 -0.1691
12830TIP3    H159981   6.230   4.808  11.857 -0.4408  0.0911 -0.2944
12830TIP3    H259982   6.170   4.945  11.878  0.4961  0.7197 -1.6091
12831TIP3   OH259983   2.851   2.373  11.598  0.2498 -0.5551  0.2303
12831TIP3    H159984   2.785   2.420  11.546 -0.1508 -0.4622  0.8104
12831TIP3    H259985   2.935   2.399  11.560 -0.0803 -2.4069 -2.0218
12832TIP3   OH259986   2.124   2.833   1.989 -0.4995 -0.1526  0.4702
12832TIP3    H159987   2.213   2.850   1.960 -1.0163  1.0289 -0.5027
12832TIP3    H259988   2.124   2.740   2.012  1.2017  0.0365  1.3994
12833TIP3   OH259989   6.628   1.966  12.052 -0.4782  0.1027 -0.4031
12833TIP3    H159990   6.659   1.912  11.979  0.8807  1.1429 -0.6267
12833TIP3    H259991   6.676   2.048  12.043 -0.6098  0.4084  1.4045
12834TIP3   OH259992   0.502   4.854   6.310  0.3040  0.2811 -0.6587
12834TIP3    H159993   0.407   4.846   6.318  0.4316 -0.1444  0.7789
12834TIP3    H259994   0.529   4.902   6.389  1.2693  0.5618 -1.1379
12835TIP3   OH259995   2.349   1.662   6.187 -0.7442  0.3920 -0.3934
12835TIP3    H159996   2.441   1.687   6.179 -0.7102  0.7385  0.8918
12835TIP3    H259997   2.349   1.568   6.169  0.0679  0.1392  0.7846
12836TIP3   OH259998   5.216   3.914  16.656  0.0358  0.1359 -0.0149
12836TIP3    H159999   5.220   3.998  16.702  0.6150  0.2943 -0.3321
12836TIP3    H260000   5.253   3.851  16.717 -1.0543 -0.0229  0.4930
12837TIP3   OH260001   3.350   4.881  11.068 -0.1230  0.0874 -0.4332
12837TIP3    H160002   3.280   4.863  11.130  3.8998 -1.8505  4.2206
12837TIP3    H260003   3.378   4.794  11.038  0.2232  0.8205 -2.4128
12838TIP3   OH260004   4.033   1.506   5.365 -0.6404  0.2278 -0.1573
12838TIP3    H160005   4.032   1.582   5.423  3.3038  1.6002 -1.5732
12838TIP3    H260006   4.101   1.449   5.401  0.1987 -0.0175 -1.9785
12839TIP3   OH260007   1.074   1.393  17.253  0.1497 -0.2827 -0.5933
12839TIP3    H160008   1.033   1.310  17.231  1.0815 -1.2386  1.0743
12839TIP3    H260009   1.161   1.369  17.286  0.0994  1.2537  0.8112
12840TIP3   OH260010   5.314   1.321  17.288 -0.3587  0.8734  0.0322
12840TIP3    H160011   5.341   1.380  17.218  1.9847 -0.3826 -0.1879
12840TIP3    H260012   5.275   1.246  17.244 -0.1846  0.7203  0.1356
12841TIP3   OH260013   0.624   2.332   4.415 -0.0991  0.0935 -0.2134
12841TIP3    H160014   0.554   2.283   4.372 -0.9623  1.1256 -0.0373
12841TIP3    H260015   0.584   2.365   4.496  0.5375  0.8411 -0.1917
12842TIP3   OH260016   6.749   1.185   3.084 -0.2327 -0.1515 -0.0486
12842TIP3    H160017   6.803   1.260   3.059  1.1565 -1.3575 -0.8078
12842TIP3    H260018   6.664   1.223   3.106  0.8589  1.7863  1.0612
12843TIP3   OH260019   4.192   5.235   1.167 -0.1299  0.8906  0.1913
12843TIP3    H160020   4.221   5.144   1.157  0.6897  0.9459  1.7869
12843TIP3    H260021   4.098   5.232   1.150  0.2898  0.2308 -2.4191
12844TIP3   OH260022   2.329   6.534   0.340 -0.6483  0.5189 -0.3251
12844TIP3    H160023   2.236   6.524   0.323 -0.7972  0.7096  0.3303
12844TIP3    H260024   2.345   6.628   0.332 -0.2211  0.3552 -1.7818
12845TIP3   OH260025   2.448   6.304  13.806  0.4119  0.6331  0.0765
12845TIP3    H160026   2.524   6.354  13.834  1.9220 -2.0592  1.0811
12845TIP3    H260027   2.388   6.308  13.880  0.4657  0.9838  0.1057
12846TIP3   OH260028   2.678   5.919   4.550  0.3751 -0.2141  0.5720
12846TIP3    H160029   2.672   5.832   4.511 -0.9546  0.6492 -1.2674
12846TIP3    H260030   2.590   5.937   4.584 -0.0768  1.3334 -1.2568
12847TIP3   OH260031   0.248   6.310  13.442  0.4923 -0.5289 -0.5014
12847TIP3    H160032   0.304   6.241  13.479  1.0494  0.3320  0.2992
12847TIP3    H260033   0.208   6.351  13.519 -0.2234 -0.2695 -1.0024
12848TIP3   OH260034   2.068   3.268  15.250 -0.6471  0.3897  0.2839
12848TIP3    H160035   2.151   3.222  15.266 -0.3795  0.0376 -1.7985
12848TIP3    H260036   2.093   3.347  15.202 -1.6146 -1.0467 -2.8625
12849TIP3   OH260037   5.255   4.065  14.882  1.0577 -0.2871  0.6272
12849TIP3    H160038   5.262   3.969  14.877  0.8289 -0.2550 -0.9211
12849TIP3    H260039   5.294   4.095  14.800 -0.6812  0.8322  0.1701
12850TIP3   OH260040   4.592   5.431  15.884  0.1650 -0.1761  0.2961
12850TIP3    H160041   4.607   5.463  15.974  1.3289 -1.0268  0.4244
12850TIP3    H260042   4.555   5.344  15.896  0.1240 -0.2059 -0.0509
12851TIP3   OH260043   0.796   5.651   5.541 -0.0048  0.7025  0.3463
12851TIP3    H160044   0.879   5.672   5.585  0.6613 -1.4916  0.3108
12851TIP3    H260045   0.773   5.564   5.574  0.3382 -0.9562 -3.2257
12852TIP3   OH260046   4.260   1.166  16.355 -0.0753  0.3040  0.5310
12852TIP3    H160047   4.192   1.226  16.388 -1.3511 -0.1315 -1.1677
12852TIP3    H260048   4.284   1.113  16.432 -0.9916  1.0838  1.3876
12853TIP3   OH260049   5.071   5.186   0.130 -0.1035 -0.1136 -0.1687
12853TIP3    H160050   5.119   5.234   0.063 -0.9367 -1.6851 -1.9827
12853TIP3    H260051   4.993   5.238   0.145 -0.0171  0.1433 -0.5830
12854TIP3   OH260052   4.231   4.575  11.407  0.3114 -0.3300 -0.0545
12854TIP3    H160053   4.224   4.520  11.329  0.2070 -0.8283  0.3042
12854TIP3    H260054   4.262   4.516  11.475  4.0922  0.8060 -0.5466
12855TIP3   OH260055   2.450   3.548   3.394  0.4490  0.7294  0.2297
12855TIP3    H160056   2.524   3.488   3.403 -0.7017 -0.7293  0.3422
12855TIP3    H260057   2.424   3.540   3.302 -0.7810 -0.2820  0.6422
12856TIP3   OH260058   2.632   0.224   2.129 -0.0300 -0.9727  0.1858
12856TIP3    H160059   2.538   0.208   2.142 -0.5610  1.1739 -0.6190
12856TIP3    H260060   2.668   0.137   2.111 -1.8262 -1.8689  0.5862
12857TIP3   OH260061   1.163   5.876  15.709 -0.2749 -0.8175 -0.3617
12857TIP3    H160062   1.127   5.890  15.796 -2.1413 -1.1170 -1.0393
12857TIP3    H260063   1.176   5.781  15.703  1.9417 -0.6102  0.3261
12858TIP3   OH260064   5.819   6.612   0.370  0.1283 -0.0121  0.2242
12858TIP3    H160065   5.816   6.620   0.466 -0.4575 -0.2430  0.2259
12858TIP3    H260066   5.773   6.531   0.351 -0.6543  0.5452 -0.3171
12859TIP3   OH260067   5.251   1.932  11.804 -0.3185  0.0694  0.3156
12859TIP3    H160068   5.235   2.027  11.804  0.2524  0.1989 -1.1919
12859TIP3    H260069   5.324   1.920  11.864  0.8030  0.8506 -0.8412
12860TIP3   OH260070   4.844   3.366   0.826  0.1890 -0.3090  0.1326
12860TIP3    H160071   4.817   3.275   0.815  1.2252 -0.7368  0.8999
12860TIP3    H260072   4.772   3.406   0.874 -0.5386 -0.5714 -0.7256
12861TIP3   OH260073   3.074   6.795   1.919  0.4079  0.7196  0.1422
12861TIP3    H160074   3.083   6.813   2.013 -1.5121  0.4069  0.4244
12861TIP3    H260075   3.039   6.706   1.915  0.6979  0.6429 -0.8848
12862TIP3   OH260076   6.524   6.819  11.248 -0.0944  0.1160 -0.2438
12862TIP3    H160077   6.577   6.813  11.169 -0.5262 -1.1823 -0.4558
12862TIP3    H260078   6.455   6.882  11.227  1.6453  2.2871  0.2318
12863TIP3   OH260079   4.962   5.964   0.554  0.0619  0.1706  0.4597
12863TIP3    H160080   4.904   5.957   0.629 -1.0674  3.0933  0.0101
12863TIP3    H260081   4.909   5.936   0.479  0.3570 -0.3286  0.4323
12864TIP3   OH260082   5.867   5.510   4.868  0.2214  0.9433 -0.2719
12864TIP3    H160083   5.857   5.425   4.826  0.0686  1.3387 -1.0528
12864TIP3    H260084   5.786   5.523   4.917  1.5422 -0.8347  2.6602
12865TIP3   OH260085   1.645   6.018  15.644 -0.1682  0.0930  0.2613
12865TIP3    H160086   1.567   6.018  15.699  0.6461  1.2655  1.4767
12865TIP3    H260087   1.611   6.037  15.556 -1.2817  0.3852  0.7270
12866TIP3   OH260088   2.357   5.608   0.104 -0.4750 -0.2691  0.6505
12866TIP3    H160089   2.294   5.539   0.085 -0.5910 -0.4474  1.6001
12866TIP3    H260090   2.319   5.654   0.180  0.3951 -0.1984  1.0567
12867TIP3   OH260091   0.604   1.849   1.724 -0.4639  0.7154  0.0184
12867TIP3    H160092   0.654   1.776   1.759  2.1745  1.2290 -2.3573
12867TIP3    H260093   0.549   1.811   1.656 -0.1056  0.7211 -0.2790
12868TIP3   OH260094   1.425   5.680  13.431  0.3287  0.4171  0.4793
12868TIP3    H160095   1.381   5.622  13.369  0.7028  1.9948 -1.3440
12868TIP3    H260096   1.471   5.620  13.491 -1.2019 -1.1714  0.1445
12869TIP3   OH260097   0.131   4.079   4.579  0.8999 -0.3535  0.4556
12869TIP3    H160098   0.141   3.984   4.569  1.7013 -0.2307  0.0073
12869TIP3    H260099   0.217   4.115   4.557  0.4014  0.5358 -0.1193
12870TIP3   OH260100   6.016   6.785  12.146  0.1689 -0.0327 -0.2871
12870TIP3    H160101   5.952   6.798  12.216  2.2096 -1.4931  2.0174
12870TIP3    H260102   6.028   6.690  12.141  1.0621  0.1213 -1.6812
12871TIP3   OH260103   2.166   4.005  11.726  0.4242 -0.0610 -0.2328
12871TIP3    H160104   2.163   3.947  11.650  0.1706 -0.9267  0.4134
12871TIP3    H260105   2.097   3.972  11.783  0.3661  0.8141  0.2046
12872TIP3   OH260106   4.059   5.059   4.238  0.1478 -0.3169  0.2498
12872TIP3    H160107   4.089   4.973   4.267  1.0473  0.4457  1.7159
12872TIP3    H260108   3.971   5.043   4.203 -0.6182 -1.5495  2.4867
12873TIP3   OH260109   3.654   5.740   2.826  0.0909  0.0917 -0.6656
12873TIP3    H160110   3.616   5.684   2.759  0.0591  0.2556 -0.7864
12873TIP3    H260111   3.634   5.829   2.797 -0.3137  0.1568 -0.2154
12874TIP3   OH260112   6.576   5.586  13.354  0.1042 -0.1378  0.6395
12874TIP3    H160113   6.663   5.559  13.327  0.4047  1.3047  0.0576
12874TIP3    H260114   6.536   5.507  13.391  0.2571 -1.8437 -2.4986
12875TIP3   OH260115   2.879   4.299  12.784  0.2346  0.0475  0.4847
12875TIP3    H160116   2.939   4.292  12.709  0.4345  0.4715  0.5990
12875TIP3    H260117   2.831   4.216  12.784  0.9472 -0.3821  0.4953
12876TIP3   OH260118   6.063   3.906  16.393  0.1224  0.6078 -0.0458
12876TIP3    H160119   6.112   3.946  16.320  0.5214  1.0040  0.4315
12876TIP3    H260120   6.056   3.814  16.368  0.4506  0.6932 -0.4838
12877TIP3   OH260121   0.234   2.914   5.702 -0.3728  0.1369 -0.4092
12877TIP3    H160122   0.183   2.974   5.647  1.1387  0.4215 -1.5453
12877TIP3    H260123   0.176   2.895   5.776 -2.3871 -0.0875 -1.9638
12878TIP3   OH260124   4.258   2.479  14.010 -0.2953  0.0066  0.1175
12878TIP3    H160125   4.187   2.446  13.955 -0.0503  0.1969 -0.3096
12878TIP3    H260126   4.247   2.574  14.008  1.6354  0.2595 -2.2331
12879TIP3   OH260127   6.298   6.395  14.192 -0.0883 -0.1564 -0.3927
12879TIP3    H160128   6.266   6.395  14.282 -2.1148  1.6199 -1.0434
12879TIP3    H260129   6.263   6.314  14.154  0.2515 -0.5956  0.2140
12880TIP3   OH260130   6.481   2.369   0.145 -0.3497 -0.7795  0.1048
12880TIP3    H160131   6.447   2.458   0.156 -0.3231 -0.7159 -0.2852
12880TIP3    H260132   6.530   2.373   0.063  0.8587 -0.7992  0.8064
12881TIP3   OH260133   2.737   6.304  15.397  0.1254 -0.0526 -0.0756
12881TIP3    H160134   2.701   6.392  15.381  0.6826  0.6048  1.9317
12881TIP3    H260135   2.664   6.256  15.436 -0.6661 -1.0462 -2.6247
12882TIP3   OH260136   3.718   0.704  16.339 -0.6835 -0.7209 -0.0884
12882TIP3    H160137   3.795   0.647  16.334 -0.5590 -0.4652 -2.0423
12882TIP3    H260138   3.723   0.758  16.259 -1.6905  0.8711  0.8579
12883TIP3   OH260139   6.109   0.451  10.986  0.2559 -0.6584  0.3431
12883TIP3    H160140   6.175   0.459  10.918  1.6846 -0.0730  1.7336
12883TIP3    H260141   6.133   0.518  11.051 -2.1089  0.0528  0.5963
12884TIP3   OH260142   6.414   5.348   0.677  0.1602  0.4590  0.2759
12884TIP3    H160143   6.420   5.382   0.766 -0.6382 -1.0155  0.9209
12884TIP3    H260144   6.329   5.304   0.674  0.7706 -0.6932 -0.7823
12885TIP3   OH260145   4.205   3.128   0.814  0.9471  0.0118  0.0191
12885TIP3    H160146   4.275   3.128   0.748  1.7509 -0.4015  0.8386
12885TIP3    H260147   4.228   3.056   0.872 -1.0245 -1.1407 -0.5529
12886TIP3   OH260148   2.546   4.673   0.696 -0.4102 -0.6608 -0.3559
12886TIP3    H160149   2.521   4.683   0.788 -0.1684 -1.0114 -0.2496
12886TIP3    H260150   2.535   4.580   0.678  1.7646 -1.0454 -0.0103
12887TIP3   OH260151   3.256   6.662  14.135 -0.4900  0.3639 -0.0372
12887TIP3    H160152   3.176   6.696  14.176 -0.1069  0.5331  0.5830
12887TIP3    H260153   3.253   6.696  14.046 -1.0307  0.5096  0.0316
12888TIP3   OH260154   2.370   0.054   2.395 -0.0159 -0.1043 -0.0690
12888TIP3    H160155   2.279   0.052   2.366  0.2845 -0.7753 -1.0094
12888TIP3    H260156   2.411  -0.020   2.351  0.7584 -0.4129  1.1266
12889TIP3   OH260157   6.293   5.505  12.017  0.0880 -0.2570 -0.5495
12889TIP3    H160158   6.239   5.430  12.041  2.0743 -1.2864  1.0787
12889TIP3    H260159   6.290   5.508  11.922 -0.6442 -1.9260 -0.6148
12890TIP3   OH260160   0.822   1.055  16.134 -0.5579  0.3665 -0.0666
12890TIP3    H160161   0.861   1.024  16.052 -0.4250  0.9824 -0.2432
12890TIP3    H260162   0.835   0.983  16.195 -2.8074 -1.0912 -1.1981
12891TIP3   OH260163   4.896   1.643   0.294  0.1383  0.2398  0.1984
12891TIP3    H160164   4.811   1.678   0.318  0.1119  1.0435 -0.9721
12891TIP3    H260165   4.957   1.715   0.310  1.3436 -1.4881  4.8676
12892TIP3   OH260166   5.535   5.604   0.853 -0.3727 -0.2604 -0.3756
12892TIP3    H160167   5.465   5.602   0.919 -0.6053  0.4662 -0.5836
12892TIP3    H260168   5.500   5.555   0.779 -0.6288  0.0137 -0.4389
12893TIP3   OH260169   3.072   1.454   2.979  0.0563 -0.4525 -0.1911
12893TIP3    H160170   3.001   1.495   3.028  0.7060 -0.1270  0.4897
12893TIP3    H260171   3.114   1.394   3.041  1.8984  1.1453  0.2002
12894TIP3   OH260172   0.816   1.350  16.046 -0.1969  0.4859  0.2688
12894TIP3    H160173   0.848   1.403  16.119  0.8886  0.0704  0.1148
12894TIP3    H260174   0.829   1.260  16.075 -1.3550  0.2919  0.2365
12895TIP3   OH260175   4.319   2.692  16.351 -0.0264 -0.6073  0.2891
12895TIP3    H160176   4.350   2.623  16.410  0.0282 -0.7496  0.0943
12895TIP3    H260177   4.267   2.646  16.285 -1.9023 -0.2265  1.4138
12896TIP3   OH260178   0.095   3.803  11.285  0.5157  0.1797  0.1732
12896TIP3    H160179   0.177   3.768  11.317  0.0196 -0.1658  1.1107
12896TIP3    H260180   0.044   3.820  11.365 -0.5659 -0.2313 -0.4141
12897TIP3   OH260181   1.631   0.562  15.330 -0.4507 -0.3665  0.3771
12897TIP3    H160182   1.664   0.518  15.409  1.3103 -0.4218 -0.3395
12897TIP3    H260183   1.663   0.652  15.338  0.7807 -0.6737 -0.8162
12898TIP3   OH260184   4.928   3.622   1.104  0.3579 -0.1086 -0.2544
12898TIP3    H160185   4.850   3.582   1.140  0.3416  0.4019  0.2918
12898TIP3    H260186   4.980   3.549   1.070 -0.3984 -0.4403 -0.7164
12899TIP3   OH260187   0.950   1.479  15.655  0.8621  0.4589  0.5665
12899TIP3    H160188   1.017   1.515  15.597 -0.6563  1.7738 -0.4586
12899TIP3    H260189   0.970   1.517  15.740  2.5394 -0.7173  0.7519
12900TIP3   OH260190   5.786   2.800  12.104 -0.1140 -0.8071 -1.1243
12900TIP3    H160191   5.851   2.750  12.055  0.4353 -1.5365  0.2789
12900TIP3    H260192   5.701   2.766  12.072  0.1147  0.4687 -3.2841
12901TIP3   OH260193   6.689   4.125  12.859  0.1166 -0.0839  0.5368
12901TIP3    H160194   6.639   4.062  12.807 -0.1801 -0.6217  1.4579
12901TIP3    H260195   6.631   4.146  12.933  0.0738  1.5126  0.0889
12902TIP3   OH260196   5.025   5.643   3.585  0.6404  0.3272  0.0491
12902TIP3    H160197   5.119   5.651   3.571  0.7170 -0.9100 -0.2798
12902TIP3    H260198   4.999   5.569   3.529 -0.6109  0.9811 -0.2670
12903TIP3   OH260199   3.271   5.957  16.230  0.0515 -0.9002 -0.5128
12903TIP3    H160200   3.337   5.914  16.285  0.7435  1.1684  0.3938
12903TIP3    H260201   3.188   5.916  16.254  0.5737 -1.2081  0.8423
12904TIP3   OH260202   2.829   2.003  14.240  0.1044 -0.7157 -0.0320
12904TIP3    H160203   2.818   1.961  14.325 -2.9802 -3.3735 -1.5124
12904TIP3    H260204   2.919   1.980  14.214 -0.1002 -3.0162  1.0133
12905TIP3   OH260205   4.586   6.289   4.344  0.3508  0.2095  0.2871
12905TIP3    H160206   4.542   6.325   4.267  1.2992 -1.2971 -1.0516
12905TIP3    H260207   4.516   6.276   4.408 -0.7406  0.1579 -0.8653
12906TIP3   OH260208   5.958   0.058   5.341 -0.5592 -0.3614 -0.3557
12906TIP3    H160209   5.874   0.029   5.375 -0.7172 -0.7743 -1.0729
12906TIP3    H260210   6.019   0.048   5.414 -0.3663 -3.5739 -0.8407
12907TIP3   OH260211   0.535   4.002  13.860  0.0088  0.3643 -0.1650
12907TIP3    H160212   0.546   4.052  13.780 -0.5700  1.3553  0.3570
12907TIP3    H260213   0.463   3.941  13.841 -1.3083  1.7745  0.1256
12908TIP3   OH260214   2.306   4.345   0.657 -0.0888  0.4310 -0.1870
12908TIP3    H160215   2.372   4.363   0.590  1.5011  1.7415  1.5879
12908TIP3    H260216   2.358   4.325   0.735 -1.8614 -1.5624  0.5497
12909TIP3   OH260217   2.964   0.243   4.370  0.7000 -0.3208 -0.4663
12909TIP3    H160218   2.906   0.241   4.294  0.4780 -2.8644 -0.2995
12909TIP3    H260219   2.908   0.221   4.444  0.9624  1.8836  0.4824
12910TIP3   OH260220   5.345   1.629  15.383 -0.6495  0.7791  0.1004
12910TIP3    H160221   5.350   1.725  15.380  1.5270  0.6994 -0.1162
12910TIP3    H260222   5.407   1.605  15.452  1.6327 -0.6007 -2.2724
12911TIP3   OH260223   2.075   3.257   5.814  0.3484  0.4279  0.0144
12911TIP3    H160224   2.018   3.220   5.881  1.2887  0.4348  0.8506
12911TIP3    H260225   2.137   3.186   5.795 -0.6835 -0.0482 -1.8280
12912TIP3   OH260226   5.237   5.145   2.106  0.2826  0.4035  0.1967
12912TIP3    H160227   5.190   5.098   2.175  0.3769  0.3791  0.2448
12912TIP3    H260228   5.190   5.123   2.026 -0.3082  1.0706  0.3558
12913TIP3   OH260229   0.946   6.379  13.970  0.0892 -0.4226 -0.3296
12913TIP3    H160230   0.916   6.436  14.042 -0.7389 -0.3268 -0.7368
12913TIP3    H260231   0.942   6.435  13.893 -0.8267 -1.0478 -0.7535
12914TIP3   OH260232   1.180   2.536  15.491  0.2426  0.2944  0.4865
12914TIP3    H160233   1.260   2.554  15.442 -0.3333  1.2594 -0.1287
12914TIP3    H260234   1.206   2.542  15.583  0.9141  0.3719  0.2933
12915TIP3   OH260235   4.078   2.202   2.565  0.1279 -0.6078 -0.0611
12915TIP3    H160236   4.039   2.119   2.591  0.2734 -0.4267  0.7430
12915TIP3    H260237   4.162   2.205   2.611 -0.7333  0.8658  1.5126
12916TIP3   OH260238   2.755   4.880  13.375  0.8064  0.4850  0.7096
12916TIP3    H160239   2.728   4.821  13.305  2.0957 -1.7482  1.9905
12916TIP3    H260240   2.802   4.950  13.330 -2.4016  1.7109 -1.0406
12917TIP3   OH260241   6.016   3.927  12.405 -0.2264  0.5762  0.5419
12917TIP3    H160242   5.990   4.013  12.436  0.8532  0.6019  1.4668
12917TIP3    H260243   6.055   3.943  12.318 -1.9211  0.7107 -0.2222
12918TIP3   OH260244   1.196   4.604   1.618 -0.5026 -0.2594  0.0072
12918TIP3    H160245   1.280   4.632   1.655  0.7380 -1.9864 -1.3777
12918TIP3    H260246   1.131   4.638   1.680  1.2719 -0.1145  1.9119
12919TIP3   OH260247   1.976   2.711   1.071 -0.1363 -0.2994  1.2533
12919TIP3    H160248   2.063   2.745   1.048  0.2653 -0.6692  2.1728
12919TIP3    H260249   1.929   2.708   0.988  1.6753 -2.8540  0.1546
12920TIP3   OH260250   4.824   0.992  16.390  0.1025 -0.9985 -0.0993
12920TIP3    H160251   4.773   1.073  16.395  0.5401 -0.3759 -3.3432
12920TIP3    H260252   4.760   0.925  16.365  0.2121 -1.0311 -0.2947
12921TIP3   OH260253   4.683   5.740  15.885  0.0815  0.4382  0.3391
12921TIP3    H160254   4.753   5.787  15.839 -0.0529 -2.6126 -3.4645
12921TIP3    H260255   4.729   5.692  15.954  0.7994  2.6799  1.5233
12922TIP3   OH260256   1.472   0.003  14.137 -0.0124 -0.3537 -0.6744
12922TIP3    H160257   1.496  -0.090  14.144  2.6322  0.1661 -1.5196
12922TIP3    H260258   1.447   0.014  14.045 -1.7941 -0.4880 -0.2336
12923TIP3   OH260259   6.650   1.888   1.319  0.0455  0.5959  0.6096
12923TIP3    H160260   6.680   1.977   1.299 -0.9868  0.6524 -0.8280
12923TIP3    H260261   6.728   1.833   1.308  0.2835  1.1018 -0.2961
12924TIP3   OH260262   4.297   2.142  12.224 -0.1989 -0.0355  0.7731
12924TIP3    H160263   4.286   2.202  12.298  0.7956 -1.0524  1.7701
12924TIP3    H260264   4.209   2.131  12.189 -0.2533  3.4269 -0.6403
12925TIP3   OH260265   3.728   4.975  15.965  0.0566 -0.7266 -0.3311
12925TIP3    H160266   3.649   5.025  15.946  0.8518  0.8312  0.3225
12925TIP3    H260267   3.714   4.890  15.922 -1.8907 -0.4318 -0.3337
12926TIP3   OH260268   6.523   1.360   1.319 -0.3416 -0.3382  0.6792
12926TIP3    H160269   6.520   1.438   1.374  1.2428 -0.0637  0.4186
12926TIP3    H260270   6.489   1.390   1.235  0.6679  0.2299  0.4442
12927TIP3   OH260271   6.639   6.782   3.434 -0.0888  0.7470  0.5270
12927TIP3    H160272   6.586   6.822   3.365 -0.4116  1.4376  1.1639
12927TIP3    H260273   6.698   6.852   3.462  1.5407 -0.1457 -0.5073
12928TIP3   OH260274   1.326   0.784  13.197 -0.1756  0.4798 -0.6593
12928TIP3    H160275   1.375   0.753  13.273 -0.0268  1.2963 -0.4135
12928TIP3    H260276   1.264   0.714  13.178 -0.6093  0.5073  0.5785
12929TIP3   OH260277   6.504   1.633  14.017  0.1268  0.5470  0.2799
12929TIP3    H160278   6.467   1.589  14.094 -0.8827  1.7067  0.5107
12929TIP3    H260279   6.596   1.607  14.015  0.0031 -0.0428  1.4882
12930TIP3   OH260280   3.844   2.275  14.803 -0.2070  0.0166  0.0996
12930TIP3    H160281   3.897   2.321  14.869 -0.8965  1.4700 -0.3057
12930TIP3    H260282   3.870   2.184  14.810  0.4736  0.2983  1.6880
12931TIP3   OH260283   0.246   4.188  16.326  0.7943  0.0729 -0.2220
12931TIP3    H160284   0.175   4.147  16.275  1.7065  0.6611 -2.0301
12931TIP3    H260285   0.239   4.148  16.413 -0.5837 -1.2514 -0.9009
12932TIP3   OH260286   1.569   3.569  14.853 -0.1553  0.1272 -0.6228
12932TIP3    H160287   1.562   3.661  14.877 -0.0854  0.6015 -2.3209
12932TIP3    H260288   1.483   3.531  14.874  0.2494  0.2150  1.3806
12933TIP3   OH260289   4.215   4.357  15.471  0.5992 -0.0776  0.7073
12933TIP3    H160290   4.148   4.374  15.538 -0.3079  0.7129 -0.3695
12933TIP3    H260291   4.218   4.436  15.418 -1.3561 -1.8719 -2.4252
12934TIP3   OH260292   0.865   5.153   0.084 -0.1545  0.9031  0.1715
12934TIP3    H160293   0.800   5.090   0.053 -1.3538  2.2455 -0.1139
12934TIP3    H260294   0.858   5.148   0.180 -0.0823  0.4598  0.1577
12935TIP3   OH260295   3.890   3.319  16.276 -0.0411 -0.4026  0.4177
12935TIP3    H160296   3.933   3.234  16.270  1.0412  0.2034 -0.8557
12935TIP3    H260297   3.960   3.380  16.299  0.0029  0.6901 -2.2497
12936TIP3   OH260298   1.505   3.579   0.491 -0.5881  0.3633  0.6523
12936TIP3    H160299   1.551   3.496   0.487 -1.1723  0.0164  0.9653
12936TIP3    H260300   1.549   3.635   0.427 -0.2925 -0.2354  0.3333
12937TIP3   OH260301   2.324   6.354   3.118 -0.7913  0.3146  0.4277
12937TIP3    H160302   2.260   6.363   3.047  0.6776 -0.5700 -1.0794
12937TIP3    H260303   2.312   6.265   3.150  0.5569 -0.3206 -0.7756
12938TIP3   OH260304   6.297   5.032  11.607  0.3032  0.1493 -0.3594
12938TIP3    H160305   6.254   5.092  11.668  1.9657  0.5106  0.5132
12938TIP3    H260306   6.234   4.960  11.596 -0.0538  0.0540  1.8277
12939TIP3   OH260307   4.347   4.679   5.184 -0.1617  0.0343  0.4545
12939TIP3    H160308   4.332   4.586   5.166  2.4294 -0.3169 -0.3165
12939TIP3    H260309   4.394   4.711   5.106  0.3306  1.5992  1.3509
12940TIP3   OH260310   5.780   3.267  16.678 -0.5373 -0.0517  0.2492
12940TIP3    H160311   5.753   3.276  16.769  0.8215  1.8893  0.5408
12940TIP3    H260312   5.837   3.190  16.677  1.2946  1.2200  1.5787
12941TIP3   OH260313   5.320   4.336   4.845 -0.3596  0.0143 -0.9320
12941TIP3    H160314   5.392   4.298   4.897 -1.9555 -0.1194  1.3411
12941TIP3    H260315   5.363   4.372   4.767  2.1387 -0.2617  0.2146
12942TIP3   OH260316   2.263   4.337   4.670 -0.3242  0.2674 -0.5751
12942TIP3    H160317   2.186   4.360   4.722  0.0787  1.1897 -0.3547
12942TIP3    H260318   2.228   4.298   4.590 -1.0128  0.4610 -0.3732
12943TIP3   OH260319   1.616   4.862  16.488 -0.1792  0.1387  0.0118
12943TIP3    H160320   1.711   4.866  16.493  0.1044 -0.2362 -3.1636
12943TIP3    H260321   1.595   4.769  16.503  0.0671  0.0145 -0.4095
12944TIP3   OH260322   4.201   0.536  14.907 -0.7461  0.4044  0.4706
12944TIP3    H160323   4.256   0.589  14.965  3.4962  0.2654 -2.9656
12944TIP3    H260324   4.133   0.596  14.877  1.5066  2.8525 -0.1621
12945TIP3   OH260325   3.608   2.306   3.039 -0.1089  0.3271  0.2110
12945TIP3    H160326   3.593   2.212   3.035 -1.1647  0.5303 -1.3235
12945TIP3    H260327   3.686   2.315   3.095  1.4979 -1.6114 -1.5305
12946TIP3   OH260328   6.536   0.871  12.533 -0.0606 -0.1483 -0.1259
12946TIP3    H160329   6.595   0.909  12.468 -0.4847 -0.1034 -0.4837
12946TIP3    H260330   6.550   0.776  12.526 -2.0042 -0.3563 -2.1514
12947TIP3   OH260331   2.616   3.877  14.089 -0.2610  0.1874  0.2635
12947TIP3    H160332   2.669   3.915  14.019 -0.5663  1.4260  0.6725
12947TIP3    H260333   2.675   3.873  14.164 -0.6784  1.4936  0.6971
12948TIP3   OH260334   3.142   4.341  13.933  0.2014  0.0026  0.4056
12948TIP3    H160335   3.159   4.434  13.919  0.0286  0.0953  0.7830
12948TIP3    H260336   3.229   4.302  13.942  0.3165 -0.0571 -0.8314
12949TIP3   OH260337   5.747   5.965   5.068  0.3907  0.5848 -0.2124
12949TIP3    H160338   5.806   5.922   5.006  0.6513  1.2707 -0.4625
12949TIP3    H260339   5.681   6.007   5.012 -0.2301 -0.0230  0.0565
12950TIP3   OH260340   0.015   1.705  16.735  0.4229 -0.0833 -0.1335
12950TIP3    H160341  -0.070   1.662  16.745  1.1587 -1.7154 -0.4984
12950TIP3    H260342  -0.005   1.789  16.695 -0.8413 -1.6851 -3.2449
12951TIP3   OH260343   1.479   0.646   3.906  0.7966 -0.2588 -0.0111
12951TIP3    H160344   1.394   0.621   3.942  1.3924 -1.7122  0.4528
12951TIP3    H260345   1.463   0.660   3.813  0.0001 -0.2134  0.1261
12952TIP3   OH260346   5.986   1.531  16.881 -0.0317 -0.1208 -0.1254
12952TIP3    H160347   5.968   1.515  16.789 -0.7621 -1.3676  0.2066
12952TIP3    H260348   5.923   1.476  16.928  0.3898  0.4090  1.1170
12953TIP3   OH260349   4.928   0.634   2.562 -0.1272  0.2692  0.6615
12953TIP3    H160350   4.836   0.659   2.558  0.2930  1.8326 -0.3642
12953TIP3    H260351   4.939   0.596   2.649 -1.1813  2.5255  1.8846
12954TIP3   OH260352   3.928   4.541   0.449  0.0435 -0.3112 -0.0705
12954TIP3    H160353   3.886   4.531   0.534 -1.7949 -1.0126 -0.9902
12954TIP3    H260354   3.995   4.473   0.447  0.4913  0.0791  1.0061
12955TIP3   OH260355   3.502   3.377  12.666  0.1165 -0.1348  0.0148
12955TIP3    H160356   3.563   3.344  12.731 -0.2370  1.5903  1.2916
12955TIP3    H260357   3.544   3.359  12.582  1.7401 -0.2129  0.8020
12956TIP3   OH260358   2.997   2.929  16.961  0.2287  0.1233  0.4382
12956TIP3    H160359   3.032   2.972  16.883  2.8742  1.0155  1.9977
12956TIP3    H260360   3.048   2.848  16.969 -0.1331 -0.0431  1.1804
12957TIP3   OH260361   1.366   2.683   2.600 -0.2616 -0.0777  1.1466
12957TIP3    H160362   1.404   2.738   2.669 -0.6318  1.2662  0.3057
12957TIP3    H260363   1.324   2.611   2.648 -0.6157  0.8954  2.3488
12958TIP3   OH260364   5.623   6.684  11.065  0.0861  0.3498 -0.0258
12958TIP3    H160365   5.590   6.596  11.050 -0.9931  0.4636  1.4841
12958TIP3    H260366   5.704   6.689  11.013  0.8401 -1.9553  0.8179
12959TIP3   OH260367   0.804   4.051   4.132  0.5774  0.3547 -0.1475
12959TIP3    H160368   0.894   4.050   4.101  0.4257  1.5125 -0.6796
12959TIP3    H260369   0.762   4.122   4.083 -0.6469 -0.2110  0.0299
12960TIP3   OH260370   5.092   1.443   4.875 -0.1664  0.0547  0.4643
12960TIP3    H160371   5.014   1.416   4.827 -0.6463  1.3916  0.4330
12960TIP3    H260372   5.072   1.533   4.903  2.5374  1.6793 -2.2096
12961TIP3   OH260373   1.424   5.907  12.850  0.4407 -0.0300  0.4940
12961TIP3    H160374   1.487   5.857  12.902  0.5122  0.5559  0.9911
12961TIP3    H260375   1.477   5.977  12.811 -0.3577  2.5200  3.5699
12962TIP3   OH260376   3.484   3.014   3.158  0.5673 -0.8849 -0.6379
12962TIP3    H160377   3.444   2.971   3.082 -1.5720 -0.7450  0.3293
12962TIP3    H260378   3.475   3.107   3.140  0.5602 -0.8538 -0.4749
12963TIP3   OH260379   1.637   4.462   2.879 -0.3926 -0.1293 -0.3114
12963TIP3    H160380   1.590   4.380   2.890 -0.8054  0.0758 -0.5300
12963TIP3    H260381   1.729   4.436   2.869 -0.5285 -0.5644 -0.4230
12964TIP3   OH260382   2.288   2.896  15.694 -0.1619  0.5679  0.1206
12964TIP3    H160383   2.274   2.983  15.658  0.8694  0.3002 -0.9728
12964TIP3    H260384   2.374   2.869  15.662 -1.2694 -1.6486 -1.2306
12965TIP3   OH260385   2.123   1.725   5.792  0.0683  0.7070  0.0603
12965TIP3    H160386   2.136   1.631   5.806 -0.1641  0.6801  0.1038
12965TIP3    H260387   2.148   1.766   5.875 -1.9037  0.4941  0.8034
12966TIP3   OH260388   3.509   0.277   5.069 -0.0822 -0.1163 -0.4836
12966TIP3    H160389   3.483   0.238   5.153  0.1333  0.1150 -0.3060
12966TIP3    H260390   3.427   0.286   5.020 -0.4107  0.9919  0.2279
12967TIP3   OH260391   0.768   3.753   5.881 -0.3273  0.2462 -0.1315
12967TIP3    H160392   0.759   3.700   5.802 -2.7674 -1.9793  1.4779
12967TIP3    H260393   0.713   3.829   5.864  0.3287  0.5357 -1.0837
12968TIP3   OH260394   1.653   1.924  16.816  0.3580 -0.5689 -0.3147
12968TIP3    H160395   1.738   1.968  16.814 -0.8695  2.1149  0.9723
12968TIP3    H260396   1.631   1.910  16.725  1.1407  0.9380 -0.7778
12969TIP3   OH260397   6.478   1.757  14.998  0.5545  0.8665  0.3075
12969TIP3    H160398   6.469   1.664  14.980  1.5397  0.5691  1.2491
12969TIP3    H260399   6.395   1.795  14.969 -0.4934 -0.5281  1.3395
12970TIP3   OH260400   2.555   3.433  11.920 -0.2610  0.8773  0.1110
12970TIP3    H160401   2.479   3.468  11.968 -0.8797 -1.9636  1.3699
12970TIP3    H260402   2.518   3.400  11.839 -0.2141  0.3322  0.3120
12971TIP3   OH260403   1.180   2.354  15.900  0.3158  0.2785  0.2307
12971TIP3    H160404   1.231   2.387  15.826 -0.5353  1.2874  0.0739
12971TIP3    H260405   1.110   2.418  15.912 -0.7306 -0.9060  0.6552
12972TIP3   OH260406   2.330   1.662   0.243  0.6786 -0.6764  0.1527
12972TIP3    H160407   2.285   1.586   0.207  0.8442 -0.0604 -1.4644
12972TIP3    H260408   2.303   1.665   0.335 -1.4867 -1.1099 -0.4175
12973TIP3   OH260409   3.715   0.948   6.547 -0.0200  0.2261 -0.1792
12973TIP3    H160410   3.782   0.894   6.506  1.0473  1.3429  0.0302
12973TIP3    H260411   3.641   0.889   6.561  1.4377 -1.4375  0.9196
12974TIP3   OH260412   2.879   5.096   2.478  0.3807  0.3012 -0.4439
12974TIP3    H160413   2.963   5.139   2.465  0.0337  1.1486  0.0425
12974TIP3    H260414   2.900   5.015   2.524  0.7276  1.6246  1.8496
12975TIP3   OH260415   3.254   6.204  13.592  0.1380  0.0771 -0.0366
12975TIP3    H160416   3.180   6.237  13.642 -0.6788 -0.4453 -0.8560
12975TIP3    H260417   3.281   6.278  13.537  0.3115  0.3034  0.3469
12976TIP3   OH260418   3.112   4.673   5.207  0.0305 -0.3883 -0.0326
12976TIP3    H160419   3.171   4.622   5.261  1.7882 -1.1143 -2.4618
12976TIP3    H260420   3.157   4.757   5.196 -0.4083 -0.1713 -0.1779
12977TIP3   OH260421   5.958   2.569   0.085  0.5454 -0.2395 -0.4754
12977TIP3    H160422   5.912   2.486   0.100  2.0870 -1.1500 -0.6202
12977TIP3    H260423   5.928   2.598  -0.001 -0.9805  0.0553  0.1105
12978TIP3   OH260424   2.616   4.477  15.195 -0.3353 -0.3655 -0.7112
12978TIP3    H160425   2.562   4.540  15.244 -2.6258 -2.2386 -0.6330
12978TIP3    H260426   2.586   4.486  15.105  0.4843 -0.2301 -0.9727
12979TIP3   OH260427   6.118   5.576   5.637  0.1686 -0.4442 -0.0909
12979TIP3    H160428   6.025   5.555   5.623  0.3070 -0.2556 -1.4690
12979TIP3    H260429   6.158   5.561   5.551  0.8815  2.2165 -0.2972
12980TIP3   OH260430   3.147   3.114   4.441 -0.1392 -0.3341 -0.4852
12980TIP3    H160431   3.226   3.060   4.444 -0.2649 -0.5062 -0.2503
12980TIP3    H260432   3.160   3.180   4.509 -0.7703 -1.1640  0.4661
12981TIP3   OH260433   1.099   1.397  10.444  0.3562  0.1599 -0.0670
12981TIP3    H160434   1.051   1.457  10.388  1.5668 -0.4265 -1.8507
12981TIP3    H260435   1.173   1.449  10.477 -0.1823  0.4189  0.7434
12982TIP3   OH260436   1.239   0.635  17.207 -0.1410  0.4177  0.3530
12982TIP3    H160437   1.151   0.644  17.242 -0.6070  0.2997 -0.7369
12982TIP3    H260438   1.231   0.660  17.115  1.2883  1.9686  0.6025
12983TIP3   OH260439   3.858   3.195  10.547  0.0528  0.2492 -0.2330
12983TIP3    H160440   3.797   3.187  10.621 -1.9828  0.3313 -1.8249
12983TIP3    H260441   3.833   3.276  10.504  0.7551 -0.1386 -1.4194
12984TIP3   OH260442   2.805   3.992   2.360  0.2479  0.0836  0.4251
12984TIP3    H160443   2.757   4.017   2.281  1.1776  2.6735  0.5718
12984TIP3    H260444   2.756   3.918   2.396 -2.0619  0.8793 -0.8673
12985TIP3   OH260445   6.075   4.129  11.893  0.6113  0.0884  0.2460
12985TIP3    H160446   6.082   4.081  11.810  1.1164  0.0864  0.2887
12985TIP3    H260447   5.988   4.107  11.926  0.5942 -0.2895 -0.0493
12986TIP3   OH260448   6.473   4.130   4.477 -1.2002 -0.0747 -0.2282
12986TIP3    H160449   6.497   4.185   4.551 -1.9252 -1.3031  0.9634
12986TIP3    H260450   6.388   4.162   4.449 -1.2542 -0.0728 -0.0588
12987TIP3   OH260451   3.084   4.650  13.977  0.4794 -0.1552  0.4346
12987TIP3    H160452   3.161   4.616  14.023  2.3172  3.4507  0.3616
12987TIP3    H260453   3.099   4.627  13.886 -0.3004 -2.3249  0.7852
12988TIP3   OH260454   0.533   2.047  13.126  0.6549  0.4867 -0.2603
12988TIP3    H160455   0.519   2.133  13.088 -0.0225  0.0684 -0.9837
12988TIP3    H260456   0.449   2.024  13.165  1.4250  1.0813  1.9195
12989TIP3   OH260457   6.165   4.161   1.043 -0.6837  0.1495  0.8884
12989TIP3    H160458   6.105   4.234   1.054  0.0323  0.9322 -0.2337
12989TIP3    H260459   6.207   4.176   0.958 -0.3505 -1.4415  0.7321
12990TIP3   OH260460   5.798   4.940  16.014  0.2838  0.2261 -0.1199
12990TIP3    H160461   5.834   4.978  15.934 -0.7280 -0.3244 -0.8650
12990TIP3    H260462   5.872   4.895  16.055  0.6750 -0.0198 -1.0750
12991TIP3   OH260463   3.031   2.277   3.879  0.3504  0.2672 -0.3242
12991TIP3    H160464   3.126   2.267   3.887  0.2861  1.1664  3.5863
12991TIP3    H260465   3.015   2.369   3.898 -1.4252 -0.4302  1.9444
12992TIP3   OH260466   2.311   6.187  12.719  0.1977 -0.3737 -0.2392
12992TIP3    H160467   2.227   6.151  12.745  0.1509  0.5652  1.0328
12992TIP3    H260468   2.356   6.115  12.675 -1.0732 -1.0223 -0.5256
12993TIP3   OH260469   1.794   0.808  13.259 -0.3830 -0.3196 -0.0402
12993TIP3    H160470   1.769   0.900  13.266 -0.7946 -0.4864  0.7889
12993TIP3    H260471   1.756   0.766  13.337 -0.4506 -1.2488 -0.5542
12994TIP3   OH260472   2.059   6.780  16.979 -0.0044  0.2314  0.5402
12994TIP3    H160473   1.998   6.793  16.907 -0.1721 -0.7208  0.4988
12994TIP3    H260474   2.010   6.729  17.044  0.1322  1.1069  1.3546
12995TIP3   OH260475   0.092   2.351  16.273  0.0228 -0.3901 -0.5042
12995TIP3    H160476   0.096   2.353  16.178  1.8150  2.4032 -0.5017
12995TIP3    H260477   0.164   2.293  16.299 -0.1846 -0.8040 -0.8500
12996TIP3   OH260478   6.141   1.102   2.530  0.0314  0.5111 -0.7812
12996TIP3    H160479   6.218   1.121   2.583  0.6456 -1.6920 -0.8244
12996TIP3    H260480   6.171   1.108   2.440 -0.0099  0.2623 -0.8111
12997TIP3   OH260481   0.082   2.534  11.908  0.3002 -0.1372  0.2490
12997TIP3    H160482   0.040   2.525  11.823  0.7186 -1.0792  0.1201
12997TIP3    H260483   0.137   2.612  11.900 -1.4244  1.1361  0.4475
12998TIP3   OH260484   3.029   5.946   6.741 -0.2955 -0.0183 -0.4265
12998TIP3    H160485   2.985   5.863   6.724 -0.3687  0.1947 -1.3824
12998TIP3    H260486   2.960   6.005   6.771 -0.8131  0.4500 -2.3757
12999TIP3   OH260487   0.557   5.611   0.642  0.0845 -0.0866 -0.0737
12999TIP3    H160488   0.565   5.660   0.560 -0.5839  0.6123  0.2722
12999TIP3    H260489   0.567   5.677   0.711 -0.2063 -0.5358  0.4057
13000TIP3   OH260490   1.256   0.697  16.924 -0.3236 -0.1804 -0.2744
13000TIP3    H160491   1.323   0.668  16.862 -0.2358 -0.7328  0.0692
13000TIP3    H260492   1.218   0.775  16.884  0.3716  0.0100 -0.5763
13001TIP3   OH260493   3.055   5.033   3.250  0.4091  0.0286  0.2205
13001TIP3    H160494   3.124   5.078   3.203 -0.9814  0.2981 -1.6877
13001TIP3    H260495   3.049   5.079   3.333  0.7939  1.6791 -0.6241
13002TIP3   OH260496   3.774   1.202   4.595  0.1643  0.3161  0.0176
13002TIP3    H160497   3.796   1.119   4.553  2.6336  1.6968 -1.6866
13002TIP3    H260498   3.782   1.267   4.525 -0.6100  2.1452  1.5354
13003TIP3   OH260499   2.852   1.483  16.582 -0.4604 -0.1955 -0.2244
13003TIP3    H160500   2.918   1.530  16.532  0.2286 -1.4396 -0.5235
13003TIP3    H260501   2.822   1.413  16.523 -0.3853 -1.0445  0.7161
13004TIP3   OH260502   0.755   2.003   5.204  0.4080  0.4288  0.7275
13004TIP3    H160503   0.813   2.076   5.224  1.4565 -0.3860  0.7168
13004TIP3    H260504   0.811   1.938   5.162 -0.7735  0.1414 -0.4799
13005TIP3   OH260505   3.027   2.482  10.663  0.5398  0.4330 -0.0585
13005TIP3    H160506   3.051   2.564  10.620  0.7699  0.5929  0.3610
13005TIP3    H260507   3.080   2.482  10.743  1.4223 -0.6737 -0.6102
13006TIP3   OH260508   5.723   0.254   3.135 -0.5756 -0.4114  0.3531
13006TIP3    H160509   5.634   0.240   3.106 -0.5261  0.4476 -0.2477
13006TIP3    H260510   5.754   0.167   3.162 -1.8168 -0.5981  1.2569
13007TIP3   OH260511   0.711   3.618   6.545  0.3932  0.8640  0.1648
13007TIP3    H160512   0.647   3.581   6.606 -0.2287  1.7782  0.0876
13007TIP3    H260513   0.783   3.646   6.601 -0.6965  2.8371  0.6935
13008TIP3   OH260514   3.934   6.398  15.885  0.3750 -0.1467 -0.0732
13008TIP3    H160515   4.026   6.385  15.861  0.0239 -2.8835 -0.3012
13008TIP3    H260516   3.889   6.410  15.802  0.7422  4.1927  0.1313
13009TIP3   OH260517   0.399   5.547  11.971 -0.3244  0.2041  0.2876
13009TIP3    H160518   0.382   5.498  12.052  1.8016 -2.6913 -0.8503
13009TIP3    H260519   0.378   5.486  11.901  1.9659  1.0134 -1.2424
13010TIP3   OH260520   1.256   2.026  13.111  0.4464 -0.1661  0.6632
13010TIP3    H160521   1.218   2.113  13.123  0.7183 -0.1012  1.0996
13010TIP3    H260522   1.298   2.029  13.025  1.7670  0.6512  1.2879
13011TIP3   OH260523   4.311   4.118  11.108 -0.7069  0.1717  0.2814
13011TIP3    H160524   4.340   4.032  11.076  0.5391  1.2699 -1.7992
13011TIP3    H260525   4.392   4.161  11.137 -1.3972  0.4583  1.8356
13012TIP3   OH260526   4.921   4.685  16.721  0.6434  0.2603 -0.0124
13012TIP3    H160527   4.893   4.607  16.673  1.0369 -0.4105  0.8247
13012TIP3    H260528   4.862   4.690  16.795 -0.3559  1.6448 -0.8457
13013TIP3   OH260529   4.207   3.581  11.026 -0.4739  0.4888 -0.0371
13013TIP3    H160530   4.265   3.617  10.959  1.0830 -0.2130  0.8804
13013TIP3    H260531   4.208   3.646  11.096  0.1873 -0.0565  0.4791
13014TIP3   OH260532   0.394   0.659   2.594 -0.8321  0.0083  0.0036
13014TIP3    H160533   0.446   0.734   2.621  0.1159 -0.3622 -0.7409
13014TIP3    H260534   0.459   0.589   2.578 -1.3999 -0.0919 -2.2130
13015TIP3   OH260535   1.693   6.444  13.048 -0.4084 -0.3529 -0.3939
13015TIP3    H160536   1.675   6.518  12.990 -0.8558 -1.0041 -1.0881
13015TIP3    H260537   1.669   6.366  12.998 -0.7484 -0.9320  0.6314
13016TIP3   OH260538   6.190   4.993  16.507  0.6023  0.2666 -0.6781
13016TIP3    H160539   6.101   5.015  16.535  0.6463  0.5150 -0.7320
13016TIP3    H260540   6.230   4.954  16.585 -0.3879 -2.3750 -1.3656
13017TIP3   OH260541   3.985   3.561   6.125  0.6113  0.0844  0.7801
13017TIP3    H160542   4.070   3.548   6.168  1.2168  1.5305  0.0901
13017TIP3    H260543   3.932   3.605   6.191  1.1048  1.0972  0.5162
13018TIP3   OH260544   4.986   1.308  16.784  0.1543 -0.1195  0.3422
13018TIP3    H160545   4.934   1.229  16.768  1.8771 -1.2571  0.1413
13018TIP3    H260546   4.924   1.380  16.771 -1.2745 -1.3957 -0.2364
13019TIP3   OH260547   3.946   6.746  15.948  0.3737 -0.2782 -0.5241
13019TIP3    H160548   3.907   6.687  15.882 -0.5625  0.6107 -0.7900
13019TIP3    H260549   3.968   6.825  15.899  0.5489  0.0346  0.0528
13020TIP3   OH260550   1.350   3.083  13.787 -0.2137 -0.3773  0.7015
13020TIP3    H160551   1.366   3.019  13.855  0.3267 -0.4894  0.4746
13020TIP3    H260552   1.435   3.092  13.742 -0.6256 -0.5244 -0.1325
13021TIP3   OH260553   0.649   1.813  12.483  0.5903  0.1776  0.6527
13021TIP3    H160554   0.676   1.873  12.551  2.4506 -0.8407  0.8748
13021TIP3    H260555   0.704   1.735  12.496  1.0030 -0.0604 -1.9582
13022TIP3   OH260556   2.215   5.748   3.138  0.0075 -0.0239  0.3794
13022TIP3    H160557   2.247   5.744   3.047 -0.1941 -1.3243  0.3527
13022TIP3    H260558   2.161   5.827   3.140  0.5351  0.3850 -0.4549
13023TIP3   OH260559   3.881   2.344  14.188 -0.4684  0.0507  0.5022
13023TIP3    H160560   3.874   2.339  14.092  0.6765  0.4478  0.3809
13023TIP3    H260561   3.796   2.313  14.220 -0.4545 -1.2138 -0.6061
13024TIP3   OH260562   2.495   1.871  13.113  0.4369  0.4548 -0.2985
13024TIP3    H160563   2.514   1.797  13.171  2.7855  0.0325 -1.5002
13024TIP3    H260564   2.425   1.840  13.056  0.5946 -0.3999 -0.0348
13025TIP3   OH260565   3.087   3.518  12.418  0.7399 -0.1651 -0.2127
13025TIP3    H160566   3.075   3.432  12.378  1.8736 -0.4687  0.0867
13025TIP3    H260567   3.180   3.537  12.410  0.6890  0.5775  0.6583
13026TIP3   OH260568   1.300   3.473  11.274 -0.4507 -0.4954  0.5166
13026TIP3    H160569   1.263   3.387  11.255  1.3968 -1.4017  0.8079
13026TIP3    H260570   1.379   3.478  11.221 -0.5391  1.0665  0.4615
13027TIP3   OH260571   4.079   6.408  12.339 -0.2786 -0.5250  0.0088
13027TIP3    H160572   4.007   6.442  12.392 -2.7048  0.4049 -3.5028
13027TIP3    H260573   4.153   6.466  12.359 -0.6240 -1.0170  3.1556
13028TIP3   OH260574   3.986   0.629   3.749  0.8264  0.0811  0.3410
13028TIP3    H160575   3.923   0.610   3.680  1.4969  0.1837 -0.3139
13028TIP3    H260576   3.953   0.710   3.789  1.4258  1.1019 -1.1179
13029TIP3   OH260577   1.795   3.692   1.145 -0.6209 -0.1929 -0.6251
13029TIP3    H160578   1.849   3.689   1.224 -0.3049  1.1254 -0.7670
13029TIP3    H260579   1.830   3.622   1.089  0.3854  0.0918 -0.3695
13030TIP3   OH260580   0.496   2.138  11.753  0.1892 -0.2193  0.1693
13030TIP3    H160581   0.529   2.219  11.791  1.3245 -0.0950 -1.0000
13030TIP3    H260582   0.557   2.118  11.682 -1.1144 -1.1151 -0.7551
13031TIP3   OH260583   0.268   5.588   4.441  0.0853 -0.1001  0.6660
13031TIP3    H160584   0.294   5.649   4.510 -0.5421 -0.5268  1.2993
13031TIP3    H260585   0.279   5.501   4.481  0.9728 -0.4161 -0.2194
13032TIP3   OH260586   4.502   0.079   2.212  0.3970  0.0873 -0.4491
13032TIP3    H160587   4.442   0.145   2.247  0.7429 -0.4112  1.1599
13032TIP3    H260588   4.587   0.122   2.210  0.6648 -0.3525  0.8121
13033TIP3   OH260589   1.206   2.528   4.636 -0.1227  0.7022  0.0325
13033TIP3    H160590   1.201   2.439   4.600 -0.7718  0.8713 -0.3179
13033TIP3    H260591   1.263   2.520   4.712 -1.1357 -0.2510  0.7208
13034TIP3   OH260592   4.257   5.096   4.041  0.0365  0.2771 -0.1161
13034TIP3    H160593   4.238   5.077   3.949 -0.5878  0.3433 -0.0023
13034TIP3    H260594   4.209   5.029   4.090  1.6965 -0.8077  0.1187
13035TIP3   OH260595   4.457   5.419  12.872 -0.0099  0.5162 -0.3855
13035TIP3    H160596   4.484   5.480  12.803 -2.9453 -0.1855 -2.3258
13035TIP3    H260597   4.537   5.404  12.923  1.9081  2.3918 -2.6015
13036TIP3   OH260598   5.372   3.576   3.618  0.1197 -0.2221  0.3150
13036TIP3    H160599   5.456   3.536   3.594 -0.3271 -1.3473  0.5490
13036TIP3    H260600   5.319   3.572   3.539 -0.0883 -0.5513  0.4658
13037TIP3   OH260601   0.815   3.518  13.975  0.2104  0.7201  0.0289
13037TIP3    H160602   0.765   3.575  13.917 -1.0474  0.8994  1.2473
13037TIP3    H260603   0.771   3.433  13.968  1.0661  0.3035 -0.5108
13038TIP3   OH260604   1.314   1.037   0.533  0.6584 -0.3163  0.7150
13038TIP3    H160605   1.363   0.992   0.602  1.2319 -1.3864 -0.3508
13038TIP3    H260606   1.224   1.038   0.565  0.7195 -1.7863  1.0137
13039TIP3   OH260607   0.133   2.355  13.455 -0.5525 -0.0643 -0.6467
13039TIP3    H160608   0.217   2.310  13.447 -0.2023  0.5060 -0.2995
13039TIP3    H260609   0.104   2.336  13.544  0.9559  2.6113  0.5416
13040TIP3   OH260610   0.240   0.170   2.444 -0.2306  0.2136 -0.0099
13040TIP3    H160611   0.326   0.182   2.404 -0.0320  0.9865  0.6153
13040TIP3    H260612   0.243   0.223   2.524 -1.7093  1.2555 -0.5993
13041TIP3   OH260613   6.624   1.995   2.879  0.6099 -0.3573  0.3512
13041TIP3    H160614   6.659   2.003   2.967  0.9699  1.4671  0.0783
13041TIP3    H260615   6.529   2.006   2.890  0.7912  1.4494  0.3770
13042TIP3   OH260616   4.200   3.887   0.106  0.9647 -0.2025 -0.2405
13042TIP3    H160617   4.210   3.943   0.028  1.9495  0.1627  0.1327
13042TIP3    H260618   4.200   3.798   0.071 -0.0329  0.0044 -0.7904
13043TIP3   OH260619   0.688   6.465  13.724 -0.3837 -0.7311  0.7525
13043TIP3    H160620   0.745   6.540  13.743 -0.4506 -0.4710 -0.0354
13043TIP3    H260621   0.599   6.499  13.735 -0.5516  0.2643 -2.6979
13044TIP3   OH260622   3.398   0.462   1.692 -0.4946 -0.3316  0.5907
13044TIP3    H160623   3.447   0.452   1.611 -1.3259  2.1555 -0.2889
13044TIP3    H260624   3.312   0.426   1.673 -0.6318  0.0788  0.4451
13045TIP3   OH260625   4.643   3.456  12.725 -0.1823  0.3332  0.5812
13045TIP3    H160626   4.713   3.510  12.690 -0.7049 -0.1458 -1.3796
13045TIP3    H260627   4.687   3.384  12.769  0.5235  1.0238  1.0226
13046TIP3   OH260628   1.081   1.099   3.370 -0.2680 -0.0394  0.0669
13046TIP3    H160629   1.102   1.051   3.290 -0.7730  0.2172 -0.2224
13046TIP3    H260630   1.109   1.042   3.441  0.0018 -0.3527 -0.2897
13047TIP3   OH260631   1.427   5.997   5.100 -0.1315 -0.5115 -0.3730
13047TIP3    H160632   1.378   5.973   5.179  0.3377 -0.1997  0.0184
13047TIP3    H260633   1.438   5.914   5.053  1.5054 -1.1375  0.9938
13048TIP3   OH260634   2.417   1.575   1.194  0.8148 -0.0021  0.3509
13048TIP3    H160635   2.364   1.568   1.273 -0.1480  0.1010 -0.2755
13048TIP3    H260636   2.378   1.513   1.133 -0.2162  1.8643 -1.0052
13049TIP3   OH260637   6.090   4.975   3.883 -0.1328 -0.4230  0.7119
13049TIP3    H160638   6.004   5.017   3.890 -0.0390 -0.2936  1.1259
13049TIP3    H260639   6.077   4.905   3.819 -0.3157  0.1742  0.0721
13050TIP3   OH260640   4.163   3.532  15.958 -0.4174 -0.2241 -0.6220
13050TIP3    H160641   4.212   3.512  15.877 -0.9901 -0.3446 -0.9431
13050TIP3    H260642   4.107   3.455  15.971 -0.2518 -0.2528 -0.0443
13051TIP3   OH260643   0.651   2.003  15.634 -0.7166  0.7171  0.2934
13051TIP3    H160644   0.736   1.998  15.591 -0.1160 -1.8811  1.6084
13051TIP3    H260645   0.642   2.095  15.659  1.2698  1.2168 -0.6786
13052TIP3   OH260646   3.586   0.226   0.939 -0.4408  0.2476 -0.1247
13052TIP3    H160647   3.527   0.236   1.013  0.7133  0.2763  0.8307
13052TIP3    H260648   3.668   0.267   0.968 -0.6349  2.3754 -2.3015
13053TIP3   OH260649   5.694   6.386   4.523  0.1964 -0.0439 -0.0868
13053TIP3    H160650   5.692   6.309   4.580  0.5928  0.2209  0.2936
13053TIP3    H260651   5.704   6.460   4.584 -0.1758  0.3073 -0.4479
13054TIP3   OH260652   4.141   2.285   0.961 -0.0230 -0.1225 -0.0869
13054TIP3    H160653   4.138   2.342   1.037  0.0869 -1.8253  1.2403
13054TIP3    H260654   4.074   2.321   0.902  0.3154  1.5769  0.5204
13055TIP3   OH260655   4.148   6.643   1.962 -0.4121  0.3707  0.9691
13055TIP3    H160656   4.124   6.708   2.028 -1.8368  0.2074  0.6610
13055TIP3    H260657   4.072   6.640   1.903  0.0211 -0.8651  0.4346
13056TIP3   OH260658   2.214   1.921  12.252  0.3915  0.5816 -0.6058
13056TIP3    H160659   2.176   1.850  12.200 -1.0385  0.5927  0.3899
13056TIP3    H260660   2.151   1.992  12.245 -0.3481  0.2525  1.8993
13057TIP3   OH260661   6.091   5.716  14.142  0.3015 -0.2788  0.5468
13057TIP3    H160662   6.076   5.718  14.047 -1.3682 -0.5510  0.7795
13057TIP3    H260663   6.067   5.804  14.171  0.3800 -0.3361  0.7817
13058TIP3   OH260664   3.488   3.515  13.205 -0.3191 -0.0342  0.0203
13058TIP3    H160665   3.492   3.543  13.296  0.7387  1.5391 -0.4686
13058TIP3    H260666   3.579   3.509  13.178 -0.5703 -2.0399 -0.5192
13059TIP3   OH260667   1.796   3.621  14.676 -1.1571  0.2613 -0.0167
13059TIP3    H160668   1.800   3.715  14.693 -0.9353  0.1606  0.5027
13059TIP3    H260669   1.736   3.587  14.742 -0.4612 -0.1029  0.4395
13060TIP3   OH260670   1.576   1.406  16.293  0.0322 -0.3532  0.0223
13060TIP3    H160671   1.574   1.402  16.197  0.7331 -0.9863  0.0210
13060TIP3    H260672   1.666   1.382  16.315  0.0276  0.3511  0.8199
13061TIP3   OH260673   1.845   6.662   6.075 -0.4788 -0.1033  0.6363
13061TIP3    H160674   1.793   6.631   6.002  0.9546 -1.2539  0.0607
13061TIP3    H260675   1.817   6.753   6.087 -0.8537  0.0716 -1.2420
13062TIP3   OH260676   4.463   4.297   1.493 -0.0866 -0.1782  0.0400
13062TIP3    H160677   4.478   4.222   1.551  1.0939  0.0130  0.0083
13062TIP3    H260678   4.435   4.367   1.552  2.5336  0.4536  0.6651
13063TIP3   OH260679   5.638   1.779  15.428 -0.2281  0.3313 -0.0942
13063TIP3    H160680   5.579   1.834  15.478  0.2830 -0.4894  1.4687
13063TIP3    H260681   5.715   1.768  15.484  0.2031 -0.9661 -0.8783
13064TIP3   OH260682   5.269   5.788   3.003 -0.1652 -0.5124 -0.0005
13064TIP3    H160683   5.194   5.824   3.051 -0.8064  0.3769 -1.5715
13064TIP3    H260684   5.344   5.805   3.059 -0.9388  0.0940  0.8845
13065TIP3   OH260685   4.949   3.291   0.018 -0.1134  1.0919  0.0137
13065TIP3    H160686   4.934   3.203  -0.015  2.4504  0.4228  0.4890
13065TIP3    H260687   4.896   3.295   0.098  0.4775 -0.3520  0.4988
13066TIP3   OH260688   4.978   1.305  16.343 -0.3315  0.0280  0.2535
13066TIP3    H160689   4.937   1.377  16.390  0.3270 -0.0721  1.0079
13066TIP3    H260690   5.057   1.285  16.393 -0.4829 -1.2032  0.0448
13067TIP3   OH260691   5.141   5.981   2.157 -0.2584  0.2970  0.3964
13067TIP3    H160692   5.209   5.914   2.147 -1.5489 -0.7616 -2.7068
13067TIP3    H260693   5.125   5.986   2.251  2.8668 -0.6304  1.0692
13068TIP3   OH260694   4.584   3.918  13.492  0.3544  0.2143  0.1987
13068TIP3    H160695   4.515   3.959  13.441 -1.6214 -1.6587  1.1855
13068TIP3    H260696   4.569   3.949  13.582  2.1312  1.3921  0.1375
13069TIP3   OH260697   6.823   4.691  14.340  0.7680  0.4357 -0.1185
13069TIP3    H160698   6.917   4.690  14.362  1.4323  1.2288 -2.6071
13069TIP3    H260699   6.810   4.774  14.294 -1.5736  1.1061  1.5352
13070TIP3   OH260700   2.551   1.814  13.750  0.4392  0.0254 -0.7605
13070TIP3    H160701   2.530   1.725  13.780  1.0635  0.1389  0.0416
13070TIP3    H260702   2.480   1.868  13.785  1.3291  0.2120  0.8798
13071TIP3   OH260703   5.421   6.420   1.987 -0.1649  0.6008 -0.2543
13071TIP3    H160704   5.344   6.463   1.948  0.0192  0.1787 -1.1022
13071TIP3    H260705   5.492   6.439   1.926  0.4974  1.2871  0.7076
13072TIP3   OH260706   1.243   0.276   1.913  0.0513  0.1778 -0.2953
13072TIP3    H160707   1.238   0.191   1.957 -2.1860 -0.3811 -1.4996
13072TIP3    H260708   1.332   0.307   1.931  0.3854 -1.6510  1.5424
13073TIP3   OH260709   3.200   2.735  15.212  0.1092  0.0287  0.4342
13073TIP3    H160710   3.183   2.727  15.306  0.4409  2.6840  0.8013
13073TIP3    H260711   3.221   2.646  15.184 -0.4484 -0.9164  2.7733
13074TIP3   OH260712   4.868   6.552   2.698 -0.2189  0.4543  0.8968
13074TIP3    H160713   4.797   6.612   2.675 -0.6460 -1.3629 -3.5477
13074TIP3    H260714   4.948   6.601   2.680 -0.4664  0.9457  1.1273
13075TIP3   OH260715   3.051   0.588  13.299  0.3931  0.4607  0.1133
13075TIP3    H160716   3.059   0.660  13.361  1.3282 -1.0859  1.8912
13075TIP3    H260717   3.071   0.509  13.350 -3.7601 -1.4987 -0.8572
13076TIP3   OH260718   1.343   6.796  11.415 -0.4573 -0.2574  0.5146
13076TIP3    H160719   1.411   6.826  11.355 -0.0742 -0.4341  0.8495
13076TIP3    H260720   1.360   6.702  11.426 -0.5577 -0.2409  0.8402
13077TIP3   OH260721   6.761   1.447   2.341  0.8601 -0.7673 -0.7087
13077TIP3    H160722   6.685   1.390   2.330 -0.2771  0.5190  0.1985
13077TIP3    H260723   6.779   1.481   2.253 -2.0476  1.8554 -0.4741
13078TIP3   OH260724   5.584   4.135   2.094  0.5371 -0.1762 -0.1400
13078TIP3    H160725   5.565   4.097   2.008 -0.5262 -3.5218  1.4086
13078TIP3    H260726   5.499   4.159   2.130  0.9705  1.1931  0.0215
13079TIP3   OH260727   0.211   0.288  12.700  0.1449  0.3100 -0.1305
13079TIP3    H160728   0.246   0.266  12.786  1.1319 -0.5412 -0.7177
13079TIP3    H260729   0.136   0.231  12.689  0.0566  0.3726  0.1366
13080TIP3   OH260730   5.293   6.029  14.849  0.2350 -0.6404  0.0230
13080TIP3    H160731   5.301   6.123  14.869 -3.8842  0.5601 -2.7459
13080TIP3    H260732   5.236   5.995  14.918 -0.3432 -0.4755 -0.3684
13081TIP3   OH260733   4.083   0.962  13.991 -0.2678 -0.2263 -0.1567
13081TIP3    H160734   4.056   0.871  13.982  0.7475 -0.6773  1.0984
13081TIP3    H260735   4.072   0.999  13.904  0.1918 -1.7973 -0.9198
13082TIP3   OH260736   3.729   1.165  12.060  0.6821 -0.3831 -0.0810
13082TIP3    H160737   3.751   1.239  12.004  1.6175 -0.7624 -0.2265
13082TIP3    H260738   3.722   1.091  12.000  3.4698 -1.1750  0.4429
13083TIP3   OH260739   6.457   5.120  16.665 -0.4800  0.1811  0.0249
13083TIP3    H160740   6.369   5.120  16.700 -0.7702 -0.7902 -0.6552
13083TIP3    H260741   6.459   5.045  16.605  0.3296  1.1168 -1.1546
13084TIP3   OH260742   1.913   5.990   1.202 -0.1252 -0.9276 -0.6852
13084TIP3    H160743   2.005   5.967   1.215  0.2953  0.2402 -1.4111
13084TIP3    H260744   1.914   6.055   1.132 -1.4874 -0.7272 -0.5539
13085TIP3   OH260745   0.950   5.373  16.798  0.4246  0.4715 -0.3767
13085TIP3    H160746   0.930   5.354  16.890  1.8224  0.9808  0.0578
13085TIP3    H260747   1.018   5.440  16.802  0.0633  0.9454 -1.8041
13086TIP3   OH260748   0.389   3.908   2.410 -0.0745 -0.0633 -0.3985
13086TIP3    H160749   0.428   3.993   2.387  0.1573 -0.1422 -0.2950
13086TIP3    H260750   0.461   3.858   2.447 -0.5145  0.1836  0.8445
13087TIP3   OH260751   5.045   4.856   2.638  0.1807  0.4534  0.4499
13087TIP3    H160752   5.016   4.778   2.590  0.9956  0.3957  0.0490
13087TIP3    H260753   5.091   4.821   2.714  1.4964  0.5250 -0.2956
13088TIP3   OH260754   5.229   3.587   1.292  0.1481 -0.3394 -0.0936
13088TIP3    H160755   5.256   3.602   1.382 -2.2284 -1.5450  0.9050
13088TIP3    H260756   5.278   3.510   1.264  2.1465  0.9893 -0.5111
13089TIP3   OH260757   1.923   4.070   4.963 -0.0183 -0.1477  0.1638
13089TIP3    H160758   1.959   4.005   4.902 -3.4504 -0.5249 -1.7354
13089TIP3    H260759   1.882   4.018   5.031  2.7970  0.2718  2.3587
13090TIP3   OH260760   5.013   1.783   1.102 -0.2475 -0.3682 -0.2351
13090TIP3    H160761   4.969   1.855   1.148 -0.7368 -0.4503 -0.5662
13090TIP3    H260762   4.942   1.735   1.059  0.0317 -1.2958  0.3187
13091TIP3   OH260763   4.785   2.263   2.357 -0.1811 -0.1388  0.3320
13091TIP3    H160764   4.736   2.184   2.339  1.9870 -1.3576 -0.6288
13091TIP3    H260765   4.865   2.232   2.401  1.0534  1.4097 -0.7170
13092TIP3   OH260766   0.666   2.308   2.715  0.0656  0.3390 -0.0193
13092TIP3    H160767   0.624   2.262   2.643  0.7006 -0.7114  0.2584
13092TIP3    H260768   0.653   2.401   2.695  0.4967  0.0875 -1.6644
13093TIP3   OH260769   5.786   4.471   3.530 -0.2502  0.0884 -0.4765
13093TIP3    H160770   5.800   4.394   3.474 -0.5967  0.0339 -0.4863
13093TIP3    H260771   5.692   4.476   3.542 -0.1148 -0.5944  1.0939
13094TIP3   OH260772   4.352   6.757   1.086  0.2799 -0.0921 -0.1738
13094TIP3    H160773   4.363   6.824   1.154  0.9312  0.4590 -0.8089
13094TIP3    H260774   4.284   6.791   1.029 -1.0774 -1.0678  0.7887
13095TIP3   OH260775   2.097   0.010   3.309 -0.0697 -0.1825 -0.1121
13095TIP3    H160776   2.123  -0.019   3.397  2.7349  0.6794 -0.5696
13095TIP3    H260777   2.106   0.105   3.312  2.5427 -0.2747 -1.9593
13096TIP3   OH260778   4.042   1.258  16.608  0.0473  0.2075  0.1337
13096TIP3    H160779   3.994   1.180  16.583 -0.6958  0.5865  0.3583
13096TIP3    H260780   4.026   1.267  16.702  2.4383 -0.9597  0.7339
13097TIP3   OH260781   0.935   1.063  12.891 -0.1491  0.1180 -0.3231
13097TIP3    H160782   0.868   1.008  12.850 -0.8208  0.0142  0.8766
13097TIP3    H260783   0.925   1.048  12.985 -0.0566  1.9655  0.0195
13098TIP3   OH260784   1.461   3.139  15.638 -0.3573 -0.2152 -0.1497
13098TIP3    H160785   1.548   3.111  15.667  0.3435  0.9505 -1.0289
13098TIP3    H260786   1.454   3.230  15.667 -2.4236 -1.0294  2.3129
13099TIP3   OH260787   5.389   0.311   1.653  0.2239 -0.2958  0.4383
13099TIP3    H160788   5.340   0.383   1.692 -0.9312 -1.2433  0.8314
13099TIP3    H260789   5.479   0.341   1.650 -0.4009  1.6311 -0.5551
13100TIP3   OH260790   4.640   0.691   4.983  0.3359 -0.5014  0.2563
13100TIP3    H160791   4.686   0.736   4.912 -0.0543  1.2191  1.0291
13100TIP3    H260792   4.700   0.621   5.010  0.9978 -0.4451 -0.9709
13101TIP3   OH260793   1.616   3.136   1.128 -0.1636  0.3229 -0.0742
13101TIP3    H160794   1.673   3.061   1.110  1.0257  0.9438  1.0059
13101TIP3    H260795   1.675   3.211   1.131 -1.4739  1.5589 -2.3455
13102TIP3   OH260796   6.377   0.325  16.367  0.2982 -0.0183 -0.0099
13102TIP3    H160797   6.420   0.276  16.438  0.8240  0.2520 -0.1303
13102TIP3    H260798   6.284   0.323  16.389  0.4845  0.3542  0.8782
13103TIP3   OH260799   3.386   6.720  16.122  0.8646 -0.3889 -0.1847
13103TIP3    H160800   3.442   6.740  16.047 -1.9487  1.6708 -1.9447
13103TIP3    H260801   3.370   6.626  16.115  3.3872 -0.8905 -0.0443
13104TIP3   OH260802   0.115   2.340   3.543  0.2116 -0.2346 -0.2041
13104TIP3    H160803   0.042   2.364   3.486  0.2820  0.8515  0.1377
13104TIP3    H260804   0.156   2.424   3.567  1.3602 -0.7996 -0.1140
13105TIP3   OH260805   4.072   5.242   6.163  0.5147 -0.1611 -0.1909
13105TIP3    H160806   4.100   5.324   6.203 -1.6104  2.0880 -2.9383
13105TIP3    H260807   3.989   5.221   6.206 -0.7427  1.1633 -1.8387
13106TIP3   OH260808   1.393   0.837   2.274 -0.1931 -0.1282  0.0037
13106TIP3    H160809   1.411   0.743   2.276  0.0252 -0.1553 -1.7639
13106TIP3    H260810   1.298   0.844   2.287 -0.6236 -0.8155 -2.2709
13107TIP3   OH260811   5.219   3.385  11.571 -0.3631  0.0781 -0.2510
13107TIP3    H160812   5.209   3.469  11.616 -0.0115  0.6884 -1.2721
13107TIP3    H260813   5.272   3.332  11.631  1.1897  1.3058 -0.4533
13108TIP3   OH260814   0.626   5.048   5.576  0.4781  0.4539  0.6677
13108TIP3    H160815   0.557   5.093   5.527  1.6861  1.6061 -0.0263
13108TIP3    H260816   0.645   4.970   5.525 -0.7811 -0.2584  1.2386
13109TIP3   OH260817   1.649   2.707  16.248  0.2838 -0.0613 -0.5378
13109TIP3    H160818   1.558   2.735  16.254  0.5530  0.9835 -0.9959
13109TIP3    H260819   1.698   2.774  16.296  0.9959  0.5225 -2.0209
13110TIP3   OH260820   4.027   3.668   3.294  0.3727  0.3154 -0.0267
13110TIP3    H160821   3.969   3.743   3.298 -0.0865 -0.0709  2.3004
13110TIP3    H260822   3.969   3.592   3.303  0.8939 -0.3324 -1.6620
13111TIP3   OH260823   5.381   0.919   5.194  0.0716 -0.6348  0.0947
13111TIP3    H160824   5.414   0.924   5.283 -1.0290 -0.3032  0.4988
13111TIP3    H260825   5.434   0.851   5.152  1.4202  0.0511  0.6260
13112TIP3   OH260826   2.577   5.472   0.585  0.4068 -0.1481  0.0493
13112TIP3    H160827   2.542   5.479   0.496  0.3441 -1.9955 -0.1293
13112TIP3    H260828   2.516   5.413   0.630  0.2801  0.9902  1.4191
13113TIP3   OH260829   3.324   4.226   3.146  0.2800 -0.2304 -0.2419
13113TIP3    H160830   3.384   4.194   3.078  0.2019 -1.3259  0.1872
13113TIP3    H260831   3.238   4.192   3.120 -0.2561  1.5680 -1.0090
13114TIP3   OH260832   6.450   4.489   3.707  0.0779  0.2547 -0.3379
13114TIP3    H160833   6.405   4.406   3.690  2.4021 -1.2305  0.3759
13114TIP3    H260834   6.519   4.467   3.769  1.0605  2.6547 -0.4800
13115TIP3   OH260835   2.490   6.135   2.430  0.4986 -0.2835  0.0651
13115TIP3    H160836   2.465   6.042   2.431 -0.3339 -0.0821 -0.8730
13115TIP3    H260837   2.467   6.165   2.343 -0.0384  1.0227  0.6374
13116TIP3   OH260838   1.568   1.184  13.039  0.3026  0.5782  0.0906
13116TIP3    H160839   1.525   1.259  12.997  1.0624  0.4194 -0.9988
13116TIP3    H260840   1.520   1.173  13.122 -0.6034  1.5012 -0.2828
13117TIP3   OH260841   0.349   2.556   6.154 -0.3561  0.1573 -0.3602
13117TIP3    H160842   0.268   2.506   6.166  0.5794 -1.2027  0.5710
13117TIP3    H260843   0.384   2.567   6.242 -0.4848  2.4457 -0.5385
13118TIP3   OH260844   0.764   6.395   1.376  0.0616  0.0262 -0.1487
13118TIP3    H160845   0.692   6.408   1.438  0.7220  1.4603  0.3630
13118TIP3    H260846   0.840   6.376   1.430 -0.0821 -2.6024 -0.7299
13119TIP3   OH260847   2.557   4.278   3.412  0.0910 -0.3728 -0.3309
13119TIP3    H160848   2.602   4.288   3.495 -0.8449 -0.0723  0.1481
13119TIP3    H260849   2.545   4.183   3.403 -0.3071 -0.3747  0.1578
13120TIP3   OH260850   2.528   5.110  16.129 -0.0731 -0.5362 -0.1793
13120TIP3    H160851   2.455   5.132  16.071  0.8344  0.5797 -0.9309
13120TIP3    H260852   2.604   5.153  16.091  0.5652  0.2664  1.8397
13121TIP3   OH260853   0.122   0.619   3.311 -0.4225  0.3523 -0.2663
13121TIP3    H160854   0.212   0.644   3.335 -0.1344  1.6112 -2.4242
13121TIP3    H260855   0.082   0.595   3.394  1.8274 -0.0308  0.8060
13122TIP3   OH260856   2.685   1.708  16.555  0.2149  0.1751 -0.0229
13122TIP3    H160857   2.718   1.629  16.598  0.5059 -0.4432 -1.3504
13122TIP3    H260858   2.655   1.764  16.628  0.9821 -0.6987  0.9959
13123TIP3   OH260859   4.783   4.077   5.068 -0.3567 -0.2941 -0.6382
13123TIP3    H160860   4.746   4.090   5.155 -1.0015 -1.4780 -0.7145
13123TIP3    H260861   4.830   3.994   5.074 -0.3914 -0.3779 -1.4145
13124TIP3   OH260862   4.844   1.104   4.750  0.4307  0.1682  0.1495
13124TIP3    H160863   4.899   1.028   4.768 -0.3715 -0.7650 -1.1128
13124TIP3    H260864   4.794   1.117   4.831  2.9275  1.5039  1.5992
13125TIP3   OH260865   1.463   0.759   1.762  0.1852  0.8021  0.2887
13125TIP3    H160866   1.475   0.820   1.689 -0.6085  0.3783 -0.2159
13125TIP3    H260867   1.549   0.752   1.803  0.8948  0.2791 -1.2261
13126TIP3   OH260868   1.222   5.423  16.742 -0.3431  0.3005 -0.1310
13126TIP3    H160869   1.245   5.447  16.653  0.3320  1.0865  0.2450
13126TIP3    H260870   1.275   5.480  16.797 -0.8683 -0.0620  0.7755
13127TIP3   OH260871   0.662   6.540   5.081  0.0417  0.2474 -0.0340
13127TIP3    H160872   0.731   6.543   5.148  0.1538 -2.9470  0.1615
13127TIP3    H260873   0.696   6.479   5.015 -1.9557 -0.2293 -0.6911
13128TIP3   OH260874   1.698   3.840   3.964  0.2965  0.0180  0.0101
13128TIP3    H160875   1.734   3.834   3.876 -2.1598 -0.9605 -1.0390
13128TIP3    H260876   1.692   3.749   3.993 -2.1800 -0.0018 -0.3398
13129TIP3   OH260877   3.828   2.355   3.560 -0.0240  0.5400  0.5372
13129TIP3    H160878   3.854   2.395   3.643 -0.7284  2.7386 -0.2417
13129TIP3    H260879   3.737   2.330   3.573  0.2320 -0.2976  0.8108
13130TIP3   OH260880   3.182   1.520   4.523 -0.1945  0.1679  0.2852
13130TIP3    H160881   3.200   1.461   4.596 -2.8225 -1.5841 -0.3677
13130TIP3    H260882   3.261   1.574   4.517  1.9156 -2.5118  1.6213
13131TIP3   OH260883   2.180   5.145   0.764  0.5048 -0.1068 -0.3553
13131TIP3    H160884   2.170   5.067   0.709 -0.5694  1.6345 -2.8050
13131TIP3    H260885   2.098   5.152   0.812  0.2300  0.0110 -0.8402
13132TIP3   OH260886   0.150   4.499   4.154  0.2348 -0.3993  0.3879
13132TIP3    H160887   0.109   4.428   4.106  1.1420 -1.3029  0.8911
13132TIP3    H260888   0.116   4.491   4.243  0.5936 -0.4203  0.5260
13133TIP3   OH260889   0.358   5.740   3.425  0.0293  0.1348  0.0082
13133TIP3    H160890   0.403   5.823   3.409  1.6173 -0.8655 -1.0621
13133TIP3    H260891   0.380   5.686   3.349 -2.1787 -0.7978 -0.0483
13134TIP3   OH260892   0.741   1.295  15.358  0.0224  0.0736 -0.1078
13134TIP3    H160893   0.678   1.283  15.429  0.3006  0.2343  0.1693
13134TIP3    H260894   0.751   1.390  15.351  0.1293  0.0527 -0.2439
13135TIP3   OH260895   3.117   6.203  13.167 -0.5651 -0.0823  0.5930
13135TIP3    H160896   3.061   6.232  13.240 -0.4449  0.2162  0.5681
13135TIP3    H260897   3.055   6.185  13.096 -0.5761  1.2283  0.2338
13136TIP3   OH260898   6.260   2.422  14.923  0.1353 -0.0873 -0.3324
13136TIP3    H160899   6.254   2.473  15.004  1.0676  0.4355 -0.5771
13136TIP3    H260900   6.258   2.331  14.951 -0.5240  0.0785  0.1908
13137TIP3   OH260901   3.294   1.470  14.821 -0.3802 -0.1481 -0.2183
13137TIP3    H160902   3.377   1.516  14.834 -0.1548 -0.4142 -0.6919
13137TIP3    H260903   3.318   1.385  14.784 -0.9102  0.1073 -1.1937
13138TIP3   OH260904   2.905   2.544   3.023  0.3456 -0.4221 -0.4661
13138TIP3    H160905   2.960   2.531   2.945  0.6506  1.0828 -0.5212
13138TIP3    H260906   2.851   2.465   3.027  1.4933 -1.2915 -1.2380
13139TIP3   OH260907   3.656   3.445   6.246  0.8031  0.5674 -0.0295
13139TIP3    H160908   3.676   3.538   6.244 -1.7190  1.2907  2.4080
13139TIP3    H260909   3.576   3.436   6.195  0.9743 -0.2752 -0.1620
13140TIP3   OH260910   0.860   6.446  16.680 -0.1840 -0.7187 -0.3221
13140TIP3    H160911   0.923   6.483  16.617 -0.2120  1.0642  0.6408
13140TIP3    H260912   0.786   6.418  16.626  0.0938  0.1091 -1.1519
13141TIP3   OH260913   0.948   0.095  14.978 -0.3639 -0.0872  0.3585
13141TIP3    H160914   0.903   0.130  15.055  0.8676  0.4608  0.8582
13141TIP3    H260915   1.032   0.141  14.976  0.0954 -0.9187 -0.6696
13142TIP3   OH260916   0.795   6.305  11.580 -0.2680 -0.0163 -0.3074
13142TIP3    H160917   0.701   6.326  11.577 -0.1319  0.7029  0.1313
13142TIP3    H260918   0.802   6.221  11.535 -1.0601  0.1467 -0.7629
13143TIP3   OH260919   2.768   3.717  12.417  0.1903 -0.0918 -0.0131
13143TIP3    H160920   2.837   3.689  12.357  2.0214  1.4412  1.2607
13143TIP3    H260921   2.753   3.809  12.395  0.3396  0.2716  1.3441
13144TIP3   OH260922   3.532   4.352  15.348 -0.1385  0.6992 -0.2286
13144TIP3    H160923   3.569   4.328  15.263  2.4556  0.6141  0.8155
13144TIP3    H260924   3.556   4.444  15.359  0.9350  0.3117  0.9958
13145TIP3   OH260925   1.933   1.912  13.976  0.0828  0.0066  0.5661
13145TIP3    H160926   1.919   1.818  13.974  0.6997 -0.0761  0.0843
13145TIP3    H260927   1.893   1.944  13.895 -0.5377  0.2235  0.9487
13146TIP3   OH260928   0.977   4.967  16.670 -0.1413 -0.8191 -0.0051
13146TIP3    H160929   1.065   4.930  16.664  0.8248  1.0675  1.3777
13146TIP3    H260930   0.977   5.016  16.753 -2.5635 -0.9008  0.1208
13147TIP3   OH260931   5.216   6.079  13.816  0.1114  0.0771 -0.2495
13147TIP3    H160932   5.150   6.124  13.869  1.1313 -0.8755  1.9426
13147TIP3    H260933   5.298   6.120  13.840  0.8098 -1.5306  0.2732
13148TIP3   OH260934   1.764   6.718  12.184  0.1272  0.1509  0.1842
13148TIP3    H160935   1.678   6.739  12.147 -0.2134 -2.1827 -0.5041
13148TIP3    H260936   1.813   6.678  12.111  0.0316 -3.0263  1.6821
13149TIP3   OH260937   6.228   3.021  13.361 -0.0195 -0.1018 -0.1711
13149TIP3    H160938   6.266   3.021  13.273  0.8070  2.3764  0.1110
13149TIP3    H260939   6.291   3.068  13.415 -0.9074 -0.8304  1.5988
13150TIP3   OH260940   6.821   1.252   3.459 -0.7284 -0.6864 -0.0606
13150TIP3    H160941   6.729   1.274   3.477 -1.1476 -2.0597 -0.4257
13150TIP3    H260942   6.828   1.159   3.481  0.4234 -0.7471 -0.6368
13151TIP3   OH260943   2.989   6.548   3.080 -0.4983 -0.3626 -0.4847
13151TIP3    H160944   2.949   6.634   3.067  0.9108  0.9063  2.4847
13151TIP3    H260945   2.934   6.488   3.031 -2.3531  2.0459 -1.5721
13152TIP3   OH260946   3.905   3.127  16.492 -0.2856 -0.5612  0.4240
13152TIP3    H160947   3.886   3.216  16.523 -1.7300 -1.4504  2.2937
13152TIP3    H260948   3.926   3.078  16.572 -0.1965 -2.0693 -0.4855
13153TIP3   OH260949   2.222   0.474   1.413 -0.3920 -0.4241 -0.5833
13153TIP3    H160950   2.197   0.383   1.395 -0.7918 -0.5319  0.4609
13153TIP3    H260951   2.144   0.525   1.394 -0.4702 -0.4101 -0.2181
13154TIP3   OH260952   6.349   6.709   1.517 -0.0608  0.3190 -0.8428
13154TIP3    H160953   6.411   6.695   1.445  0.4695  0.9267 -0.5089
13154TIP3    H260954   6.382   6.786   1.563 -1.0002  0.5767 -0.5815
13155TIP3   OH260955   1.509   4.664   2.044 -0.2912 -0.0307  0.5144
13155TIP3    H160956   1.441   4.674   1.977 -0.3331 -0.5272  0.4809
13155TIP3    H260957   1.554   4.749   2.044 -1.7011  0.7576  1.4292
13156TIP3   OH260958   1.042   4.422  16.976  0.1255 -0.2429 -0.1419
13156TIP3    H160959   1.036   4.512  17.007 -0.1041  0.0152 -0.9246
13156TIP3    H260960   1.024   4.369  17.053 -0.1354  0.3860  0.2321
13157TIP3   OH260961   1.076   0.971  12.074 -0.2645  0.1475  0.3082
13157TIP3    H160962   1.045   1.037  12.136 -0.2381 -0.6686  1.2187
13157TIP3    H260963   1.134   1.018  12.016 -1.4629  1.2463 -0.0436
13158TIP3   OH260964   3.407   5.064  14.893  0.1369 -0.2012  0.2108
13158TIP3    H160965   3.447   4.977  14.897 -1.0682 -1.1077 -3.3210
13158TIP3    H260966   3.481   5.124  14.903  1.2103 -1.6312  1.3092
13159TIP3   OH260967   5.866   4.370   0.186 -0.4952  0.0026  0.0571
13159TIP3    H160968   5.867   4.281   0.222 -0.4160  0.3355  0.9141
13159TIP3    H260969   5.873   4.426   0.263  1.5758  0.7296 -0.5763
13160TIP3   OH260970   0.984   3.773   1.406 -0.0017  0.4659  0.5723
13160TIP3    H160971   1.018   3.860   1.423  2.7413 -0.5706  0.8149
13160TIP3    H260972   0.918   3.786   1.337  1.9037  2.4556 -1.0060
13161TIP3   OH260973   4.621   4.481   6.243 -0.2666  0.4243 -0.3673
13161TIP3    H160974   4.715   4.476   6.257 -0.2432  1.6747  0.1101
13161TIP3    H260975   4.593   4.390   6.233  0.5905 -0.2321  2.2386
13162TIP3   OH260976   1.314   1.038  13.197 -0.6046 -0.7142  0.9405
13162TIP3    H160977   1.277   1.070  13.115 -0.4268 -1.7989  0.4187
13162TIP3    H260978   1.313   0.943  13.188  2.9836 -0.8566  0.5601
13163TIP3   OH260979   5.056   1.482   4.186 -0.0570  0.2042 -0.5553
13163TIP3    H160980   5.027   1.400   4.227  1.4052  0.2444  0.6400
13163TIP3    H260981   4.980   1.540   4.191 -0.8097 -0.7629 -0.5477
13164TIP3   OH260982   4.575   6.056   0.279 -0.0630  0.1445  0.5225
13164TIP3    H160983   4.502   6.003   0.312 -1.6619  0.9965 -1.4104
13164TIP3    H260984   4.551   6.146   0.303 -0.3145  0.5614 -1.1703
13165TIP3   OH260985   1.260   6.084  11.573 -0.4886  0.3026 -0.4040
13165TIP3    H160986   1.286   6.127  11.655  0.2895  0.3849 -0.6879
13165TIP3    H260987   1.316   6.123  11.506  0.0378 -0.9464 -0.7164
13166TIP3   OH260988   2.777   1.711   3.837  0.3327 -0.7033 -0.0610
13166TIP3    H160989   2.708   1.769   3.807  1.3780  0.1635 -0.8669
13166TIP3    H260990   2.759   1.627   3.794 -1.7270 -1.3233  1.8563
13167TIP3   OH260991   0.812   4.677  12.168 -0.4211  0.1926 -0.1821
13167TIP3    H160992   0.817   4.771  12.153  0.8400 -0.1023 -1.9567
13167TIP3    H260993   0.903   4.651  12.183 -0.9055 -0.5674  1.7457
13168TIP3   OH260994   4.883   2.533  16.713 -0.4179 -0.1053 -0.6028
13168TIP3    H160995   4.856   2.615  16.756 -0.7288 -0.0962 -0.8180
13168TIP3    H260996   4.911   2.560  16.626 -1.0088 -0.2948 -0.8551
13169TIP3   OH260997   2.088   0.462  12.557  0.2463  0.3629  0.0452
13169TIP3    H160998   2.155   0.497  12.616  0.3801  0.1046  0.0472
13169TIP3    H260999   2.011   0.451  12.612 -0.2724  2.0960 -0.2753
13170TIP3   OH261000   3.585   5.597   2.168  0.2963  0.4097 -0.0845
13170TIP3    H161001   3.523   5.599   2.095 -0.6863  1.2357  0.7424
13170TIP3    H261002   3.671   5.609   2.127 -0.1492 -0.0810 -1.1858
13171TIP3   OH261003   3.144   2.306  10.872 -0.3316  0.2611  0.2129
13171TIP3    H161004   3.091   2.253  10.931  1.5753 -1.0529  0.8507
13171TIP3    H261005   3.170   2.381  10.925 -0.0600 -0.0291  0.4972
13172TIP3   OH261006   3.404   5.890   3.710 -0.3650 -0.0900 -0.3224
13172TIP3    H161007   3.353   5.830   3.764 -2.0542 -0.0686 -1.7898
13172TIP3    H261008   3.433   5.836   3.636  1.3992  0.0169  0.2557
13173TIP3   OH261009   5.370   5.060  14.607  0.1968 -0.6396 -0.3615
13173TIP3    H161010   5.290   5.108  14.583 -0.2715 -0.8259  0.7747
13173TIP3    H261011   5.348   4.968  14.591 -0.6654 -0.9266  2.0996
13174TIP3   OH261012   0.755   1.549  12.538 -0.6205 -0.1913 -0.1535
13174TIP3    H161013   0.757   1.501  12.455  1.0098  0.5188 -0.5554
13174TIP3    H261014   0.832   1.519  12.586  1.0787  2.6642 -0.8525
13175TIP3   OH261015   6.230   1.472  15.788 -0.2050  0.0971 -0.3618
13175TIP3    H161016   6.324   1.486  15.796  0.4794 -1.8735 -3.1205
13175TIP3    H261017   6.199   1.545  15.735 -0.4360  1.1358  1.1429
13176TIP3   OH261018   6.054   3.838   2.451 -0.2351  0.1702  0.3426
13176TIP3    H161019   6.026   3.907   2.511  1.2231  0.5684  0.5854
13176TIP3    H261020   6.140   3.864   2.421  0.2041 -1.3613  0.1551
13177TIP3   OH261021   3.397   6.123  10.840 -0.5968 -0.5710  0.3654
13177TIP3    H161022   3.315   6.120  10.791 -0.3000 -0.3272 -0.1458
13177TIP3    H261023   3.448   6.193  10.800 -0.5008 -0.1047  1.2697
13178TIP3   OH261024   1.563   2.990   6.121  0.2141 -0.4598 -0.4149
13178TIP3    H161025   1.644   2.955   6.159 -0.5670  0.8450  2.7462
13178TIP3    H261026   1.592   3.065   6.068  1.2995 -2.0272 -2.1564
13179TIP3   OH261027   6.638   5.454  15.008 -0.1048  0.0172  0.0944
13179TIP3    H161028   6.660   5.546  15.027 -1.3300  0.3371  0.0725
13179TIP3    H261029   6.720   5.407  15.022  0.1489  0.8600  1.8340
13180TIP3   OH261030   2.136   1.901  16.694 -0.5655 -0.6486 -0.0137
13180TIP3    H161031   2.218   1.948  16.711 -0.5701 -0.3553 -0.7422
13180TIP3    H261032   2.162   1.829  16.637 -0.6521 -1.1983  0.6355
13181TIP3   OH261033   0.177   6.300  14.591  0.0571 -0.9053  0.4305
13181TIP3    H161034   0.186   6.362  14.663  0.5228 -1.3132  0.7270
13181TIP3    H261035   0.106   6.336  14.537  1.1750  0.5562 -0.1093
13182TIP3   OH261036   0.521   3.392  14.983 -0.2227 -0.2096  0.0227
13182TIP3    H161037   0.487   3.438  15.059 -0.7462 -2.9796  1.6103
13182TIP3    H261038   0.613   3.376  15.003 -0.2448 -0.5448 -0.1311
13183TIP3   OH261039   4.353   1.393   6.211  0.0088 -0.1777 -0.3580
13183TIP3    H161040   4.409   1.357   6.279  0.2087  1.7103  0.5447
13183TIP3    H261041   4.269   1.348   6.222  0.5835 -1.2116 -0.0785
13184TIP3   OH261042   1.848   3.494  13.950 -0.5864  0.9169  0.8025
13184TIP3    H161043   1.762   3.534  13.955 -1.4775 -0.8961  0.8416
13184TIP3    H261044   1.832   3.400  13.962  1.2426  0.3940 -0.3299
13185TIP3   OH261045   3.070   6.563  11.914 -0.2792  0.0725  0.0511
13185TIP3    H161046   3.135   6.600  11.854  0.4531  0.3138  0.9679
13185TIP3    H261047   3.008   6.634  11.928 -1.7844 -0.6689 -2.1658
13186TIP3   OH261048   2.859   5.511  15.417  0.7239 -0.7255 -0.0228
13186TIP3    H161049   2.857   5.445  15.348 -0.0333 -2.2475  1.4032
13186TIP3    H261050   2.836   5.593  15.372 -1.5691 -1.9554 -1.2891
13187TIP3   OH261051   6.256   6.507  14.848  0.1711 -0.1803 -0.3305
13187TIP3    H161052   6.162   6.499  14.829  0.7197  0.6052 -4.3534
13187TIP3    H261053   6.264   6.590  14.894 -1.0910 -0.4835  0.5053
13188TIP3   OH261054   2.936   3.655  11.366  0.3543  0.3461  0.3055
13188TIP3    H161055   2.958   3.686  11.454 -1.2826 -1.4906  1.4416
13188TIP3    H261056   2.922   3.735  11.316  2.6157  1.4728  1.2957
13189TIP3   OH261057   6.560   5.469  16.608  0.4083 -0.4199 -0.2593
13189TIP3    H161058   6.481   5.416  16.621  1.4343 -2.9154 -3.0190
13189TIP3    H261059   6.529   5.547  16.563 -0.6550 -0.7737 -0.1728
13190TIP3   OH261060   0.802   3.336  14.975  0.3057 -0.2664  0.0709
13190TIP3    H161061   0.898   3.339  14.975  0.2751  1.1347  0.1439
13190TIP3    H261062   0.781   3.258  14.924  1.4620  0.0267 -0.8952
13191TIP3   OH261063   4.491   0.177   6.379 -0.4888 -0.0452  0.7387
13191TIP3    H161064   4.552   0.206   6.311 -0.4929 -0.6989  0.4556
13191TIP3    H261065   4.518   0.087   6.399 -2.9340 -1.3123 -1.2207
13192TIP3   OH261066   1.535   2.114   0.681  0.1113  0.1903 -0.0749
13192TIP3    H161067   1.587   2.182   0.725  0.9049 -0.3629 -0.1413
13192TIP3    H261068   1.580   2.100   0.597 -0.3560 -0.0421 -0.2874
13193TIP3   OH261069   0.826   1.636   3.489 -0.1033  0.2321 -0.7967
13193TIP3    H161070   0.818   1.657   3.396  2.0149  0.4212 -0.9679
13193TIP3    H261071   0.912   1.595   3.498 -0.5467 -0.4045  0.9778
13194TIP3   OH261072   6.322   1.133   1.685 -0.3003 -0.2299 -0.0488
13194TIP3    H161073   6.410   1.107   1.656 -0.5215 -0.8396 -0.1798
13194TIP3    H261074   6.270   1.136   1.605 -0.9190 -1.9465  0.2427
13195TIP3   OH261075   6.195   0.158  16.717  0.4720  0.2587  0.2086
13195TIP3    H161076   6.190   0.195  16.805  0.7618 -0.3936  0.5031
13195TIP3    H261077   6.171   0.067  16.728 -1.4949  0.6190 -0.7158
13196TIP3   OH261078   2.026   3.886  12.731 -0.3272 -0.0144  0.0740
13196TIP3    H161079   1.942   3.885  12.685 -0.4407 -0.6763  0.2942
13196TIP3    H261080   2.087   3.843  12.672  0.1217  1.4097 -0.5550
13197TIP3   OH261081   4.000   2.570   6.447  0.6541 -0.1565 -0.0154
13197TIP3    H161082   4.006   2.634   6.517 -0.5165 -1.0551  0.9540
13197TIP3    H261083   4.038   2.490   6.483 -0.4412 -0.7820 -0.1693
13198TIP3   OH261084   2.161   4.639   4.159  0.0748  0.2146 -0.1619
13198TIP3    H161085   2.083   4.684   4.192  1.2079  1.1138  1.4628
13198TIP3    H261086   2.216   4.627   4.236  1.7908  0.1082 -1.3401
13199TIP3   OH261087   6.582   1.715   3.916  0.0785  0.0046 -0.2053
13199TIP3    H161088   6.576   1.627   3.952  1.9843  1.4917  4.5528
13199TIP3    H261089   6.659   1.713   3.859 -0.2724 -1.4772 -0.6704
13200TIP3   OH261090   1.983   3.535   0.983 -0.5075  0.2117  0.1318
13200TIP3    H161091   1.964   3.445   0.957  0.1302  0.5512 -1.7177
13200TIP3    H261092   2.078   3.544   0.968 -0.7302  1.4533 -0.6795
13201TIP3   OH261093   0.899   0.132  11.303 -0.7535  0.2177 -0.2271
13201TIP3    H161094   0.885   0.138  11.209  1.3535  1.4102 -0.5411
13201TIP3    H261095   0.994   0.122  11.312 -1.0792 -1.9574  1.7342
13202TIP3   OH261096   3.487   2.167   3.323  0.1733  0.0714  0.0991
13202TIP3    H161097   3.547   2.120   3.381 -2.5021 -1.8687  1.5289
13202TIP3    H261098   3.493   2.120   3.239 -1.0348 -1.7243  0.9497
13203TIP3   OH261099   1.606   0.776   2.064  0.2567 -0.3527  0.0200
13203TIP3    H161100   1.623   0.770   2.158 -1.2227  0.5691  0.3890
13203TIP3    H261101   1.539   0.844   2.056  1.6533  0.8980 -1.8906
13204TIP3   OH261102   5.200   2.764  13.276  0.0850 -0.6260  0.2002
13204TIP3    H161103   5.235   2.729  13.358 -1.9537  0.0303  1.4280
13204TIP3    H261104   5.126   2.706  13.255  1.0248 -1.2321 -1.6198
13205TIP3   OH261105   2.844   3.611   1.333 -0.8128  0.1673  0.6374
13205TIP3    H161106   2.760   3.576   1.305 -2.4698  2.4580  2.3528
13205TIP3    H261107   2.856   3.691   1.282  0.4721 -0.2352  0.2580
13206TIP3   OH261108   4.427   1.338  14.754  0.1247 -0.3303  0.0230
13206TIP3    H161109   4.496   1.316  14.817  0.2399 -1.4688 -0.4746
13206TIP3    H261110   4.471   1.335  14.668 -1.0915 -4.2757 -0.6789
13207TIP3   OH261111   5.310   6.630   2.814  0.1785  0.0052 -0.5311
13207TIP3    H161112   5.367   6.660   2.744 -0.2541  0.3556 -0.7388
13207TIP3    H261113   5.275   6.711   2.853  0.8677 -0.1568  0.4742
13208TIP3   OH261114   6.619   0.668  16.526  0.3295 -0.0175 -0.1177
13208TIP3    H161115   6.587   0.579  16.535 -1.7401  0.5358 -1.3407
13208TIP3    H261116   6.641   0.695  16.615 -2.5934 -0.5328  0.8620
13209TIP3   OH261117   1.281   1.179  16.063 -0.5410 -0.1310 -0.3926
13209TIP3    H161118   1.319   1.265  16.043  0.8353 -0.3542  1.0260
13209TIP3    H261119   1.243   1.190  16.150 -0.9682 -0.7727 -0.4980
13210TIP3   OH261120   1.528   2.924  10.488  0.4051  0.1154  0.0303
13210TIP3    H161121   1.495   2.901  10.401 -1.4642 -2.4336  1.2780
13210TIP3    H261122   1.610   2.874  10.497 -0.3316 -1.0783  0.3459
13211TIP3   OH261123   2.114   5.339  13.014 -0.4473 -0.2619 -0.1171
13211TIP3    H161124   2.069   5.312  12.933  1.2994  2.1019 -2.0295
13211TIP3    H261125   2.207   5.323  12.997  0.0203  0.8416  1.1736
13212TIP3   OH261126   2.811   3.735  15.076  0.1101  0.6261  0.1371
13212TIP3    H161127   2.863   3.811  15.105  1.5073  0.1910 -1.1162
13212TIP3    H261128   2.838   3.721  14.986 -0.8097 -0.8210  0.0630
13213TIP3   OH261129   5.920   4.189  15.573  0.1375  0.1292  0.5037
13213TIP3    H161130   5.861   4.151  15.508 -0.0618  2.1723 -0.6042
13213TIP3    H261131   5.916   4.129  15.648  0.3616 -2.3105 -1.3204
13214TIP3   OH261132   5.751   1.638  11.981 -0.2419 -1.1652 -0.4955
13214TIP3    H161133   5.766   1.678  12.067 -1.2928 -1.5894 -0.0902
13214TIP3    H261134   5.708   1.555  12.002  1.2395 -2.1927 -1.3465
13215TIP3   OH261135   2.491   3.084  16.678  0.2852  0.0261 -0.4561
13215TIP3    H161136   2.584   3.076  16.656  0.5354 -1.2045  0.9387
13215TIP3    H261137   2.446   3.079  16.593  1.4573  0.2941 -1.1150
13216TIP3   OH261138   5.998   0.560   5.392 -0.0599  0.1062 -0.0903
13216TIP3    H161139   5.935   0.501   5.351  0.2052 -0.5901  0.4885
13216TIP3    H261140   5.947   0.637   5.416 -0.7839 -0.6201  0.7430
13217TIP3   OH261141   2.980   0.396  11.221  0.0307 -0.4300 -0.5518
13217TIP3    H161142   2.992   0.302  11.205 -0.7351 -0.6767  0.2730
13217TIP3    H261143   3.060   0.436  11.188 -0.8746 -1.0170 -3.7864
13218TIP3   OH261144   0.427   4.031   0.498  0.1939  0.4040  0.0023
13218TIP3    H161145   0.382   4.114   0.485 -0.9969 -0.3061 -0.7265
13218TIP3    H261146   0.459   4.034   0.588 -2.5204  0.4568  1.0565
13219TIP3   OH261147   1.326   1.965  13.380  0.4118  0.2350 -0.5798
13219TIP3    H161148   1.233   1.947  13.373  0.5211 -0.2787 -0.7174
13219TIP3    H261149   1.338   2.045  13.328 -0.2024  1.2113  0.7169
13220TIP3   OH261150   5.675   1.082  15.070 -0.7580  0.2271 -0.3545
13220TIP3    H161151   5.635   1.061  14.985 -1.8937  0.9474 -0.0177
13220TIP3    H261152   5.629   1.161  15.099 -0.1820  0.1499  0.8016
13221TIP3   OH261153   6.188   0.965  10.439  0.4703  0.1491 -0.7279
13221TIP3    H161154   6.255   0.898  10.454  0.0165 -0.0074  0.7245
13221TIP3    H261155   6.220   1.014  10.363  2.8324  0.7558  0.5464
13222TIP3   OH261156   6.270   5.404  12.429  0.5690  0.5836 -0.0763
13222TIP3    H161157   6.183   5.369  12.408  0.1848  2.4938 -2.0194
13222TIP3    H261158   6.261   5.437  12.518 -0.2367 -0.5597  0.2904
13223TIP3   OH261159   6.671   4.688  12.136  0.1364 -1.0084  0.0392
13223TIP3    H161160   6.724   4.633  12.195  2.9232 -0.4503 -1.7480
13223TIP3    H261161   6.705   4.776  12.148  0.0320 -0.7127 -1.5841
13224TIP3   OH261162   3.182   2.255   0.893  0.0454  0.0837  0.2761
13224TIP3    H161163   3.267   2.263   0.851  1.0522 -0.2536  2.1425
13224TIP3    H261164   3.189   2.308   0.973 -2.0856  1.4527 -0.3315
13225TIP3   OH261165   2.572   0.769  11.064 -0.1339 -0.1498  0.0140
13225TIP3    H161166   2.486   0.768  11.023  0.0382 -0.6943 -0.3427
13225TIP3    H261167   2.630   0.806  10.997 -0.4922  2.7003  1.1103
13226TIP3   OH261168   6.237   5.424   5.286  0.6923 -0.1297  0.3553
13226TIP3    H161169   6.256   5.404   5.377 -0.7507  0.5096  0.8302
13226TIP3    H261170   6.194   5.510   5.288 -0.6405 -0.7226 -0.7483
13227TIP3   OH261171   1.502   0.053   4.634 -0.1399 -0.2201 -0.0815
13227TIP3    H161172   1.414   0.090   4.623 -0.1530  0.1733  1.1751
13227TIP3    H261173   1.539   0.054   4.546 -1.6510 -1.0922 -0.7804
13228TIP3   OH261174   4.054   4.746  14.424 -0.5246 -0.4619 -0.1421
13228TIP3    H161175   4.036   4.801  14.347  1.0650  0.0883 -0.1675
13228TIP3    H261176   4.028   4.800  14.498  0.8643  0.3049 -0.1759
13229TIP3   OH261177   1.670   0.860  12.413  0.3796 -0.4039 -0.1025
13229TIP3    H161178   1.617   0.827  12.340 -1.5568  1.4869  0.3308
13229TIP3    H261179   1.635   0.814  12.490  0.4991 -0.3429 -0.0120
13230TIP3   OH261180   0.967   2.111  11.556  0.0254  0.1771  0.3923
13230TIP3    H161181   1.034   2.045  11.574 -1.3510 -1.9553 -1.5894
13230TIP3    H261182   0.999   2.159  11.479 -0.5539 -0.7281 -0.4491
13231TIP3   OH261183   2.254   5.633   2.522  0.0917 -0.5406 -0.0555
13231TIP3    H161184   2.332   5.584   2.496  0.6019 -0.9107  1.9704
13231TIP3    H261185   2.231   5.597   2.608  0.3708  2.5281  1.4553
13232TIP3   OH261186   2.161   4.675  16.511  0.5520 -0.2761  0.2417
13232TIP3    H161187   2.120   4.616  16.447 -0.7963  1.8160 -0.9653
13232TIP3    H261188   2.113   4.660  16.592  1.6553 -2.2989  0.5812
13233TIP3   OH261189   2.548   4.199  15.980 -0.4811  0.0080 -0.3394
13233TIP3    H161190   2.524   4.153  15.900 -1.1376  0.3991 -0.3705
13233TIP3    H261191   2.541   4.292  15.958  2.2585  0.2138 -0.7233
13234TIP3   OH261192   2.697   0.715  12.051 -0.0988 -0.4034  0.0693
13234TIP3    H161193   2.646   0.777  11.999  0.5204  0.0296 -0.0342
13234TIP3    H261194   2.673   0.735  12.142 -1.3568 -1.3147 -0.0254
13235TIP3   OH261195   2.117   5.471  15.854 -0.1610 -0.5873  0.0556
13235TIP3    H161196   2.062   5.413  15.801 -0.9864 -0.0537  0.3055
13235TIP3    H261197   2.060   5.545  15.875  0.0835 -0.8569  1.8314
13236TIP3   OH261198   0.158   0.833   6.825  0.3620  0.4966 -0.2823
13236TIP3    H161199   0.250   0.848   6.846  0.9213 -2.2009 -0.4249
13236TIP3    H261200   0.158   0.751   6.774 -2.2747 -0.7162  1.4640
13237TIP3   OH261201   5.475   1.655  11.339  0.0243 -0.3333 -0.2092
13237TIP3    H161202   5.426   1.644  11.257  0.0556 -1.4771 -0.0976
13237TIP3    H261203   5.409   1.644  11.408 -0.2705  1.9851 -0.0448
13238TIP3   OH261204   2.765   6.445   5.264 -0.2613 -0.0477 -0.4820
13238TIP3    H161205   2.686   6.393   5.253 -0.3259  0.2279 -1.4044
13238TIP3    H261206   2.770   6.461   5.358 -2.1078  1.1620 -0.5336
13239TIP3   OH261207   6.586   0.262   2.016  0.4495 -0.0330  0.0664
13239TIP3    H161208   6.526   0.188   2.010  1.4262 -0.8639  0.3347
13239TIP3    H261209   6.576   0.308   1.932 -1.0000  0.2192  0.3425
13240TIP3   OH261210   5.362   6.480   4.651 -0.0344 -0.3657 -0.4644
13240TIP3    H161211   5.418   6.456   4.726  0.5105 -0.1979 -0.8092
13240TIP3    H261212   5.273   6.462   4.681  0.1703 -0.1922  0.2681
13241TIP3   OH261213   5.779   5.955   0.637  0.5358 -0.2388  0.2085
13241TIP3    H161214   5.704   5.963   0.697 -0.3633 -1.4363 -0.7126
13241TIP3    H261215   5.826   5.877   0.667  0.1487 -0.7740 -0.5462
13242TIP3   OH261216   2.415   0.416  16.944  0.3056 -0.1476 -0.3230
13242TIP3    H161217   2.465   0.497  16.930  2.1521 -1.3509 -1.0633
13242TIP3    H261218   2.406   0.411  17.039 -0.3640  1.2029 -0.2868
13243TIP3   OH261219   2.414   4.180   2.338 -0.4051 -0.2793  0.0984
13243TIP3    H161220   2.453   4.158   2.423  0.6306 -2.5648 -0.8863
13243TIP3    H261221   2.323   4.149   2.345 -0.7069  0.6900  0.7591
13244TIP3   OH261222   3.467   4.625  16.718 -0.9159 -0.1835 -0.4775
13244TIP3    H161223   3.467   4.700  16.777 -1.7653 -0.1418 -0.5318
13244TIP3    H261224   3.494   4.661  16.634  1.1018 -0.3794  0.0334
13245TIP3   OH261225   5.135   2.893  14.744 -0.3954 -0.6175 -0.5111
13245TIP3    H161226   5.184   2.859  14.819 -0.0634 -0.0588 -0.4696
13245TIP3    H261227   5.046   2.861  14.757 -0.2192 -0.9696 -0.1597
13246TIP3   OH261228   1.865   2.137  10.671  0.1745 -0.3836  0.4540
13246TIP3    H161229   1.959   2.131  10.687  0.1067 -0.7572  0.7171
13246TIP3    H261230   1.829   2.170  10.754  0.5022  3.7079 -0.7709
13247TIP3   OH261231   3.728   6.219   3.840 -0.1969 -0.4075 -0.0262
13247TIP3    H161232   3.689   6.136   3.870 -1.3978  0.1376 -0.0257
13247TIP3    H261233   3.692   6.232   3.752  1.3406 -0.7294 -0.7403
13248TIP3   OH261234   2.244   4.237  10.879 -0.0532  0.1699  0.3372
13248TIP3    H161235   2.316   4.175  10.869  0.6717  1.1599 -0.9491
13248TIP3    H261236   2.271   4.313  10.827 -1.5716  0.9746  0.6725
13249TIP3   OH261237   1.327   2.773   0.098  0.3337  0.3829 -0.0147
13249TIP3    H161238   1.239   2.809   0.108  0.1200 -0.0451 -0.3265
13249TIP3    H261239   1.358   2.759   0.188  0.2083  0.8222  0.0994
13250TIP3   OH261240   5.316   3.128  11.454  0.1344  0.1544 -0.3061
13250TIP3    H161241   5.286   3.216  11.475 -0.9498  0.2192 -1.9424
13250TIP3    H261242   5.308   3.122  11.359  0.2676 -1.6861 -0.2337
13251TIP3   OH261243   5.635   3.169   4.184 -0.0026  0.4583 -0.6507
13251TIP3    H161244   5.691   3.120   4.124  1.8759  3.7712 -1.8575
13251TIP3    H261245   5.687   3.178   4.264 -1.0037 -0.7671  0.1927
13252TIP3   OH261246   3.354   3.742   2.788  0.3162 -0.1608  0.3848
13252TIP3    H161247   3.430   3.766   2.841  1.2564 -0.2310 -0.8908
13252TIP3    H261248   3.299   3.821   2.788  1.4656  0.6772 -0.4793
13253TIP3   OH261249   3.107   3.548   3.237  0.0940 -0.1416  0.3120
13253TIP3    H161250   3.035   3.486   3.249  0.1447 -0.3820 -0.5523
13253TIP3    H261251   3.124   3.548   3.142  1.0931  0.0655  0.4755
13254TIP3   OH261252   3.064   1.319  14.067  0.8406  0.4973  0.5009
13254TIP3    H161253   3.054   1.390  14.004  2.6934  0.1183 -0.2955
13254TIP3    H261254   3.134   1.348  14.125  1.2482 -0.4302  0.4909
13255TIP3   OH261255   1.683   0.705   0.414 -0.4469 -0.3184  0.3742
13255TIP3    H161256   1.728   0.663   0.341  0.2224 -2.6800  2.0329
13255TIP3    H261257   1.741   0.692   0.489 -1.2086  1.8184  1.4106
13256TIP3   OH261258   1.321   4.275  11.687  0.1256 -0.5717  0.4332
13256TIP3    H161259   1.230   4.283  11.656  0.3797 -0.9312 -0.4316
13256TIP3    H261260   1.316   4.213  11.760 -0.4507  0.0953  0.9711
13257TIP3   OH261261   0.164   0.507   5.437  0.7627  0.0362  0.3221
13257TIP3    H161262   0.181   0.481   5.527 -1.0976 -3.7117 -0.2201
13257TIP3    H261263   0.232   0.461   5.386 -1.4063 -2.5311 -0.5054
13258TIP3   OH261264   2.107   2.683  14.506 -0.3284  0.2835 -0.4234
13258TIP3    H161265   2.144   2.685  14.418 -1.2810  2.5527 -0.8377
13258TIP3    H261266   2.062   2.767  14.515 -0.8252 -0.1712  1.9928
13259TIP3   OH261267   2.142   6.076   0.804  0.5856  0.2662 -0.4352
13259TIP3    H161268   2.062   6.069   0.752 -0.6968 -2.3030  1.6812
13259TIP3    H261269   2.210   6.039   0.748 -0.4262 -0.9102 -0.9267
13260TIP3   OH261270   5.127   4.053   6.162 -0.3347  0.3307  0.0744
13260TIP3    H161271   5.144   4.068   6.069  3.3841 -0.1483  0.5257
13260TIP3    H261272   5.060   4.117   6.185 -0.3552  1.4000 -2.6080
13261TIP3   OH261273   5.064   3.167  16.868  0.5571  0.4745  0.1526
13261TIP3    H161274   5.154   3.136  16.878  0.4152 -0.0341 -0.1012
13261TIP3    H261275   5.057   3.191  16.776  0.8274  1.8015  0.4628
13262TIP3   OH261276   6.369   2.936  13.127  0.7340 -0.5731 -0.3699
13262TIP3    H161277   6.292   2.921  13.072  1.8595  0.4036 -2.3393
13262TIP3    H261278   6.402   2.848  13.145 -0.3368 -0.9654 -0.2314
13263TIP3   OH261279   2.206   1.008   3.631 -0.2390  0.1001 -0.2684
13263TIP3    H161280   2.295   0.974   3.627 -0.5121 -0.5917 -0.6400
13263TIP3    H261281   2.170   0.994   3.544 -0.0697  2.2470 -0.7507
13264TIP3   OH261282   0.334   6.296  11.886 -0.1125  0.0141 -0.2266
13264TIP3    H161283   0.416   6.344  11.898 -0.7609  0.8828  0.9057
13264TIP3    H261284   0.269   6.364  11.869 -0.5395 -0.6993 -1.6598
13265TIP3   OH261285   0.470   3.242  15.328  0.3353 -0.0139  0.0055
13265TIP3    H161286   0.466   3.170  15.265 -0.1453  0.1485 -0.1512
13265TIP3    H261287   0.464   3.200  15.414  0.7015 -0.2110 -0.0612
13266TIP3   OH261288   5.034   0.612  14.724  0.5263  0.2551  0.0744
13266TIP3    H161289   4.955   0.596  14.673  0.5860  0.3220 -0.0404
13266TIP3    H261290   5.098   0.643  14.660  0.1240  1.9158  0.4288
13267TIP3   OH261291   4.346   6.373  10.649 -0.0068  0.7080 -0.6479
13267TIP3    H161292   4.369   6.298  10.703 -2.6172 -0.7717 -1.3909
13267TIP3    H261293   4.424   6.390  10.595  2.0049  1.0936  2.1791
13268TIP3   OH261294   2.892   3.086  14.334 -0.7085 -0.0772  0.0210
13268TIP3    H161295   2.876   3.154  14.399 -2.6350 -0.0661 -0.4082
13268TIP3    H261296   2.809   3.039  14.328  0.1121 -1.4806 -0.8353
13269TIP3   OH261297   2.073   4.818   5.940 -0.0028  0.1345 -0.0696
13269TIP3    H161298   2.142   4.831   6.005  1.0187  2.1687 -1.4450
13269TIP3    H261299   2.084   4.728   5.910  0.1713 -0.4894  1.7757
13270TIP3   OH261300   2.023   2.847  16.579 -0.4676 -0.2526 -0.0637
13270TIP3    H161301   2.066   2.775  16.626 -0.3703 -1.0761 -1.3719
13270TIP3    H261302   1.958   2.879  16.641 -0.5982 -1.5574  0.5220
13271TIP3   OH261303   0.691   4.875  14.039  0.6325 -0.3680 -0.8207
13271TIP3    H161304   0.786   4.886  14.042  0.8374 -1.7106 -1.8736
13271TIP3    H261305   0.677   4.795  13.989 -1.0912  0.3498 -1.5636
13272TIP3   OH261306   3.538   5.331   5.265 -0.1742 -0.1954  0.1460
13272TIP3    H161307   3.499   5.402   5.316  0.7483 -0.3551  1.0995
13272TIP3    H261308   3.568   5.268   5.330 -0.5404 -1.2498 -0.6718
13273TIP3   OH261309   1.592   1.984  11.768  0.5340 -0.0626  0.1351
13273TIP3    H161310   1.582   2.047  11.696 -1.2363  0.5664  0.8636
13273TIP3    H261311   1.661   1.925  11.739  1.7142  1.7278 -0.9424
13274TIP3   OH261312   1.967   4.075   4.293 -0.1188 -0.5179 -0.2690
13274TIP3    H161313   1.922   4.022   4.359 -2.4692  0.1623 -1.2330
13274TIP3    H261314   1.976   4.016   4.218  0.2122 -0.5204 -0.2267
13275TIP3   OH261315   4.610   2.076   2.131  0.3405  0.2414 -0.4131
13275TIP3    H161316   4.575   2.162   2.109  1.5310  0.8272 -0.0940
13275TIP3    H261317   4.630   2.036   2.046 -2.5827 -0.8159 -0.7237
13276TIP3   OH261318   5.712   5.494   1.462 -0.4386 -0.3568 -0.2175
13276TIP3    H161319   5.784   5.529   1.410  0.2006  0.6628  1.2583
13276TIP3    H261320   5.746   5.413   1.498 -0.8729 -1.0500 -1.3286
13277TIP3   OH261321   0.810   0.241  13.225 -0.6053 -0.1505  0.3277
13277TIP3    H161322   0.885   0.279  13.270  0.1098 -0.4696 -0.5750
13277TIP3    H261323   0.840   0.226  13.136 -1.6321 -0.6162  0.0421
13278TIP3   OH261324   4.247   3.045   0.394 -0.0482 -0.5747 -0.3985
13278TIP3    H161325   4.314   2.980   0.416  1.0392  0.3723 -0.8066
13278TIP3    H261326   4.294   3.128   0.397 -1.2798  0.1321 -0.4713
13279TIP3   OH261327   0.242   1.519  12.860  0.2337 -0.4065 -0.6144
13279TIP3    H161328   0.301   1.562  12.798 -0.0801  0.9565 -0.0221
13279TIP3    H261329   0.245   1.574  12.938 -0.2510 -1.4583  0.1743
13280TIP3   OH261330   1.262   4.273  12.828 -0.4685  0.1764 -0.6257
13280TIP3    H161331   1.271   4.183  12.858  2.1031  0.0702 -1.4337
13280TIP3    H261332   1.190   4.271  12.764 -0.3386 -1.3448 -0.7560
13281TIP3   OH261333   0.158   6.460   2.043 -0.0628  0.0087  0.3291
13281TIP3    H161334   0.110   6.502   1.972 -0.5442 -1.0448 -0.0034
13281TIP3    H261335   0.090   6.420   2.098  0.2827  1.0879  1.5828
13282TIP3   OH261336   6.703   2.622  12.990  0.5299 -0.4663 -0.1084
13282TIP3    H161337   6.770   2.688  12.973  1.2836 -0.7845  1.4333
13282TIP3    H261338   6.721   2.591  13.079 -0.7868 -1.6032 -0.1900
13283TIP3   OH261339   3.854   5.960  11.796 -0.1840  0.3718  0.1511
13283TIP3    H161340   3.876   5.871  11.769  1.0937  0.8972 -0.6090
13283TIP3    H261341   3.822   6.002  11.716 -0.4277  0.7151  0.4235
13284TIP3   OH261342   6.402   2.904  17.176  0.3795 -0.0077  0.0998
13284TIP3    H161343   6.344   2.835  17.143  0.0452  1.1679 -1.9132
13284TIP3    H261344   6.342   2.967  17.217  0.7933 -1.5203  3.3668
13285TIP3   OH261345   0.369   0.613   1.870 -1.1713  0.2646  0.0592
13285TIP3    H161346   0.398   0.703   1.855 -2.4077  0.8066  0.7852
13285TIP3    H261347   0.431   0.559   1.820 -1.0434  1.5680 -1.2521
13286TIP3   OH261348   1.954   1.394   4.653 -0.4782 -0.2990 -0.3325
13286TIP3    H161349   1.949   1.303   4.622 -0.9767 -0.8259  1.2086
13286TIP3    H261350   1.913   1.392   4.739 -0.7694  1.4673 -0.4017
13287TIP3   OH261351   2.135   2.300  14.580  0.3399 -0.2754 -0.5608
13287TIP3    H161352   2.187   2.379  14.564  1.0450 -0.5524  0.2840
13287TIP3    H261353   2.160   2.240  14.510  1.3761 -0.5041 -0.0107
13288TIP3   OH261354   6.686   4.244  14.326  0.2069  0.1983 -0.2003
13288TIP3    H161355   6.667   4.286  14.243  3.1801 -0.1602 -1.1722
13288TIP3    H261356   6.777   4.216  14.319  0.2497 -0.8004  2.7914
13289TIP3   OH261357   2.636   1.839   4.444  0.4959 -0.4735 -0.8773
13289TIP3    H161358   2.701   1.873   4.505 -1.0592 -0.4705  0.8596
13289TIP3    H261359   2.555   1.834   4.495 -1.4147  1.3833 -3.4087
13290TIP3   OH261360   4.513   4.526  17.006 -0.4974 -0.2053  0.0055
13290TIP3    H161361   4.429   4.486  17.025  0.0317 -1.9576 -1.0984
13290TIP3    H261362   4.550   4.473  16.935  2.1013 -0.3297  1.3123
13291TIP3   OH261363   1.407   2.222   3.716 -0.2512 -0.0127 -0.5018
13291TIP3    H161364   1.481   2.274   3.748 -0.6122  0.7899 -0.9451
13291TIP3    H261365   1.426   2.133   3.746 -0.5999  0.6781  1.9889
13292TIP3   OH261366   1.240   1.121   4.590  0.3004  0.0013  0.3954
13292TIP3    H161367   1.318   1.077   4.555  1.3360  2.1448 -0.1974
13292TIP3    H261368   1.218   1.072   4.669  1.5850 -1.3469 -0.0360
13293TIP3   OH261369   5.524   3.931   1.522  1.0634  0.5671 -0.2203
13293TIP3    H161370   5.525   3.905   1.614 -0.9650  1.3253  0.0546
13293TIP3    H261371   5.551   3.852   1.475  3.4546  0.5277  1.0343
13294TIP3   OH261372   0.150   1.402  12.569  0.0332  0.3243 -0.1443
13294TIP3    H161373   0.152   1.453  12.649  0.5938 -0.7447  0.5364
13294TIP3    H261374   0.180   1.463  12.501  0.0212  1.0929  0.5241
13295TIP3   OH261375   1.684   3.283  12.343 -0.2284  0.0992  0.2951
13295TIP3    H161376   1.621   3.329  12.398 -1.6018 -0.4597 -0.7619
13295TIP3    H261377   1.683   3.193  12.375 -1.8876 -0.5087 -1.2784
13296TIP3   OH261378   5.375   1.597   2.739 -0.3553  0.7898  0.0464
13296TIP3    H161379   5.364   1.661   2.810  0.6913  1.0254  0.0152
13296TIP3    H261380   5.291   1.597   2.693 -0.7873  1.2076  0.8135
13297TIP3   OH261381   0.555   0.660   0.997  0.0001  0.4589  0.5925
13297TIP3    H161382   0.545   0.674   0.903 -0.5222 -0.1112  0.5592
13297TIP3    H261383   0.649   0.672   1.012  0.2265 -0.2268 -0.1440
13298TIP3   OH261384   3.787   4.087  12.659  0.3019 -0.6606  0.3140
13298TIP3    H161385   3.768   4.041  12.741 -0.1309  0.8991  1.1073
13298TIP3    H261386   3.702   4.117  12.628  0.2091 -2.6881 -1.6525
13299TIP3   OH261387   2.394   2.101   0.805  0.1153  0.2163  0.6271
13299TIP3    H161388   2.420   2.086   0.714 -0.8220  0.2365  0.3478
13299TIP3    H261389   2.463   2.159   0.839  0.2877  0.5101 -0.1771
13300TIP3   OH261390   5.440   5.399   3.469 -0.2006 -0.1746 -0.3245
13300TIP3    H161391   5.453   5.310   3.437 -1.2015 -0.3049 -0.3897
13300TIP3    H261392   5.345   5.407   3.480  0.0280  0.0903  1.9494
13301TIP3   OH261393   2.067   2.363   3.604  0.4925 -0.4389  0.3512
13301TIP3    H161394   2.114   2.310   3.669 -0.6299 -1.3565  0.4645
13301TIP3    H261395   1.975   2.359   3.633  0.4823  2.6045  1.0576
13302TIP3   OH261396   4.910   5.488  12.053  0.2455  0.1178 -0.4486
13302TIP3    H161397   4.938   5.571  12.014  0.9169 -0.9173 -2.2963
13302TIP3    H261398   4.822   5.473  12.019  0.3833 -0.2362 -0.6593
13303TIP3   OH261399   3.956   1.895   2.064 -0.2117  0.0997 -0.4454
13303TIP3    H161400   3.920   1.915   2.151 -0.7010  1.2900 -0.8959
13303TIP3    H261401   3.895   1.937   2.003  0.5592 -0.0532 -1.3364
13304TIP3   OH261402   5.020   4.160   3.910  0.1251 -0.4642 -0.5967
13304TIP3    H161403   5.038   4.105   3.986  0.1423  0.5840  0.1815
13304TIP3    H261404   4.929   4.185   3.920  0.1824 -0.1638 -0.8217
13305TIP3   OH261405   0.472   5.789   2.266  0.2579 -0.1326  0.4452
13305TIP3    H161406   0.524   5.867   2.282 -1.8186  1.3940  0.2206
13305TIP3    H261407   0.448   5.757   2.353  0.4364 -0.0290  0.5321
13306TIP3   OH261408   2.419   2.212   5.250 -0.0688 -0.3041  0.5173
13306TIP3    H161409   2.430   2.156   5.327 -2.0925 -0.3222  0.8435
13306TIP3    H261410   2.456   2.160   5.178  0.5892 -0.8702  1.2390
13307TIP3   OH261411   2.698   5.654  13.799 -0.1891 -0.1010 -0.1909
13307TIP3    H161412   2.608   5.626  13.817 -0.1147  0.2609  0.8283
13307TIP3    H261413   2.715   5.624  13.710 -1.8579  1.1372 -0.9879
13308TIP3   OH261414   1.925   0.432   0.884  0.5937 -0.1138 -0.6040
13308TIP3    H161415   1.975   0.351   0.872  0.9286 -0.0792  0.4519
13308TIP3    H261416   1.840   0.415   0.844  1.2021 -0.4215 -1.8046
13309TIP3   OH261417   1.190   0.991  16.389  0.0322 -0.1330 -0.3286
13309TIP3    H161418   1.184   1.079  16.353 -1.4457 -1.3743 -3.4980
13309TIP3    H261419   1.100   0.959  16.392  0.5217 -1.5200  0.8640
13310TIP3   OH261420   6.367   1.336   0.639  0.6160  0.2968  0.2436
13310TIP3    H161421   6.271   1.326   0.643  0.7977 -1.4579  2.1007
13310TIP3    H261422   6.384   1.368   0.551 -1.6623  0.4322 -0.2212
13311TIP3   OH261423   4.301   3.999  16.086  0.0800 -0.1797  0.5689
13311TIP3    H161424   4.383   3.959  16.117 -0.2024 -2.5460 -1.3570
13311TIP3    H261425   4.329   4.060  16.018  0.2859 -0.5259  0.3403
13312TIP3   OH261426   0.385   0.891  13.092  0.1000 -0.0917 -0.6665
13312TIP3    H161427   0.303   0.937  13.108 -0.0268 -0.8297  1.0605
13312TIP3    H261428   0.424   0.936  13.017 -1.5076  0.7518 -1.0415
13313TIP3   OH261429   4.237   0.153   4.044 -0.4352  0.0038 -0.2614
13313TIP3    H161430   4.264   0.062   4.060 -1.0709 -0.4375 -1.5729
13313TIP3    H261431   4.170   0.146   3.976 -0.1060  1.4996 -0.7669
13314TIP3   OH261432   5.935   2.544   4.650 -0.8802  0.2377 -0.0221
13314TIP3    H161433   5.863   2.565   4.591 -0.7836 -0.4551 -0.4027
13314TIP3    H261434   5.992   2.486   4.599 -0.4501  0.1608  0.5305
13315TIP3   OH261435   1.335   3.832   1.152  0.2822 -0.2511  0.1353
13315TIP3    H161436   1.333   3.739   1.126  0.8748 -0.6717  1.5087
13315TIP3    H261437   1.392   3.834   1.229  0.8378  1.3701 -0.2812
13316TIP3   OH261438   3.134   3.901   4.147  0.1564 -0.1264  0.2583
13316TIP3    H161439   3.154   3.942   4.231  0.8891  1.2285 -0.5358
13316TIP3    H261440   3.203   3.933   4.089 -1.1780  0.1793 -1.2226
13317TIP3   OH261441   1.598   3.244  14.420  0.1889  0.6775 -0.5451
13317TIP3    H161442   1.632   3.172  14.472  0.3476 -0.1955 -1.8034
13317TIP3    H261443   1.569   3.308  14.484  0.5193 -0.2791  0.6043
13318TIP3   OH261444   2.834   0.255   6.367 -1.2372 -0.6253  0.2819
13318TIP3    H161445   2.742   0.231   6.367 -1.5106  0.3632  0.5866
13318TIP3    H261446   2.870   0.213   6.446 -1.9888  0.9033  1.5040
13319TIP3   OH261447   3.189   2.302  12.704 -0.5285 -0.4012 -0.0249
13319TIP3    H161448   3.157   2.366  12.641  0.3863 -0.3051 -0.4117
13319TIP3    H261449   3.219   2.228  12.651  1.5268  0.2291  0.1455
13320TIP3   OH261450   0.223   6.589   4.480 -0.1220 -0.0644 -0.1029
13320TIP3    H161451   0.271   6.527   4.535 -0.1767  0.8235  0.9674
13320TIP3    H261452   0.242   6.561   4.390 -0.2947 -1.7406  0.3443
13321TIP3   OH261453   5.652   5.986  16.419 -0.7558 -0.2559  0.4826
13321TIP3    H161454   5.643   5.958  16.328  2.6312 -1.3336  0.3467
13321TIP3    H261455   5.611   5.917  16.470 -2.1145  0.0404 -0.1713
13322TIP3   OH261456   1.296   0.758  16.253 -0.2413  0.1824  0.4870
13322TIP3    H161457   1.378   0.776  16.207 -1.2058 -0.5544 -1.6594
13322TIP3    H261458   1.295   0.820  16.325  1.7253  0.9006 -0.0368
13323TIP3   OH261459   2.488   6.220   3.361  0.5509  0.5739  0.3654
13323TIP3    H161460   2.409   6.272   3.378  0.6432  0.8727 -0.0889
13323TIP3    H261461   2.496   6.163   3.438 -1.2188 -0.8765 -0.4327
13324TIP3   OH261462   2.734   2.975  12.189  0.1356 -0.0556 -0.1745
13324TIP3    H161463   2.733   2.947  12.281  0.4825 -2.6922 -0.8962
13324TIP3    H261464   2.642   2.992  12.169 -0.1361 -0.9392  0.2671
13325TIP3   OH261465   5.270   2.685   5.236 -0.2638  0.5921  0.3769
13325TIP3    H161466   5.176   2.666   5.235 -0.0047 -0.7896 -0.2182
13325TIP3    H261467   5.283   2.746   5.163 -0.6414  0.4923  0.2225
13326TIP3   OH261468   4.455   0.629  16.727 -0.3669 -0.0497 -0.1204
13326TIP3    H161469   4.437   0.700  16.789 -1.4979  1.2835 -1.8849
13326TIP3    H261470   4.515   0.668  16.663 -0.0649 -1.0577 -0.4650
13327TIP3   OH261471   5.764   4.357   4.815  0.2610 -0.0564 -0.1141
13327TIP3    H161472   5.822   4.325   4.747  1.2380  0.5582  0.4138
13327TIP3    H261473   5.818   4.358   4.894 -0.4028  0.7137  0.3463
13328TIP3   OH261474   2.788   6.723  15.972 -0.6420 -0.9036 -0.1876
13328TIP3    H161475   2.876   6.685  15.966 -0.8427 -1.3831 -0.0757
13328TIP3    H261476   2.753   6.715  15.883  0.4331  1.7687 -0.9733
13329TIP3   OH261477   1.473   1.131  11.096 -0.4567  0.2342 -0.4150
13329TIP3    H161478   1.484   1.038  11.116 -0.5405  0.8017  2.7544
13329TIP3    H261479   1.553   1.155  11.047 -1.2995 -1.8104 -3.0199
13330TIP3   OH261480   4.130   1.777   4.612 -0.1320  0.3202 -0.2342
13330TIP3    H161481   4.088   1.704   4.657  0.7521  0.1355  0.3098
13330TIP3    H261482   4.127   1.753   4.519 -2.1504  0.7978 -0.3468
13331TIP3   OH261483   3.950   2.147   4.357 -0.0009 -0.3927  0.3515
13331TIP3    H161484   3.945   2.223   4.414  1.6031  0.3083 -0.3651
13331TIP3    H261485   3.933   2.072   4.415 -3.1111  0.5304  0.7812
13332TIP3   OH261486   5.281   3.767  15.375 -0.0799 -0.1237  0.6421
13332TIP3    H161487   5.216   3.780  15.444  0.3473  1.1103  0.8412
13332TIP3    H261488   5.295   3.854  15.338 -1.1549 -0.9055 -1.8165
13333TIP3   OH261489   5.878   0.940  11.232  0.3076  0.3843 -0.1270
13333TIP3    H161490   5.925   0.859  11.212 -1.2458 -0.6941  0.3947
13333TIP3    H261491   5.907   0.964  11.320  1.7957  1.1830 -0.8083
13334TIP3   OH261492   0.065   2.260  13.747  0.0941 -0.3615 -0.4464
13334TIP3    H161493   0.085   2.307  13.828  0.4877 -0.8369 -0.2550
13334TIP3    H261494   0.147   2.215  13.725 -0.9396 -3.0636  0.8268
13335TIP3   OH261495   1.897   3.040   5.211  0.5370 -0.2048  0.2621
13335TIP3    H161496   1.944   3.078   5.137  0.3909  1.3929  0.9393
13335TIP3    H261497   1.910   3.103   5.282 -0.4803 -1.0085  1.1959
13336TIP3   OH261498   2.239   2.290  12.257  0.1235 -0.0927 -0.4972
13336TIP3    H161499   2.246   2.385  12.244 -0.1832  0.0754  0.4853
13336TIP3    H261500   2.264   2.277  12.349 -2.6943 -0.6175  0.2623
13337TIP3   OH261501   4.019   2.814  15.638 -0.1174  0.0205 -0.5920
13337TIP3    H161502   4.006   2.898  15.593  0.6864  0.2531 -0.4102
13337TIP3    H261503   4.091   2.772  15.590  0.4965  0.1099  0.2248
13338TIP3   OH261504   0.519   2.766  15.842  0.5539  0.6445 -0.8199
13338TIP3    H161505   0.579   2.840  15.845  0.4265  0.7903 -1.6358
13338TIP3    H261506   0.437   2.803  15.811  0.5503  0.1227 -1.4541
13339TIP3   OH261507   5.003   3.711   3.816 -0.0248  0.3027  0.3320
13339TIP3    H161508   5.061   3.746   3.884 -1.0003  1.8192  0.4367
13339TIP3    H261509   4.974   3.626   3.850 -0.9864  1.3000  2.1370
13340TIP3   OH261510   4.381   2.423  14.579  0.3442  0.4329  0.1085
13340TIP3    H161511   4.399   2.505  14.533  0.6692  0.4619  0.2836
13340TIP3    H261512   4.286   2.422  14.589  0.4204  1.2962  1.0308
13341TIP3   OH261513   5.039   1.364  11.732  0.1243  0.0770  0.0754
13341TIP3    H161514   5.095   1.361  11.809 -1.6808  1.0672  1.5022
13341TIP3    H261515   4.960   1.316  11.758 -1.7646  2.9136 -0.0323
13342TIP3   OH261516   1.261   5.019   5.814  0.4475 -0.2056 -0.0481
13342TIP3    H161517   1.230   5.109   5.819  2.0535  0.3487  0.4952
13342TIP3    H261518   1.221   4.985   5.734  1.5682  1.7203 -1.5200
13343TIP3   OH261519   5.696   3.361  11.082  0.4464 -0.5826 -0.1457
13343TIP3    H161520   5.709   3.267  11.069  0.7307 -0.3556 -1.6387
13343TIP3    H261521   5.605   3.376  11.055  1.0877 -0.0830 -2.2184
13344TIP3   OH261522   5.663   6.179  12.001 -0.1495 -0.0421 -0.3238
13344TIP3    H161523   5.719   6.137  12.067 -1.1493 -0.5964  0.2042
13344TIP3    H261524   5.597   6.113  11.981  1.0011 -0.4890 -3.0558
13345TIP3   OH261525   6.807   6.821   2.096 -0.2527 -0.1529  0.0789
13345TIP3    H161526   6.789   6.800   2.004  1.8316 -1.7630 -0.0209
13345TIP3    H261527   6.769   6.747   2.144  1.8193 -1.1923  0.1954
13346TIP3   OH261528   3.437   5.462  17.252 -0.5689  0.2945 -0.0592
13346TIP3    H161529   3.404   5.429  17.168 -1.8967  0.5255  0.3515
13346TIP3    H261530   3.495   5.392  17.283  0.0217  0.2523 -1.2067
13347TIP3   OH261531   2.894   5.980  16.129 -0.5515 -0.2920  0.6907
13347TIP3    H161532   2.802   6.006  16.133 -0.1721  1.0408  1.3425
13347TIP3    H261533   2.930   6.032  16.056  0.8638  3.4764  3.7114
13348TIP3   OH261534   4.431   4.545   3.280 -0.4363  0.0495 -0.3214
13348TIP3    H161535   4.490   4.582   3.214 -1.1882  1.0666 -0.4599
13348TIP3    H261536   4.447   4.451   3.277  0.3605  0.1948 -1.1475
13349TIP3   OH261537   1.628   0.970  13.605 -0.3592  0.3379  0.0742
13349TIP3    H161538   1.720   0.988  13.625 -0.6663  0.6472  1.2973
13349TIP3    H261539   1.619   0.875  13.618 -0.2531  0.3307  0.0970
13350TIP3   OH261540   2.490   3.465  11.119 -0.5275 -0.0316  0.0651
13350TIP3    H161541   2.450   3.394  11.069 -2.4204  1.1192 -0.1523
13350TIP3    H261542   2.551   3.507  11.058  0.8568 -1.6172  0.3007
13351TIP3   OH261543   1.842   1.214   5.733 -0.3082  0.3800 -0.0528
13351TIP3    H161544   1.811   1.244   5.818  0.2578 -0.5966  0.5224
13351TIP3    H261545   1.880   1.291   5.692  0.9701  0.5080  1.3061
13352TIP3   OH261546   0.254   4.931  12.500  0.0270  0.0205  0.3118
13352TIP3    H161547   0.254   4.882  12.583  2.7436  3.0349  2.3005
13352TIP3    H261548   0.326   4.893  12.450  1.4662  1.2042  1.4168
13353TIP3   OH261549   5.934   0.694   1.868 -0.5059 -0.1213  0.1222
13353TIP3    H161550   6.004   0.692   1.803  0.9105  0.1416  1.5428
13353TIP3    H261551   5.864   0.745   1.828 -0.3752 -1.3948 -1.8071
13354TIP3   OH261552   3.042   1.454  12.157 -0.2124 -0.3213  0.1974
13354TIP3    H161553   3.114   1.489  12.105 -0.8540  0.5774 -0.1105
13354TIP3    H261554   2.976   1.523  12.156 -0.5646 -0.6176  1.5422
13355TIP3   OH261555   0.981   4.750  15.913  0.3145  0.5847  0.9344
13355TIP3    H161556   0.945   4.779  15.997  0.3090 -0.9987  1.5243
13355TIP3    H261557   0.988   4.655  15.922  1.0718  0.4668 -0.5775
13356TIP3   OH261558   0.209   6.190   1.170 -0.3778  0.9999  0.3166
13356TIP3    H161559   0.115   6.196   1.188 -0.2014  0.5125  1.5205
13356TIP3    H261560   0.245   6.151   1.250  0.6909  0.0638 -0.6081
13357TIP3   OH261561   6.528   0.357  12.105  0.2357  0.0188  0.1004
13357TIP3    H161562   6.557   0.439  12.144  0.0467  0.0515  0.1761
13357TIP3    H261563   6.599   0.332  12.045  0.1966  0.3552 -0.0920
13358TIP3   OH261564   5.649   2.896   5.625  0.3213 -0.2303  0.9853
13358TIP3    H161565   5.565   2.910   5.670  0.5282  0.4197  1.1743
13358TIP3    H261566   5.625   2.849   5.545 -0.4160  1.2828  0.2748
13359TIP3   OH261567   1.611   2.387   3.258 -0.6535 -0.2013 -0.0604
13359TIP3    H161568   1.632   2.303   3.297  1.7928  1.2591  2.1080
13359TIP3    H261569   1.682   2.445   3.286 -1.2483  2.1913 -2.9393
13360TIP3   OH261570   5.419   1.633   3.505 -0.0055 -0.6222 -0.0869
13360TIP3    H161571   5.411   1.560   3.444 -0.6916 -1.2377  0.7108
13360TIP3    H261572   5.407   1.711   3.452  1.5757 -1.0262 -1.1089
13361TIP3   OH261573   0.470   0.657   6.710 -0.2217 -0.0712 -0.4681
13361TIP3    H161574   0.385   0.635   6.672  0.3900  0.1137 -1.9746
13361TIP3    H261575   0.450   0.728   6.772 -1.1070  0.2969 -1.1482
13362TIP3   OH261576   2.078   3.748   5.280  0.0571  0.0888 -0.1131
13362TIP3    H161577   2.149   3.685   5.279 -0.5696 -0.7394  1.8746
13362TIP3    H261578   2.070   3.778   5.189  2.3184 -0.4501 -0.5284
13363TIP3   OH261579   0.949   2.883   6.338  0.8063  0.0248  0.0254
13363TIP3    H161580   0.953   2.807   6.280 -0.2038 -1.1479  1.4144
13363TIP3    H261581   0.880   2.938   6.301 -0.1421 -0.9296  0.3147
13364TIP3   OH261582   6.055   3.176   0.396  0.2227 -0.5677 -0.1484
13364TIP3    H161583   6.106   3.166   0.315  0.1778  0.9997 -0.4041
13364TIP3    H261584   6.105   3.238   0.448 -1.6835  1.5809 -0.7031
13365TIP3   OH261585   0.706   1.896  14.147  0.4089  0.4895 -0.2728
13365TIP3    H161586   0.733   1.968  14.091  0.4210 -0.6079 -1.7256
13365TIP3    H261587   0.615   1.879  14.123  0.6775 -0.5558 -0.6175
13366TIP3   OH261588   6.636   1.847  11.132 -0.1003 -0.7251 -0.0325
13366TIP3    H161589   6.629   1.929  11.084 -0.0503 -0.7924 -0.1567
13366TIP3    H261590   6.590   1.783  11.076 -0.8200 -0.6228  0.4340
13367TIP3   OH261591   5.556   5.834  13.869 -0.0908 -0.7953 -0.1019
13367TIP3    H161592   5.623   5.889  13.829  1.0489 -0.4621  2.0654
13367TIP3    H261593   5.499   5.895  13.916 -0.2644 -1.2706  0.3185
13368TIP3   OH261594   4.107   4.031   1.656 -0.3247  0.1091  0.0274
13368TIP3    H161595   4.182   4.028   1.597 -0.4350  0.6894 -0.1480
13368TIP3    H261596   4.143   4.009   1.742  0.4160  2.1509  0.2944
13369TIP3   OH261597   4.916   5.418   0.458  0.2405 -0.1136  0.6179
13369TIP3    H161598   4.997   5.469   0.462 -0.1024  0.4814  0.2281
13369TIP3    H261599   4.847   5.484   0.449 -0.1993 -0.6609 -0.1507
13370TIP3   OH261600   1.218   1.020   3.150  0.2020 -0.1592  0.8611
13370TIP3    H161601   1.210   0.933   3.111  0.0346  0.3034 -0.1653
13370TIP3    H261602   1.282   1.065   3.096 -3.4179  2.1163 -1.9878
13371TIP3   OH261603   3.512   6.710   5.131  0.3733 -0.2956 -0.0936
13371TIP3    H161604   3.501   6.752   5.046  1.1217 -0.9204 -0.5128
13371TIP3    H261605   3.432   6.659   5.144 -0.5412  1.1980  0.4132
13372TIP3   OH261606   3.118   2.894  15.776 -0.2385 -0.1932 -0.2344
13372TIP3    H161607   3.195   2.845  15.805  0.6255  0.9909 -0.4548
13372TIP3    H261608   3.084   2.936  15.855 -0.2190 -0.1232 -0.2636
13373TIP3   OH261609   5.985   4.317   4.260 -0.2349 -0.2019 -0.0688
13373TIP3    H161610   5.893   4.306   4.285 -0.5465  2.0292  0.0304
13373TIP3    H261611   5.996   4.261   4.183 -1.2952 -1.5027  0.6905
13374TIP3   OH261612   4.151   6.510   3.856  0.3306  0.2401 -0.3791
13374TIP3    H161613   4.195   6.578   3.804  0.6112  1.1461  0.9940
13374TIP3    H261614   4.059   6.538   3.858  0.2122 -0.0965 -0.8254
13375TIP3   OH261615   1.599   5.591   0.187  0.1822 -0.0679 -1.1031
13375TIP3    H161616   1.620   5.526   0.253  0.6605  0.7882 -0.3948
13375TIP3    H261617   1.511   5.568   0.157 -0.8430  0.6082  1.1896
13376TIP3   OH261618   5.669   6.295  12.276  0.3039 -0.9986 -0.1801
13376TIP3    H161619   5.617   6.295  12.195  0.8551 -0.9721 -0.5362
13376TIP3    H261620   5.731   6.224  12.264 -1.4040 -2.8748  1.4010
13377TIP3   OH261621   4.518   0.355  11.885  0.0218 -0.3510 -0.0422
13377TIP3    H161622   4.574   0.429  11.861  0.8457 -1.1955 -0.7808
13377TIP3    H261623   4.467   0.387  11.960  1.0768  0.6212  0.2865
13378TIP3   OH261624   4.086   3.899   2.487  0.3113 -0.1686  0.0203
13378TIP3    H161625   4.019   3.861   2.543  0.0315  0.7680  0.3306
13378TIP3    H261626   4.048   3.981   2.456  0.5457 -0.5683 -1.3745
13379TIP3   OH261627   3.776   5.860   3.247  0.0004 -0.6576 -0.2422
13379TIP3    H161628   3.811   5.912   3.319 -2.7339 -2.3756  2.5673
13379TIP3    H261629   3.723   5.922   3.197 -0.7955 -0.0481  1.2792
13380TIP3   OH261630   0.351   4.303   3.154 -0.4099  0.1052 -1.0170
13380TIP3    H161631   0.258   4.326   3.154 -0.4843 -0.1490  0.5104
13380TIP3    H261632   0.353   4.207   3.151 -0.1825  0.1177 -1.3976
13381TIP3   OH261633   3.447   1.617   4.534 -0.2473 -0.5955 -0.4516
13381TIP3    H161634   3.495   1.617   4.617 -1.3921  0.3922  0.2268
13381TIP3    H261635   3.502   1.668   4.475 -1.0454  1.7788  0.7193
13382TIP3   OH261636   3.913   0.215  15.815  0.2343 -0.3245 -0.0743
13382TIP3    H161637   3.969   0.290  15.832  0.8494  0.0840 -3.2969
13382TIP3    H261638   3.844   0.221  15.880  0.7034  2.5803  0.2628
13383TIP3   OH261639   4.035   2.157   2.231  0.2582  0.2070 -0.2035
13383TIP3    H161640   3.975   2.085   2.252  1.7262 -1.2611 -0.8087
13383TIP3    H261641   4.059   2.193   2.316 -0.2709 -0.1981  0.1300
13384TIP3   OH261642   4.676   0.886  11.788  0.9690  0.4076 -0.1406
13384TIP3    H161643   4.715   0.841  11.863  1.1160 -0.9868 -1.0288
13384TIP3    H261644   4.582   0.866  11.794  1.2011 -1.1466 -1.2523
13385TIP3   OH261645   4.873   0.170  13.345  0.2627  0.4409 -0.4169
13385TIP3    H161646   4.809   0.240  13.356  0.1749  0.4126 -0.7437
13385TIP3    H261647   4.878   0.157  13.251 -0.1563 -0.3967 -0.3333
13386TIP3   OH261648   2.514   1.139  12.166 -0.2411  0.2624 -0.4182
13386TIP3    H161649   2.601   1.172  12.144 -0.0865 -0.1157 -0.3796
13386TIP3    H261650   2.529   1.051  12.198 -0.4334  0.8244  1.3260
13387TIP3   OH261651   1.226   2.491   3.035  0.0975 -0.1596 -0.2721
13387TIP3    H161652   1.138   2.455   3.048 -0.2043  0.2955 -1.0088
13387TIP3    H261653   1.224   2.530   2.947  0.6561  0.9571  0.1924
13388TIP3   OH261654   3.666   6.613  16.772  0.3668 -0.6464  0.0957
13388TIP3    H161655   3.598   6.667  16.732  2.3031  0.2270 -2.2446
13388TIP3    H261656   3.676   6.649  16.860 -1.2811  0.0240  0.0401
13389TIP3   OH261657   0.201   4.586  13.177  0.2608  0.5060 -0.2980
13389TIP3    H161658   0.108   4.581  13.153  0.0665 -1.0121  0.6405
13389TIP3    H261659   0.203   4.642  13.254 -0.2404 -1.3567  1.1419
13390TIP3   OH261660   4.223   3.386   2.036  0.2656  0.5815 -0.0218
13390TIP3    H161661   4.267   3.458   1.991 -1.7308  0.3607 -2.5759
13390TIP3    H261662   4.246   3.308   1.985 -0.2399 -0.0745  0.7289
13391TIP3   OH261663   5.885   1.202  11.821 -0.8081  0.4530 -0.8108
13391TIP3    H161664   5.858   1.274  11.764 -1.5062  0.7481 -0.1249
13391TIP3    H261665   5.970   1.176  11.787 -1.6806 -0.1571 -2.7386
13392TIP3   OH261666   1.063   5.304  13.000 -0.1611  0.2038  0.3293
13392TIP3    H161667   1.019   5.277  12.920  0.9309 -0.1336 -0.1720
13392TIP3    H261668   1.099   5.391  12.981  2.1200 -0.8220 -0.4101
13393TIP3   OH261669   5.026   6.562  11.742 -0.2868  0.3065  0.1777
13393TIP3    H161670   5.025   6.467  11.754  0.8765  0.2772  0.1512
13393TIP3    H261671   4.974   6.596  11.815 -0.2644 -0.3195  0.4915
13394TIP3   OH261672   5.644   2.963   3.420 -0.0628 -0.0024 -0.1357
13394TIP3    H161673   5.632   2.874   3.454 -1.1864  0.1422 -0.1121
13394TIP3    H261674   5.580   3.016   3.468  1.5342  1.1085  0.8534
13395TIP3   OH261675   2.119   4.643   4.945  0.8148 -0.4714 -0.9531
13395TIP3    H161676   2.070   4.577   4.896  0.9233 -0.7600 -0.6769
13395TIP3    H261677   2.210   4.631   4.918  1.2179 -2.0748  0.8708
13396TIP3   OH261678   1.275   3.346  13.703  0.8429 -0.1496  0.6907
13396TIP3    H161679   1.269   3.255  13.733  0.1566 -0.0360  0.8983
13396TIP3    H261680   1.368   3.368  13.713  0.8700 -0.5651  1.4308
13397TIP3   OH261681   0.114   6.477  16.978 -0.1505 -0.2303  0.5688
13397TIP3    H161682   0.205   6.467  17.006 -0.4470 -0.5546  1.4518
13397TIP3    H261683   0.103   6.570  16.962  0.6467 -0.3263 -0.6534
13398TIP3   OH261684   3.393   6.288   3.166 -0.5764  0.2182 -0.5544
13398TIP3    H161685   3.342   6.333   3.100 -0.6978  0.5774 -0.2201
13398TIP3    H261686   3.362   6.197   3.163  1.6273 -0.5727 -3.1991
13399TIP3   OH261687   4.566   0.150  12.426  0.0828  0.0512  0.2053
13399TIP3    H161688   4.505   0.099  12.372  0.4371  0.0153 -0.1603
13399TIP3    H261689   4.645   0.156  12.374  0.5039 -0.1572  0.8030
13400TIP3   OH261690   0.918   6.554   0.995 -0.0024 -0.4774 -0.0049
13400TIP3    H161691   0.918   6.574   0.901  0.2732 -0.6927 -0.0541
13400TIP3    H261692   0.953   6.464   1.000  1.7296  0.1774  0.4243
13401TIP3   OH261693   3.610   0.273   1.790  0.1738 -0.5609 -0.0035
13401TIP3    H161694   3.543   0.263   1.722  1.1084 -0.3804 -0.9720
13401TIP3    H261695   3.660   0.192   1.787 -1.5312 -1.8378  2.5045
13402TIP3   OH261696   1.703   6.125   3.954  0.2718 -0.0512 -0.4638
13402TIP3    H161697   1.698   6.136   3.859  1.3732  0.1942 -0.5071
13402TIP3    H261698   1.612   6.130   3.983 -0.0910 -0.2434 -1.5150
13403TIP3   OH261699   5.951   6.207   1.423  0.0789  0.1205  0.7598
13403TIP3    H161700   5.926   6.299   1.421 -0.8500 -0.0793  2.0441
13403TIP3    H261701   5.949   6.184   1.516 -1.3424 -1.6199  0.3438
13404TIP3   OH261702   0.431   0.355   1.459 -0.4126 -0.0368 -0.4143
13404TIP3    H161703   0.400   0.319   1.543 -2.2858 -0.0637 -1.0645
13404TIP3    H261704   0.417   0.449   1.466  2.0473  0.3290  0.3043
13405TIP3   OH261705   4.957   3.519  13.949 -0.1386 -0.2014 -0.0064
13405TIP3    H161706   4.882   3.491  14.003  1.5597 -1.0624  2.0576
13405TIP3    H261707   4.919   3.536  13.862 -2.4797 -2.0768  0.5376
13406TIP3   OH261708   5.801   4.832   6.143  0.3044  0.0801 -0.2786
13406TIP3    H161709   5.847   4.896   6.089  0.2279  0.5027  0.1577
13406TIP3    H261710   5.841   4.840   6.229  1.1706 -1.3395 -0.5146
13407TIP3   OH261711   5.775   3.413   2.701  0.4646 -0.1434  0.3933
13407TIP3    H161712   5.864   3.399   2.670  0.7506 -1.0903  1.5837
13407TIP3    H261713   5.781   3.486   2.762  0.3822 -0.0473  0.2870
13408TIP3   OH261714   1.564   0.260   0.512 -0.3319 -0.0758 -0.0598
13408TIP3    H161715   1.519   0.209   0.445 -2.4514 -0.3234  1.4646
13408TIP3    H261716   1.516   0.242   0.593  0.7313  1.9922  1.1161
13409TIP3   OH261717   4.226   1.966  11.260 -0.2498  0.0406  0.0383
13409TIP3    H161718   4.171   1.889  11.276  1.1020 -1.0805 -0.4920
13409TIP3    H261719   4.255   1.956  11.169  0.0434  1.1174  0.0016
13410TIP3   OH261720   4.689   4.682  10.931  0.1488  0.6368 -0.1969
13410TIP3    H161721   4.613   4.627  10.946  1.1657 -0.9773 -0.6964
13410TIP3    H261722   4.691   4.695  10.836  1.3997 -0.7582 -0.3937
13411TIP3   OH261723   3.608   6.386  11.655  0.0690 -0.6264  0.1273
13411TIP3    H161724   3.615   6.339  11.738  0.0770  1.1999  1.2127
13411TIP3    H261725   3.574   6.321  11.593 -1.3976 -1.6461  1.9219
13412TIP3   OH261726   1.085   2.411   4.980 -0.0535  0.2400  0.5743
13412TIP3    H161727   1.119   2.414   5.069  0.5432  1.5186  0.3324
13412TIP3    H261728   1.025   2.486   4.975 -0.7310 -0.3164  0.1486
13413TIP3   OH261729   4.469   2.098  16.463 -0.5239 -0.3257 -0.5091
13413TIP3    H161730   4.411   2.043  16.517 -1.8366 -0.3527 -1.8849
13413TIP3    H261731   4.490   2.172  16.519 -0.3474 -1.2428  0.6882
13414TIP3   OH261732   4.959   6.351   2.866 -0.2679 -0.0562 -0.4373
13414TIP3    H161733   4.939   6.416   2.800 -1.3509  0.2830  0.2031
13414TIP3    H261734   4.883   6.351   2.924  1.6572  1.5366  2.3259
13415TIP3   OH261735   3.321   5.419  14.763 -0.0891 -0.2710 -0.5192
13415TIP3    H161736   3.270   5.369  14.699 -1.0809 -0.3719  0.3202
13415TIP3    H261737   3.412   5.398  14.743 -0.4649 -2.2374 -0.3377
13416TIP3   OH261738   5.595   1.542   3.065 -0.6736 -0.4968  0.3138
13416TIP3    H161739   5.613   1.466   3.010  0.6354 -0.6433  0.9061
13416TIP3    H261740   5.607   1.617   3.006  0.2401 -0.6717  0.2689
13417TIP3   OH261741   4.801   6.271   1.334  0.2328  0.2327  0.6484
13417TIP3    H161742   4.719   6.293   1.379 -0.9315 -2.4721  0.0470
13417TIP3    H261743   4.774   6.217   1.260  2.4744  0.6275 -0.5311
13418TIP3   OH261744   2.871   1.987  14.522  0.0632  0.0578 -0.6068
13418TIP3    H161745   2.817   1.914  14.552 -1.9004  1.8325  0.4572
13418TIP3    H261746   2.951   1.982  14.575 -1.6925  0.8511  2.3594
13419TIP3   OH261747   3.442   2.066   2.987  0.0382 -0.4619  0.3737
13419TIP3    H161748   3.430   1.972   3.002 -0.5230 -0.4363  0.1158
13419TIP3    H261749   3.381   2.087   2.916  0.5737 -0.0141  0.0384
13420TIP3   OH261750   3.519   6.286  17.138 -0.1940  0.2086 -0.5326
13420TIP3    H161751   3.566   6.341  17.200  1.4462 -2.3645  0.6928
13420TIP3    H261752   3.481   6.347  17.075 -0.1121  2.8019  1.7514
13421TIP3   OH261753   6.588   2.497   4.913  1.0307  0.4674 -0.2457
13421TIP3    H161754   6.501   2.529   4.888  0.7760  2.7418  2.9420
13421TIP3    H261755   6.641   2.508   4.834 -0.9457  1.5931 -1.5118
13422TIP3   OH261756   5.162   2.653   3.275  0.0964  0.4070  0.1805
13422TIP3    H161757   5.100   2.638   3.347  0.1301  0.6156  0.2526
13422TIP3    H261758   5.207   2.734   3.299  1.2098 -0.3403  0.6926
13423TIP3   OH261759   6.205   1.045  11.240 -0.1446 -0.1048 -0.1926
13423TIP3    H161760   6.225   0.967  11.293  0.9056  0.2302 -0.0659
13423TIP3    H261761   6.228   1.018  11.151 -1.8159 -0.6350 -0.4870
13424TIP3   OH261762   5.273   1.911  16.875 -0.1002 -0.5345 -0.1955
13424TIP3    H161763   5.278   1.892  16.968  0.9650 -2.5235 -0.5931
13424TIP3    H261764   5.181   1.896  16.852 -0.0954 -1.4333  0.3001
13425TIP3   OH261765   6.043   2.084  13.946 -0.2146 -0.0476  0.3289
13425TIP3    H161766   6.120   2.107  13.998  1.6503 -0.8333 -1.9190
13425TIP3    H261767   6.049   1.990  13.933 -1.6936 -0.1590  0.2679
13426TIP3   OH261768   0.360   2.305   3.173 -0.2292  0.3309 -0.3283
13426TIP3    H161769   0.432   2.341   3.121  0.5546 -0.0019  0.4854
13426TIP3    H261770   0.306   2.381   3.196  0.3697  0.7242 -0.1954
13427TIP3   OH261771   4.116   2.156   3.430 -0.3815  0.5022 -0.2046
13427TIP3    H161772   4.096   2.063   3.446 -2.3568  1.1301  1.3965
13427TIP3    H261773   4.087   2.171   3.340 -0.2022 -0.3747 -0.4245
13428TIP3   OH261774   1.270   0.931  17.121 -0.0602 -0.4754  0.3074
13428TIP3    H161775   1.358   0.965  17.133 -0.1182 -0.4417  0.6661
13428TIP3    H261776   1.266   0.903  17.030 -0.3326  1.3954 -0.2857
13429TIP3   OH261777   0.672   5.426  11.404 -0.2613  0.2832 -0.3078
13429TIP3    H161778   0.740   5.409  11.470 -1.0340 -0.6500  0.2900
13429TIP3    H261779   0.590   5.423  11.454 -0.7144  2.2548 -0.8543
13430TIP3   OH261780   5.257   1.171  12.230 -0.3138 -0.3075  0.7033
13430TIP3    H161781   5.176   1.209  12.196  1.3666  3.6571  0.4733
13430TIP3    H261782   5.321   1.184  12.160  1.0145 -1.2970  1.6651
13431TIP3   OH261783   2.539   3.913   5.302  0.6838  0.0338 -0.2111
13431TIP3    H161784   2.529   3.879   5.213  1.4879 -3.5200  0.9193
13431TIP3    H261785   2.574   4.001   5.289  2.0687 -0.8176 -3.4244
13432TIP3   OH261786   1.939   0.049  15.377 -0.2197  0.3147  0.1836
13432TIP3    H161787   1.971   0.026  15.464  0.9442 -0.5326 -0.4521
13432TIP3    H261788   1.948  -0.031  15.326 -0.2570  0.9826 -0.9021
13433TIP3   OH261789   4.583   6.693  16.704  0.1618  0.5014  0.4559
13433TIP3    H161790   4.589   6.602  16.677 -0.6340  0.6636 -0.3042
13433TIP3    H261791   4.504   6.726  16.662 -0.6005  1.0393  2.1861
13434TIP3   OH261792   6.335   5.100  16.282  0.6094 -0.4516  0.1011
13434TIP3    H161793   6.278   5.083  16.356 -1.2568  0.9790 -0.9273
13434TIP3    H261794   6.296   5.051  16.210  0.7498  0.4192 -0.5860
13435TIP3   OH261795   6.335   3.870  14.933  0.2398 -0.5952  0.7271
13435TIP3    H161796   6.311   3.942  14.874  3.5767  1.1121  1.1730
13435TIP3    H261797   6.361   3.799  14.875 -1.1380 -0.7391  0.2485
13436TIP3   OH261798   5.096   4.607  14.853  0.0829 -0.1066 -0.0369
13436TIP3    H161799   5.062   4.527  14.813  1.6779 -1.2092  0.6894
13436TIP3    H261800   5.178   4.580  14.894  0.6779  1.9295  0.2138
13437TIP3   OH261801   5.398   6.564  11.550 -0.0971 -0.5751  0.5570
13437TIP3    H161802   5.342   6.494  11.517  0.2190 -1.7597  2.3378
13437TIP3    H261803   5.473   6.518  11.588  1.1568  0.8651 -0.0409
13438TIP3   OH261804   1.324   1.114  12.259 -0.0899 -0.1403  0.1823
13438TIP3    H161805   1.392   1.139  12.322 -0.6503 -0.2140  0.8228
13438TIP3    H261806   1.263   1.188  12.260 -0.6250 -0.5868  0.4724
13439TIP3   OH261807   0.610   2.682  12.973  0.0357 -0.5588  0.0547
13439TIP3    H161808   0.568   2.766  12.992  0.3094 -0.6766  1.2522
13439TIP3    H261809   0.647   2.654  13.057  1.7229 -0.8926 -0.7555
13440TIP3   OH261810   4.414   1.328   0.658  0.0095 -0.2773 -0.5776
13440TIP3    H161811   4.431   1.411   0.704 -0.3129  0.4377 -1.6928
13440TIP3    H261812   4.494   1.311   0.609  0.3409 -1.0217  0.2026
13441TIP3   OH261813   3.290   2.673  15.853  0.2309 -0.1898 -0.0461
13441TIP3    H161814   3.297   2.578  15.856  1.0733 -0.1976 -1.4577
13441TIP3    H261815   3.379   2.702  15.833 -0.0690  0.8818  0.1279
13442TIP3   OH261816   3.639   2.208   0.802 -0.0937  0.4292  0.0093
13442TIP3    H161817   3.730   2.217   0.828 -0.0505  3.1834 -0.8222
13442TIP3    H261818   3.592   2.273   0.855 -1.3309  0.1131 -0.6555
13443TIP3   OH261819   1.115   6.165  13.751  0.1091  0.3462 -0.2043
13443TIP3    H161820   1.123   6.254  13.717 -0.8890  1.4426  2.2251
13443TIP3    H261821   1.117   6.175  13.846 -0.1206 -2.2364  0.1473
13444TIP3   OH261822   1.184   4.433   1.059 -0.6294 -0.2495 -0.1173
13444TIP3    H161823   1.279   4.438   1.059 -0.5793  3.3201  3.2013
13444TIP3    H261824   1.156   4.501   0.998 -1.0448 -0.3600 -0.0536
13445TIP3   OH261825   4.863   1.977   5.449 -0.3701 -0.2477 -0.4075
13445TIP3    H161826   4.791   2.021   5.495 -0.8955  0.4189 -1.8181
13445TIP3    H261827   4.931   2.044   5.442 -1.6398  0.8683 -3.6531
13446TIP3   OH261828   2.790   5.222  16.829 -0.0264  0.0047 -0.4810
13446TIP3    H161829   2.881   5.215  16.857 -0.0199  0.9687 -0.2385
13446TIP3    H261830   2.758   5.304  16.867 -0.8222 -0.0204 -1.0468
13447TIP3   OH261831   0.195   3.784   5.563  0.0765  0.4571  0.0579
13447TIP3    H161832   0.108   3.756   5.534  0.0711 -0.2541  0.7126
13447TIP3    H261833   0.179   3.858   5.621  0.2169  3.7241 -3.6063
13448TIP3   OH261834   6.362   6.339  15.150  0.3953 -0.3386 -0.1650
13448TIP3    H161835   6.379   6.256  15.194  0.4757 -0.7474 -0.9527
13448TIP3    H261836   6.314   6.315  15.071  1.5488  0.2317 -1.0672
13449TIP3   OH261837   2.074   0.660  14.775 -0.6558  0.1177  0.4210
13449TIP3    H161838   2.067   0.569  14.804  0.3906 -0.9905 -2.3902
13449TIP3    H261839   1.987   0.682  14.744 -0.9108  0.0684  1.0938
13450TIP3   OH261840   2.141   4.230  12.319 -0.0548  0.2110  0.5180
13450TIP3    H161841   2.106   4.242  12.230 -1.4385 -1.7190  0.7455
13450TIP3    H261842   2.177   4.316  12.341 -1.5978  1.3780 -1.0934
13451TIP3   OH261843   1.144   6.329   2.771 -0.2355  0.1946 -0.0361
13451TIP3    H161844   1.218   6.389   2.769  1.4403 -1.7781 -0.5960
13451TIP3    H261845   1.144   6.287   2.685  0.9552 -3.1503  1.4252
13452TIP3   OH261846   3.351   3.886  16.362  0.2782 -0.2863  0.5198
13452TIP3    H161847   3.296   3.930  16.297 -1.4454 -1.7372  0.9194
13452TIP3    H261848   3.425   3.851  16.311 -0.0519  0.2301 -0.3277
13453TIP3   OH261849   4.682   3.441   2.728 -0.1725  0.0287 -0.3790
13453TIP3    H161850   4.691   3.437   2.633 -0.1091  1.7007 -0.4601
13453TIP3    H261851   4.729   3.520   2.754  0.8094 -1.0192  1.1955
13454TIP3   OH261852   1.960   2.710   4.691  0.1130 -0.7495 -0.1828
13454TIP3    H161853   1.977   2.670   4.606 -0.1209  0.9095 -1.0445
13454TIP3    H261854   1.879   2.760   4.679  0.6473  0.3791  0.6734
13455TIP3   OH261855   1.450   1.103  12.512  0.1580  0.2228  0.6602
13455TIP3    H161856   1.544   1.111  12.496 -0.1537  0.1039 -1.6808
13455TIP3    H261857   1.442   1.030  12.572  1.4757 -1.5305 -1.1683
13456TIP3   OH261858   1.621   2.753  13.118 -0.2263  0.2734  0.2662
13456TIP3    H161859   1.645   2.826  13.175 -0.8451  1.3597 -0.8195
13456TIP3    H261860   1.526   2.754  13.116 -0.3425 -1.6811  1.5848
13457TIP3   OH261861   5.615   5.965  13.328 -0.4021 -0.0166  0.4962
13457TIP3    H161862   5.703   5.931  13.315 -0.4207  0.5129 -1.1168
13457TIP3    H261863   5.625   6.060  13.324 -0.9746  0.0691  0.9121
13458TIP3   OH261864   3.079   0.100  14.077  0.3774  0.0452 -0.0308
13458TIP3    H161865   3.135   0.095  14.155  1.5009 -0.6494 -0.8535
13458TIP3    H261866   3.112   0.175  14.028 -0.1369  0.3009  0.0095
13459TIP3   OH261867   1.819   1.942  15.003  0.6990 -0.3299  0.5588
13459TIP3    H161868   1.897   1.891  15.023  1.2488  0.7851  1.3538
13459TIP3    H261869   1.779   1.958  15.089  0.6561  0.7446  0.3490
13460TIP3   OH261870   0.969   5.854   5.408 -0.1162  0.1895  0.2783
13460TIP3    H161871   0.943   5.800   5.334  2.8474  0.3182 -1.0289
13460TIP3    H261872   0.991   5.792   5.477  0.9682 -0.2160 -0.3979
13461TIP3   OH261873   1.597   3.912  14.363  0.2727  0.6006 -0.4242
13461TIP3    H161874   1.519   3.944  14.317  0.0949  1.3594  0.3882
13461TIP3    H261875   1.620   3.982  14.424  1.1480  0.0641 -0.1146
13462TIP3   OH261876   1.112   5.767   4.796  0.2631 -0.0705 -0.8067
13462TIP3    H161877   1.091   5.790   4.886 -0.7276  0.6834 -1.2115
13462TIP3    H261878   1.187   5.707   4.803  0.7289  0.6212  0.4650
13463TIP3   OH261879   0.029   6.482   6.310  0.1099  0.3237  0.0606
13463TIP3    H161880  -0.005   6.570   6.294  1.0749  0.1055 -4.5203
13463TIP3    H261881   0.124   6.490   6.298  0.1843 -1.3433 -0.8257
13464TIP3   OH261882   1.125   2.399  17.082  0.2227  0.2363 -0.1655
13464TIP3    H161883   1.191   2.345  17.039  1.3163  1.1819  0.2697
13464TIP3    H261884   1.141   2.488  17.050  0.3239  0.7702  1.2749
13465TIP3   OH261885   1.636   4.579  14.716 -0.2949  0.0427 -0.2808
13465TIP3    H161886   1.724   4.609  14.740 -0.7236  0.5973  0.6592
13465TIP3    H261887   1.619   4.506  14.775 -0.5542  0.0951 -0.2878
13466TIP3   OH261888   3.478   1.354  15.978  0.4232  0.0229 -0.0528
13466TIP3    H161889   3.529   1.306  15.913 -0.0369  0.5236 -0.8048
13466TIP3    H261890   3.427   1.417  15.926  0.2076  0.5772  0.8150
13467TIP3   OH261891   0.950   6.748   5.248  0.2946 -0.5652 -0.7134
13467TIP3    H161892   0.885   6.708   5.305 -0.7259 -0.0969 -1.5172
13467TIP3    H261893   1.028   6.694   5.259 -0.2117 -1.1230  0.2863
13468TIP3   OH261894   5.337   1.360   3.616 -0.3644  0.4642 -0.8397
13468TIP3    H161895   5.262   1.414   3.639 -0.4909 -0.1220  0.2309
13468TIP3    H261896   5.327   1.343   3.523 -1.5006  0.5035 -0.7438
13469TIP3   OH261897   3.704   0.506  15.908  0.2874 -0.1656 -0.9706
13469TIP3    H161898   3.714   0.413  15.930 -0.8332 -0.4719 -1.6766
13469TIP3    H261899   3.676   0.506  15.816  0.8222  0.9027 -1.1483
13470TIP3   OH261900   1.831   6.699  13.160 -0.4466  0.0149 -0.4691
13470TIP3    H161901   1.837   6.616  13.113  0.8549 -1.1312  1.5613
13470TIP3    H261902   1.753   6.689  13.215  1.7215 -1.6658  2.6930
13471TIP3   OH261903   5.531   2.287  12.127 -0.5589 -0.5656 -0.1501
13471TIP3    H161904   5.600   2.246  12.179  1.5548 -0.5615 -2.7168
13471TIP3    H261905   5.492   2.213  12.079 -1.2663 -0.3693  0.1246
13472TIP3   OH261906   1.240   0.503  16.366  0.0312  0.0895  0.1233
13472TIP3    H161907   1.152   0.491  16.402  0.2671  1.8468  1.4576
13472TIP3    H261908   1.238   0.592  16.330  1.3566  0.2869  0.5018
13473TIP3   OH261909   3.729   2.715   1.529  0.3612 -0.7485  0.2583
13473TIP3    H161910   3.755   2.688   1.441  0.9363 -1.9636  0.7770
13473TIP3    H261911   3.710   2.633   1.575 -1.2767 -0.0553  0.8725
13474TIP3   OH261912   4.709   5.515   5.484 -0.3690  0.1320  0.3647
13474TIP3    H161913   4.743   5.435   5.442 -1.2396  0.3903 -0.9102
13474TIP3    H261914   4.632   5.485   5.532 -0.8088  0.2319 -0.2740
13475TIP3   OH261915   6.635   1.292   5.905  0.0874 -0.5524  0.0482
13475TIP3    H161916   6.552   1.333   5.882  0.6433  1.5444  1.5082
13475TIP3    H261917   6.626   1.269   5.997  0.4601 -2.1305 -0.2761
13476TIP3   OH261918   4.819   5.322   5.289 -0.0483 -0.4924 -0.1152
13476TIP3    H161919   4.793   5.397   5.236 -0.2277 -0.0900  0.5299
13476TIP3    H261920   4.881   5.274   5.234 -1.6617 -1.1544 -1.4718
13477TIP3   OH261921   3.301   3.202   0.268 -0.3588 -0.4219  0.4566
13477TIP3    H161922   3.366   3.234   0.207 -0.8870 -0.1701  0.0212
13477TIP3    H261923   3.314   3.107   0.268 -0.4143 -0.4340 -0.1173
13478TIP3   OH261924   2.598   3.641  11.485  0.2429  0.3710  0.2652
13478TIP3    H161925   2.512   3.657  11.446  1.6873  1.8143 -2.6097
13478TIP3    H261926   2.645   3.724  11.477  1.7625 -0.1927  2.3103
13479TIP3   OH261927   5.319   3.330   1.160  0.0284 -0.5042 -0.2821
13479TIP3    H161928   5.409   3.348   1.135  0.8066 -0.0277  2.5410
13479TIP3    H261929   5.306   3.237   1.138  0.7999 -0.3189 -1.6578
13480TIP3   OH261930   5.744   1.309   3.658 -0.5051 -0.1587  0.0008
13480TIP3    H161931   5.829   1.353   3.661 -0.1585 -0.7329 -1.0319
13480TIP3    H261932   5.732   1.273   3.746 -0.7061  1.7897  0.8279
13481TIP3   OH261933   0.109   4.502  12.564  0.4658  0.2627 -0.1580
13481TIP3    H161934   0.052   4.525  12.637 -0.2174 -2.4562  0.2659
13481TIP3    H261935   0.179   4.450  12.603 -0.1922 -1.6890 -1.4110
13482TIP3   OH261936   3.215   5.109  13.653  0.1956 -0.0239 -0.4725
13482TIP3    H161937   3.232   5.163  13.576  0.3140  0.1594 -0.3215
13482TIP3    H261938   3.301   5.099  13.694 -0.1103  1.2525  0.5281
13483TIP3   OH261939   5.778   6.208  13.213 -0.1167  0.1306 -0.1060
13483TIP3    H161940   5.759   6.170  13.127 -0.4883  1.0658 -0.4538
13483TIP3    H261941   5.736   6.294  13.211  0.5042  0.4704  0.7414
13484TIP3   OH261942   2.006   6.247   5.606 -0.7898 -0.2189  0.1993
13484TIP3    H161943   1.943   6.313   5.634 -2.1378 -0.5491 -1.8574
13484TIP3    H261944   1.956   6.165   5.603 -0.7918 -0.2198 -2.9212
13485TIP3   OH261945   2.801   6.586   4.363 -0.2725 -0.0486  0.2542
13485TIP3    H161946   2.735   6.525   4.329  1.1850 -0.7441 -1.4627
13485TIP3    H261947   2.861   6.600   4.290  0.8178  1.5271  1.3881
13486TIP3   OH261948   3.428   3.492   5.117 -0.1380  0.4792 -0.5116
13486TIP3    H161949   3.473   3.553   5.059 -2.3336  1.0891 -1.7002
13486TIP3    H261950   3.354   3.542   5.151 -1.1397 -1.0645 -0.3295
13487TIP3   OH261951   4.869   5.389   4.636  0.0552  0.3213 -0.3411
13487TIP3    H161952   4.782   5.428   4.642  0.7592  1.7965  1.1413
13487TIP3    H261953   4.855   5.304   4.594 -2.0167  0.7218 -0.5473
13488TIP3   OH261954   3.599   0.930  13.549  0.3152  0.2330  0.3702
13488TIP3    H161955   3.513   0.932  13.508  1.1264 -0.4730 -1.4767
13488TIP3    H261956   3.581   0.944  13.642 -1.9084 -1.0997  0.2207
13489TIP3   OH261957   2.578   2.728  12.240 -0.1338  0.6238  0.6042
13489TIP3    H161958   2.572   2.782  12.161 -0.4820 -0.7609 -0.3553
13489TIP3    H261959   2.564   2.789  12.312 -1.3437  1.6827 -0.4798
13490TIP3   OH261960   1.002   5.625   5.869  0.2982  0.3660  0.2098
13490TIP3    H161961   0.911   5.654   5.874  0.1662 -0.1877  1.3818
13490TIP3    H261962   1.001   5.536   5.905  1.1314 -0.0515 -0.7688
13491TIP3   OH261963   6.660   2.728   4.036 -0.1678  0.0319 -0.3401
13491TIP3    H161964   6.638   2.650   4.088  1.7449  0.9586  2.0305
13491TIP3    H261965   6.748   2.711   4.002 -0.7466  0.1419 -2.0061
13492TIP3   OH261966   4.227   0.149  11.725 -0.1633 -0.4833 -0.1624
13492TIP3    H161967   4.267   0.062  11.728  3.2656  0.9404 -0.6024
13492TIP3    H261968   4.220   0.175  11.817 -2.1646 -1.5218  0.0400
13493TIP3   OH261969   1.465   2.747   2.852 -0.9530  0.6688  0.0804
13493TIP3    H161970   1.512   2.664   2.857 -2.6670 -0.2847  1.3188
13493TIP3    H261971   1.422   2.755   2.937 -1.0672  2.7063 -0.1193
13494TIP3   OH261972   5.756   5.470  15.977  0.2445 -0.2817  0.1682
13494TIP3    H161973   5.736   5.490  15.885 -1.6764 -0.8321  0.4052
13494TIP3    H261974   5.773   5.555  16.017  0.0138  0.0845 -0.4867
13495TIP3   OH261975   0.162   3.350  12.447 -0.4478  0.0146  0.3555
13495TIP3    H161976   0.209   3.271  12.476 -0.8495  0.1987  1.5526
13495TIP3    H261977   0.086   3.355  12.505 -1.5309  0.1689 -1.0336
13496TIP3   OH261978   6.464   5.818  13.289  0.4743  0.7314  0.6726
13496TIP3    H161979   6.486   5.726  13.303 -0.7971  0.1731 -0.7644
13496TIP3    H261980   6.526   5.848  13.223  0.9451  0.9567  1.2035
13497TIP3   OH261981   2.043   6.530   5.711 -0.2459 -0.1312  0.1970
13497TIP3    H161982   2.019   6.615   5.749  2.3902  0.4593  0.7026
13497TIP3    H261983   2.034   6.468   5.784  2.2533  0.5645  1.2084
13498TIP3   OH261984   3.203   6.096  12.773  0.9056 -0.0626  0.4767
13498TIP3    H161985   3.139   6.094  12.844  1.2998 -1.7197  0.8135
13498TIP3    H261986   3.285   6.068  12.814  1.2001 -0.7714 -0.5765
13499TIP3   OH261987   3.755   5.228   1.064 -0.2736  0.1007 -0.3524
13499TIP3    H161988   3.811   5.201   0.991 -1.1744  2.2275 -1.9425
13499TIP3    H261989   3.815   5.272   1.125  0.0407  1.0444 -1.3215
13500TIP3   OH261990   5.448   5.935   3.841 -0.0137 -0.1392 -0.3354
13500TIP3    H161991   5.392   5.859   3.857  0.2883 -0.8013 -2.1913
13500TIP3    H261992   5.409   6.005   3.893 -0.5642 -1.4350  1.0594
13501TIP3   OH261993   2.256   0.599  14.036  0.1434 -0.0349  0.5802
13501TIP3    H161994   2.288   0.509  14.034 -0.9547 -0.4662  1.3510
13501TIP3    H261995   2.192   0.604  13.965  0.1370  0.1060  0.5947
13502TIP3   OH261996   4.155   0.703  13.937 -0.2129 -0.1859  0.0237
13502TIP3    H161997   4.244   0.703  13.971  0.1239 -2.2247 -0.7670
13502TIP3    H261998   4.162   0.745  13.851  0.1073 -0.8775 -0.2936
13503TIP3   OH261999   2.370   1.265  12.421  0.1476 -0.2646 -0.5353
13503TIP3    H162000   2.393   1.193  12.363  1.1065  0.1121 -0.6502
13503TIP3    H262001   2.454   1.307  12.441 -0.2610  0.1011  0.4741
13504TIP3   OH262002   0.928   2.541   2.435 -0.6344  0.2938  0.0937
13504TIP3    H162003   0.950   2.616   2.378 -0.5806  0.0905 -0.1544
13504TIP3    H262004   1.002   2.481   2.424  0.1943  0.9631  1.6320
13505TIP3   OH262005   5.605   0.442   0.293 -0.2677 -0.3080 -0.4662
13505TIP3    H162006   5.679   0.487   0.335 -0.3609 -0.7560  0.1940
13505TIP3    H262007   5.646   0.381   0.231 -0.1166  0.0799 -0.7523
13506TIP3   OH262008   6.251   0.826  11.392  0.0227  0.1040 -0.0319
13506TIP3    H162009   6.272   0.810  11.484 -1.0451  1.5452  0.4952
13506TIP3    H262010   6.326   0.790  11.344 -0.0049 -1.8861  1.2933
13507TIP3   OH262011   3.755   5.056   0.561 -0.4446 -0.0258 -0.1384
13507TIP3    H162012   3.698   5.129   0.585 -1.1078 -1.0408  1.4738
13507TIP3    H262013   3.809   5.041   0.638  1.1436  0.0622 -1.1824
13508TIP3   OH262014   1.628   2.507   1.612  0.2245 -0.1091 -0.0345
13508TIP3    H162015   1.652   2.497   1.520  0.7349 -0.2773  0.1163
13508TIP3    H262016   1.708   2.536   1.656 -0.3418  1.2367  0.1422
13509TIP3   OH262017   1.571   2.003  13.144 -0.6718  0.4608 -0.3125
13509TIP3    H162018   1.569   1.917  13.186  1.9830  0.7809  0.6687
13509TIP3    H262019   1.615   1.989  13.061  1.4427  1.0901  0.6415
13510TIP3   OH262020   2.356   0.652  15.112 -0.6604  0.3197 -0.3010
13510TIP3    H162021   2.406   0.722  15.155  1.3180 -0.0254 -1.8736
13510TIP3    H262022   2.352   0.678  15.020 -0.9535 -1.0403 -0.6958
13511TIP3   OH262023   6.361   1.274  11.583 -0.6253 -0.4290 -0.1643
13511TIP3    H162024   6.386   1.285  11.491 -0.7526 -0.0048 -0.1491
13511TIP3    H262025   6.303   1.347  11.602 -1.2669 -0.9784  0.0261
13512TIP3   OH262026   4.512   6.601   3.631 -0.5058 -0.0401  0.4936
13512TIP3    H162027   4.598   6.570   3.604 -0.4647 -0.1494  0.7468
13512TIP3    H262028   4.450   6.536   3.598 -0.5227  0.2100  0.0232
13513TIP3   OH262029   6.207   4.506   3.549  0.4339 -0.1048 -0.0347
13513TIP3    H162030   6.276   4.526   3.612  0.6857 -2.1872  0.4249
13513TIP3    H262031   6.254   4.483   3.469  0.1213  2.2206 -0.9555
13514TIP3   OH262032   0.805   3.115  14.772  0.3988 -0.5369 -0.1959
13514TIP3    H162033   0.823   3.168  14.694  0.2803 -0.3039 -0.0681
13514TIP3    H262034   0.792   3.026  14.738 -0.9996 -0.2068 -0.6082
13515TIP3   OH262035   3.117   4.989  14.906 -0.3698  0.4396  0.0485
13515TIP3    H162036   3.124   4.903  14.947 -1.2778  1.6133  2.9447
13515TIP3    H262037   3.205   5.007  14.872  0.0255 -1.2721  0.0895
13516TIP3   OH262038   1.968   2.896  14.233  0.3127 -0.4974 -0.4197
13516TIP3    H162039   1.953   2.955  14.306 -1.1515 -1.3463  0.0124
13516TIP3    H262040   2.033   2.941  14.178 -0.0829  1.0720  0.3439
13517TIP3   OH262041   5.351   4.441   3.958  0.1435 -0.3957 -0.3338
13517TIP3    H162042   5.418   4.373   3.944 -0.6291 -1.2356 -0.0706
13517TIP3    H262043   5.397   4.511   4.004  0.7005 -1.2418  0.4429
13518TIP3   OH262044   6.134   1.286   4.034 -0.5689 -0.0975 -0.4037
13518TIP3    H162045   6.151   1.248   4.119  1.7837  0.1758 -0.7035
13518TIP3    H262046   6.111   1.211   3.978 -0.0407 -0.5523 -0.0200
13519TIP3   OH262047   0.331   0.198  12.443 -0.2093  0.4200  0.0591
13519TIP3    H162048   0.296   0.195  12.532 -0.7703  1.4847 -0.1072
13519TIP3    H262049   0.290   0.125  12.398  0.4560 -0.4318  0.7983
13520TIP3   OH262050   3.678   3.447  11.903  0.3094  0.0131  0.1136
13520TIP3    H162051   3.688   3.473  11.995 -0.8449 -0.8219  0.4938
13520TIP3    H262052   3.744   3.499  11.857  1.4071 -0.0736  1.5055
13521TIP3   OH262053   5.913   5.847  16.378 -0.2184  0.3055  0.0956
13521TIP3    H162054   5.950   5.887  16.299 -0.6225 -0.9167 -0.7350
13521TIP3    H262055   5.839   5.903  16.401 -0.0435  0.7220 -0.3436
13522TIP3   OH262056   4.583   4.086   2.142  0.6622  0.4522  0.2014
13522TIP3    H162057   4.603   4.143   2.217  0.5361 -0.0439  0.6200
13522TIP3    H262058   4.568   4.146   2.069 -2.0154  1.1428  1.1988
13523TIP3   OH262059   6.654   2.283   3.341 -0.1103  0.2617 -0.0073
13523TIP3    H162060   6.705   2.206   3.367 -0.0087 -0.5922 -2.4079
13523TIP3    H262061   6.569   2.248   3.316  0.1093  0.7881 -1.6297
13524TIP3   OH262062   5.931   1.947  16.270  0.1755 -0.8271  0.3879
13524TIP3    H162063   5.970   2.024  16.312  0.9712 -1.5932  1.0817
13524TIP3    H262064   5.873   1.910  16.337  0.5711 -1.4034  0.4174
13525TIP3   OH262065   3.474   1.290  11.340 -0.3399 -0.8540  0.4132
13525TIP3    H162066   3.549   1.270  11.396 -1.1897 -2.0554  1.1640
13525TIP3    H262067   3.399   1.255  11.387 -1.3954  0.3632 -0.3065
13526TIP3   OH262068   2.703   5.428   2.783  0.5978  0.0246  0.2487
13526TIP3    H162069   2.747   5.413   2.698 -2.4645  1.5876 -1.7981
13526TIP3    H262070   2.623   5.376   2.778 -0.2761  1.1708  1.6125
13527TIP3   OH262071   1.543   6.775  15.922 -0.2095 -0.2319  0.1341
13527TIP3    H162072   1.509   6.802  16.008  0.1887 -0.7208  0.4498
13527TIP3    H262073   1.495   6.695  15.902  1.3264 -1.4342  0.9912
13528TIP3   OH262074   5.164   2.648   1.109 -0.5675 -0.1075 -0.0406
13528TIP3    H162075   5.251   2.688   1.107 -0.7935  0.3520 -0.8774
13528TIP3    H262076   5.141   2.636   1.017 -1.3771 -0.2706  0.1791
13529TIP3   OH262077   5.732   1.899  11.585 -0.6187  0.3400 -0.0787
13529TIP3    H162078   5.644   1.874  11.611 -0.4651  0.1214  0.2315
13529TIP3    H262079   5.776   1.923  11.667  0.2904 -1.6309  0.0666
13530TIP3   OH262080   4.306   4.567  10.687  0.1653  0.1945  0.1605
13530TIP3    H162081   4.366   4.580  10.613  0.5697 -1.7419  0.0922
13530TIP3    H262082   4.336   4.486  10.728 -1.7978 -0.2946  0.7367
13531TIP3   OH262083   5.481   0.929   2.451  0.1108  0.5555  0.1036
13531TIP3    H162084   5.504   0.921   2.358 -0.9008 -1.5222 -0.0101
13531TIP3    H262085   5.415   0.998   2.453  0.2967  0.7711 -0.6767
13532TIP3   OH262086   1.499   4.610  15.333  0.2452 -0.2456 -0.0166
13532TIP3    H162087   1.569   4.670  15.306  0.9957 -0.7627  0.7240
13532TIP3    H262088   1.439   4.609  15.258  0.5901  0.8516 -0.3399
13533TIP3   OH262089   1.137   6.489  12.585 -0.0246  0.0052  0.0984
13533TIP3    H162090   1.071   6.443  12.534 -1.2512  0.9629  0.7800
13533TIP3    H262091   1.181   6.547  12.522 -1.3908  1.0375  0.0639
13534TIP3   OH262092   1.879   1.755   3.332  0.5378  0.1023  0.1711
13534TIP3    H162093   1.862   1.813   3.258 -0.6171 -0.5124 -0.0827
13534TIP3    H262094   1.956   1.792   3.375  1.5302  0.2060 -1.6008
13535TIP3   OH262095   2.881   2.244   1.835  0.1277  0.0985 -0.4783
13535TIP3    H162096   2.800   2.197   1.855  0.8711 -1.5789 -1.2399
13535TIP3    H262097   2.944   2.211   1.899  0.6645  0.0714 -1.0129
13536TIP3   OH262098   4.998   1.088   5.717 -0.0110 -0.3599  0.2140
13536TIP3    H162099   4.982   1.173   5.759  0.4989  0.6779 -1.5739
13536TIP3    H262100   5.088   1.067   5.741  1.1106  1.3681 -2.0668
13537TIP3   OH262101   6.703   0.918  13.881  0.5614 -0.0088 -0.0271
13537TIP3    H162102   6.772   0.977  13.851  0.1186 -0.3389 -1.7871
13537TIP3    H262103   6.693   0.939  13.974  2.2036  0.8556 -0.0155
13538TIP3   OH262104   2.392   2.940   5.455  1.2266 -0.2279 -0.3763
13538TIP3    H162105   2.309   2.987   5.465  0.1529 -2.4787  3.6056
13538TIP3    H262106   2.454   2.988   5.509  1.5992 -0.4415 -0.6114
13539TIP3   OH262107   3.225   0.891  17.283 -0.2743 -0.5179 -0.0187
13539TIP3    H162108   3.239   0.799  17.304 -0.3943 -0.9275 -1.6088
13539TIP3    H262109   3.276   0.939  17.348  2.8923 -1.7783 -1.3780
13540TIP3   OH262110   1.147   3.844  13.406 -0.3369 -0.2701  0.3340
13540TIP3    H162111   1.065   3.888  13.425 -0.5745 -0.9632  0.9779
13540TIP3    H262112   1.159   3.853  13.311 -0.7793  0.4564  0.3426
13541TIP3   OH262113   1.990   4.444  11.924  0.0477  0.9246 -0.0326
13541TIP3    H162114   1.902   4.474  11.900 -1.4741 -0.7584  2.7994
13541TIP3    H262115   1.999   4.360  11.880  0.5034  1.3767 -0.8065
13542TIP3   OH262116   0.004   6.363   4.318  0.2289 -0.0627  0.4185
13542TIP3    H162117  -0.088   6.384   4.304  0.1276 -0.0919  1.0242
13542TIP3    H262118   0.038   6.436   4.369  0.5525 -0.0415  0.1820
13543TIP3   OH262119   2.195   4.888   0.989 -0.4071  0.5361  0.2378
13543TIP3    H162120   2.185   4.914   0.897  0.1159  0.1765  0.0752
13543TIP3    H262121   2.264   4.946   1.023 -0.4597  0.5324  0.3514
13544TIP3   OH262122   5.645   5.992  11.070 -0.1535 -0.6552 -0.8062
13544TIP3    H162123   5.737   6.013  11.051  0.8173 -1.7818  1.9916
13544TIP3    H262124   5.595   6.054  11.018  2.2333  0.9445 -1.3827
13545TIP3   OH262125   0.033   0.589   0.964 -0.3216 -0.0261  0.1460
13545TIP3    H162126   0.046   0.497   0.944  1.1800  0.1741  0.0889
13545TIP3    H262127  -0.026   0.589   1.039 -0.5416 -1.0198 -0.0116
13546TIP3   OH262128   3.431   0.651  12.847  0.1710 -0.0731  0.3847
13546TIP3    H162129   3.470   0.721  12.901  0.4356  3.2804 -3.6187
13546TIP3    H262130   3.337   0.669  12.848  0.1924  0.1145 -0.2966
13547TIP3   OH262131   6.109   2.819   4.038 -0.0257 -0.0994 -0.0918
13547TIP3    H162132   6.039   2.775   3.989 -0.3933  1.6959 -1.2932
13547TIP3    H262133   6.189   2.785   4.000 -0.3031  1.4366 -2.2493
13548TIP3   OH262134   2.868   4.032  13.631  0.0311  0.0760  1.0171
13548TIP3    H162135   2.790   3.981  13.651 -0.1982 -0.5838 -1.2934
13548TIP3    H262136   2.916   3.978  13.567  0.0409  2.4461 -1.1359
13549TIP3   OH262137   5.221   5.482  14.447  0.5853 -0.1099 -0.6725
13549TIP3    H162138   5.171   5.496  14.366  0.0456 -0.6801 -0.4404
13549TIP3    H262139   5.310   5.466  14.417  0.6425  0.9171 -1.0938
13550TIP3   OH262140   1.734   5.949   2.981  0.6565 -0.4106  0.4140
13550TIP3    H162141   1.743   5.996   2.898  0.4136  0.0006  0.6196
13550TIP3    H262142   1.701   5.863   2.957 -2.2599  0.6527  0.3014
13551TIP3   OH262143   2.654   3.232   1.979  0.0502 -0.6952  0.0926
13551TIP3    H162144   2.722   3.232   1.912 -0.0677 -1.0152 -0.0311
13551TIP3    H262145   2.576   3.264   1.933  0.1561 -0.1736  0.2754
13552TIP3   OH262146   1.288   0.677   5.260  0.0779 -0.0304 -0.5504
13552TIP3    H162147   1.369   0.688   5.311  0.5640 -1.2393 -1.0251
13552TIP3    H262148   1.220   0.665   5.326  0.4409  0.0274 -0.1606
13553TIP3   OH262149   1.504   4.976  13.502 -0.4842  0.0355  0.6528
13553TIP3    H162150   1.586   4.991  13.548 -0.4854 -0.8104  0.9322
13553TIP3    H262151   1.529   4.937  13.418 -0.5795  0.1427  0.5724
13554TIP3   OH262152   0.628   2.677  11.608 -0.6880 -0.2482  0.3736
13554TIP3    H162153   0.708   2.662  11.658 -0.2990 -0.0047 -0.1693
13554TIP3    H262154   0.658   2.714  11.525 -1.5043  2.9073  1.3436
13555TIP3   OH262155   3.025   0.401  13.520 -1.0226  0.3092  0.3388
13555TIP3    H162156   2.990   0.312  13.507 -0.1552  0.0749 -0.4777
13555TIP3    H262157   2.952   0.450  13.556 -1.9534 -0.3930 -0.5210
13556TIP3   OH262158   4.606   2.385   1.604 -0.0870 -0.2575 -0.0589
13556TIP3    H162159   4.659   2.339   1.669 -1.2728 -0.7005  0.6349
13556TIP3    H262160   4.594   2.473   1.640 -0.2263 -0.3104  0.0258
13557TIP3   OH262161   5.121   2.398   4.227  0.1299  0.4324  0.4325
13557TIP3    H162162   5.044   2.432   4.273  0.1445  1.0438  0.0256
13557TIP3    H262163   5.193   2.405   4.290  0.2399  1.6658  0.1950
13558TIP3   OH262164   5.905   3.194  17.305  0.1052  0.0097 -0.2885
13558TIP3    H162165   5.882   3.102  17.319  3.2949 -0.7468  0.9112
13558TIP3    H262166   5.864   3.240  17.379  0.8890 -0.9593  0.7975
13559TIP3   OH262167   3.586   4.131  15.519  0.0937 -0.8396 -0.4316
13559TIP3    H162168   3.552   4.185  15.448  3.4875 -0.3510 -1.8426
13559TIP3    H262169   3.656   4.183  15.558 -0.7235 -1.6887  2.4201
13560TIP3   OH262170   0.411   5.066   6.762  0.5856  0.0423  0.3722
13560TIP3    H162171   0.416   5.117   6.842 -0.8778 -1.6196  1.6016
13560TIP3    H262172   0.376   4.981   6.790  2.3497 -1.4488 -1.6459
13561TIP3   OH262173   6.738   2.902  12.927  0.3885  0.2574 -1.0451
13561TIP3    H162174   6.653   2.932  12.895 -0.4944  0.7336  1.5187
13561TIP3    H262175   6.785   2.982  12.948  0.7408 -0.0297 -0.7257
13562TIP3   OH262176   3.330   1.192   1.172 -0.1130  0.1434  0.5612
13562TIP3    H162177   3.376   1.185   1.089  1.5369  0.1541  1.4232
13562TIP3    H262178   3.390   1.154   1.236 -1.9618 -1.2587  1.5533
13563TIP3   OH262179   1.268   4.600  12.810 -0.1830 -0.1590 -0.4259
13563TIP3    H162180   1.284   4.510  12.838 -0.5189  0.0157  0.3511
13563TIP3    H262181   1.222   4.641  12.884  1.0517  1.0069 -0.2654
13564TIP3   OH262182   6.732   0.245   5.699 -0.4865 -0.6850 -0.2666
13564TIP3    H162183   6.637   0.238   5.692 -0.6028  1.7835 -2.9977
13564TIP3    H262184   6.765   0.181   5.635 -0.2443 -1.8160  0.9541
13565TIP3   OH262185   0.506   0.003   5.522  0.3538  0.4961  0.0739
13565TIP3    H162186   0.523  -0.065   5.457 -0.5774  1.7060 -1.5073
13565TIP3    H262187   0.458  -0.043   5.592 -0.7647 -0.3857 -1.2207
13566TIP3   OH262188   3.688   4.209   3.752  0.3846  0.3359 -0.2954
13566TIP3    H162189   3.652   4.128   3.789 -0.0698  1.6342  2.3109
13566TIP3    H262190   3.783   4.200   3.764  0.4689 -0.3746 -1.3385
13567TIP3   OH262191   5.830   3.192  15.315 -0.0245  0.1105 -0.6246
13567TIP3    H162192   5.833   3.172  15.409  2.3581  0.6265 -0.5295
13567TIP3    H262193   5.835   3.288  15.311  0.5192  0.0552 -1.2896
13568TIP3   OH262194   4.182   1.412   2.400  0.2168  0.1391 -0.2567
13568TIP3    H162195   4.260   1.373   2.360  0.9370 -0.1649  1.3468
13568TIP3    H262196   4.167   1.492   2.350  1.5917  0.2202 -0.5957
13569TIP3   OH262197   6.613   3.040   4.146  0.6312 -0.1544 -0.0830
13569TIP3    H162198   6.672   2.967   4.167  1.2996  0.5522  0.5740
13569TIP3    H262199   6.552   3.003   4.082  2.4054 -0.6579 -1.5908
13570TIP3   OH262200   4.865   1.396  14.181 -0.2817 -0.1993 -0.0880
13570TIP3    H162201   4.873   1.363  14.271 -0.5041 -2.6749 -0.9031
13570TIP3    H262202   4.949   1.438  14.163 -0.5137  1.0547  1.5081
13571TIP3   OH262203   4.221   3.641  10.695  0.0397  0.5452 -0.9789
13571TIP3    H162204   4.300   3.657  10.746 -2.7158  0.7064  3.8245
13571TIP3    H262205   4.199   3.726  10.656 -0.0909  1.7484  1.5315
13572TIP3   OH262206   6.303   3.817   3.666  0.1414 -0.0011 -0.0246
13572TIP3    H162207   6.339   3.846   3.750  1.0550 -0.0981 -0.3683
13572TIP3    H262208   6.380   3.805   3.610 -0.4198 -0.4223 -0.7233
13573TIP3   OH262209   5.914   6.318  17.032  0.0642 -0.0557 -0.0348
13573TIP3    H162210   6.007   6.310  17.052  0.5863  0.4793 -2.0354
13573TIP3    H262211   5.907   6.296  16.939 -1.8111 -0.0850  0.0747
13574TIP3   OH262212   2.323   3.892   3.127  0.1576 -0.1990  0.0180
13574TIP3    H162213   2.286   3.850   3.204 -0.7665  1.3947  0.5006
13574TIP3    H262214   2.266   3.864   3.055  0.2006 -0.6154  0.1422
13575TIP3   OH262215   2.617   0.913   0.598  0.0482  0.3843  0.4308
13575TIP3    H162216   2.578   0.895   0.683  1.3750 -2.4303  0.5323
13575TIP3    H262217   2.702   0.954   0.618  0.3104 -0.1734  0.4701
13576TIP3   OH262218   6.206   6.181  12.555 -0.1167 -0.1142  0.2038
13576TIP3    H162219   6.274   6.244  12.529 -0.7522  0.7323  0.5480
13576TIP3    H262220   6.250   6.121  12.615  0.4646  0.0877 -0.0137
13577TIP3   OH262221   5.644   3.133  14.862 -0.4426  0.0663 -0.4777
13577TIP3    H162222   5.675   3.052  14.904  1.6989 -0.1104 -2.2384
13577TIP3    H262223   5.707   3.199  14.890  0.0500  0.2904 -2.0679
13578TIP3   OH262224   3.135   0.197   0.303 -0.4192 -0.3248 -0.1433
13578TIP3    H162225   3.079   0.156   0.368 -0.0027  0.5022  0.7695
13578TIP3    H262226   3.223   0.168   0.325 -0.2842 -0.1283 -0.4141
13579TIP3   OH262227   2.123   3.269   4.096  0.9442  0.7013 -0.1896
13579TIP3    H162228   2.080   3.186   4.074 -1.7469  2.2498 -1.3184
13579TIP3    H262229   2.161   3.255   4.182  1.6166 -2.0235 -0.8314
13580TIP3   OH262230   2.370   3.008   1.476  0.4755  0.2693  0.3745
13580TIP3    H162231   2.426   3.020   1.553  0.8350  3.0931 -0.2133
13580TIP3    H262232   2.430   2.990   1.404  0.3230 -0.1752  0.3550
13581TIP3   OH262233   5.324   1.765   2.955  0.3187  0.1343  0.4780
13581TIP3    H162234   5.232   1.773   2.980  0.1764 -0.1350  0.0472
13581TIP3    H262235   5.356   1.856   2.953  0.0091  0.2437  0.4147
13582TIP3   OH262236   1.515   2.328  16.287 -0.2738 -0.2771  0.3487
13582TIP3    H162237   1.519   2.408  16.234 -1.5698  0.5877  1.4932
13582TIP3    H262238   1.549   2.259  16.229 -1.4212  0.6636 -1.5397
13583TIP3   OH262239   2.921   6.302  15.054  0.3688  0.1684  0.2678
13583TIP3    H162240   3.009   6.333  15.075  0.2310  0.5938  0.2185
13583TIP3    H262241   2.930   6.257  14.970  0.4285  0.7265 -0.0283
13584TIP3   OH262242   5.184   2.167  16.484  0.4819  0.1580  0.7470
13584TIP3    H162243   5.225   2.161  16.571  0.8237 -1.1606  0.5259
13584TIP3    H262244   5.249   2.210  16.429  1.1558 -0.8998  0.6711
13585TIP3   OH262245   1.957   3.861  13.579  0.1684  0.0277 -0.2834
13585TIP3    H162246   2.020   3.858  13.507 -0.2825  0.4998 -0.7110
13585TIP3    H262247   2.010   3.876  13.657  0.5488  1.0133 -0.7116
13586TIP3   OH262248   1.726   0.465  11.237  0.0909  0.9037 -0.1859
13586TIP3    H162249   1.817   0.437  11.245  0.6813  2.1493 -1.8691
13586TIP3    H262250   1.685   0.399  11.181  0.3422  1.0834 -0.5876
13587TIP3   OH262251   4.767   3.381  16.630  0.1523  0.0436  0.0079
13587TIP3    H162252   4.695   3.319  16.619 -0.3466  0.7857 -1.0167
13587TIP3    H262253   4.748   3.451  16.568 -0.5102  2.3706  2.6767
13588TIP3   OH262254   6.511   6.089   4.706  0.2258  0.1300  0.0613
13588TIP3    H162255   6.573   6.049   4.645 -0.4126  0.3655 -0.7664
13588TIP3    H262256   6.543   6.065   4.793  0.6941 -0.9183 -0.3828
13589TIP3   OH262257   2.648   2.620  13.583 -0.3074  0.4805  0.3457
13589TIP3    H162258   2.685   2.701  13.620 -0.7564  0.3923  0.9927
13589TIP3    H262259   2.650   2.558  13.655 -0.3525  0.0309 -0.0371
13590TIP3   OH262260   3.962   2.243   1.565 -0.5092  0.0724  0.5401
13590TIP3    H162261   3.946   2.155   1.531 -0.7043 -0.4756  1.9936
13590TIP3    H262262   4.025   2.230   1.636  1.3375  1.4066 -0.7614
13591TIP3   OH262263   1.008   6.005  17.156 -0.5031 -0.0369  0.1628
13591TIP3    H162264   1.084   6.043  17.200  0.2990 -3.0428  1.6637
13591TIP3    H262265   1.045   5.956  17.083 -1.1125 -0.5394  0.1800
13592TIP3   OH262266   5.902   3.801   3.321  0.0739  0.0116  0.0565
13592TIP3    H162267   5.843   3.876   3.316 -0.3061 -0.2924 -0.0444
13592TIP3    H262268   5.989   3.840   3.331 -0.2963  0.4434  1.9705
13593TIP3   OH262269   3.395   4.043  14.623  0.3236 -0.0255 -0.6102
13593TIP3    H162270   3.395   4.047  14.718 -2.8964  0.5492 -0.5020
13593TIP3    H262271   3.413   4.133  14.595  0.9557 -0.1317 -0.5631
13594TIP3   OH262272   1.173   5.716  11.581 -0.1135 -0.1356  0.4979
13594TIP3    H162273   1.262   5.741  11.607  0.3355 -1.5828  0.4528
13594TIP3    H262274   1.161   5.756  11.494  0.6892 -0.3441  0.2836
13595TIP3   OH262275   0.499   1.508  16.106  0.4994  0.3097  0.5040
13595TIP3    H162276   0.440   1.578  16.079  0.8501  0.7508  0.8852
13595TIP3    H262277   0.577   1.519  16.051  0.7756  0.5564  0.9375
13596TIP3   OH262278   5.638   1.267  16.165 -0.1264  0.2630 -0.0764
13596TIP3    H162279   5.732   1.253  16.166 -0.1309 -1.1885 -4.0681
13596TIP3    H262280   5.602   1.196  16.218  0.9334 -0.6144 -0.5148
13597TIP3   OH262281   0.303   1.495   2.585 -0.3669 -0.7065  0.3902
13597TIP3    H162282   0.227   1.553   2.582  0.4845  0.3918 -1.2640
13597TIP3    H262283   0.375   1.552   2.612  0.1682 -1.4100  0.4661
13598TIP3   OH262284   4.118   5.202   0.646 -0.0537 -0.3372 -0.6295
13598TIP3    H162285   4.202   5.186   0.689 -0.5313 -0.0788  0.4493
13598TIP3    H262286   4.113   5.136   0.577  0.3009 -1.4522  0.3692
13599TIP3   OH262287   5.795   2.969  13.201 -0.5046  0.2909 -0.3908
13599TIP3    H162288   5.724   2.934  13.255  0.7209 -0.7260  0.6288
13599TIP3    H262289   5.862   2.996  13.264  1.5865 -2.2803 -1.3450
13600TIP3   OH262290   0.559   0.578  15.792 -0.7616 -0.3511  0.2646
13600TIP3    H162291   0.518   0.585  15.879 -0.5427 -0.2068  0.3548
13600TIP3    H262292   0.634   0.636  15.796 -0.6190 -0.5211  0.0519
13601TIP3   OH262293   6.397   6.345  15.753  0.0057 -0.1997 -0.3154
13601TIP3    H162294   6.441   6.418  15.797 -0.2223 -0.5028  0.4240
13601TIP3    H262295   6.394   6.276  15.818  0.4100 -0.9594 -1.0825
13602TIP3   OH262296   2.297   4.508   4.383 -0.2248 -0.4752  0.3287
13602TIP3    H162297   2.385   4.477   4.406  0.0215  0.1037  0.1778
13602TIP3    H262298   2.288   4.590   4.431  0.6756  1.2940 -2.3163
13603TIP3   OH262299   6.609   3.601  17.175  0.6543  0.0640  0.1168
13603TIP3    H162300   6.522   3.641  17.180  0.0700 -0.9896 -0.9792
13603TIP3    H262301   6.600   3.519  17.223  1.3041  0.3683  0.7637
13604TIP3   OH262302   1.448   6.409   4.717  0.6123  0.6480 -0.0881
13604TIP3    H162303   1.410   6.390   4.803 -0.0950  0.0211 -0.5259
13604TIP3    H262304   1.542   6.394   4.728  0.2377 -2.6681 -0.2014
13605TIP3   OH262305   6.312   5.727   2.679  0.2872 -0.4141 -0.3604
13605TIP3    H162306   6.235   5.740   2.736  1.4344 -0.0317  1.1710
13605TIP3    H262307   6.280   5.671   2.609 -1.3140 -0.5507  0.4221
13606TIP3   OH262308   4.541   4.022  14.431  0.9351  0.6415  0.1407
13606TIP3    H162309   4.526   4.114  14.408 -0.7986 -0.0201 -1.6812
13606TIP3    H262310   4.631   4.006  14.405  0.6972  1.3919 -1.2773
13607TIP3   OH262311   0.687   3.544  13.135  0.1450  0.4335 -0.1990
13607TIP3    H162312   0.746   3.591  13.195 -1.5751  1.4768  0.7677
13607TIP3    H262313   0.623   3.502  13.193  0.4742 -1.5425 -1.1629
13608TIP3   OH262314   1.625   5.641   5.773 -0.1819  0.5910 -0.0437
13608TIP3    H162315   1.689   5.711   5.764  0.5331 -0.0229  0.1006
13608TIP3    H262316   1.605   5.638   5.867  0.2491  0.2079  0.0373
13609TIP3   OH262317   4.712   6.041   5.516 -0.2445  0.0376 -0.4279
13609TIP3    H162318   4.629   6.089   5.512 -0.8228 -0.8050  0.7197
13609TIP3    H262319   4.729   6.015   5.426 -0.2780  1.7558 -0.9780
13610TIP3   OH262320   5.074   0.310  14.400 -0.0241  0.1376  0.8591
13610TIP3    H162321   5.074   0.279  14.491 -0.2634 -0.1266  0.7733
13610TIP3    H262322   5.093   0.231  14.348 -4.7730 -0.9828  0.3114
13611TIP3   OH262323   3.578   1.979   1.178 -0.0494 -0.1326  0.5775
13611TIP3    H162324   3.661   2.021   1.199 -0.7852  0.9282  1.4872
13611TIP3    H262325   3.544   1.949   1.263  0.1831 -2.1139  0.0241
13612TIP3   OH262326   3.990   4.364  16.997 -0.6601 -0.0579  0.4819
13612TIP3    H162327   3.927   4.410  16.940  0.8534 -0.1366 -1.3684
13612TIP3    H262328   3.999   4.421  17.073 -0.8074  1.4117 -0.5479
13613TIP3   OH262329   4.308   2.875  12.015 -0.4774  0.4936  0.1627
13613TIP3    H162330   4.354   2.801  11.975 -0.3508  0.1966  0.8301
13613TIP3    H262331   4.230   2.887  11.962 -0.7147 -0.4024  0.2908
13614TIP3   OH262332   0.598   1.798  10.728 -0.2654  0.0454  0.1287
13614TIP3    H162333   0.553   1.750  10.798 -0.3985 -0.7859 -0.5039
13614TIP3    H262334   0.569   1.889  10.739 -0.6389 -0.1493  0.8691
13615TIP3   OH262335   6.356   3.551   0.595 -0.0924 -0.2413  0.6251
13615TIP3    H162336   6.363   3.464   0.555 -1.2110  0.2252 -0.6883
13615TIP3    H262337   6.269   3.553   0.633 -0.5741  0.7103 -0.4654
13616TIP3   OH262338   4.546   2.266  11.041  0.4197  0.7307 -0.2076
13616TIP3    H162339   4.464   2.300  11.005  0.3508 -0.3633 -1.1301
13616TIP3    H262340   4.611   2.282  10.972  0.1351 -2.0695 -1.2292
13617TIP3   OH262341   4.672   6.719   0.402  0.4844  0.2286  0.4073
13617TIP3    H162342   4.693   6.812   0.398 -0.8044  0.5198 -0.3224
13617TIP3    H262343   4.756   6.674   0.402  1.1278  1.4049  1.1957
13618TIP3   OH262344   5.742   6.074   3.206  0.0932  0.1005 -0.0786
13618TIP3    H162345   5.682   6.076   3.132 -0.0637 -0.3973  0.0323
13618TIP3    H262346   5.816   6.021   3.176 -1.0603 -2.1941  0.9176
13619TIP3   OH262347   3.503   2.590  16.184  0.6148 -0.3197  0.0114
13619TIP3    H162348   3.567   2.653  16.149 -1.1880  1.8654  0.4499
13619TIP3    H262349   3.556   2.517  16.216  3.1371  2.2582  2.2490
13620TIP3   OH262350   4.130   2.681   0.222  0.2727  0.2354 -0.1225
13620TIP3    H162351   4.042   2.692   0.185 -0.7248  0.2994  2.1055
13620TIP3    H262352   4.140   2.586   0.232 -0.1185  0.2836  0.8444
13621TIP3   OH262353   5.480   2.726   6.253 -1.1191  0.3029 -0.1327
13621TIP3    H162354   5.492   2.709   6.159  0.5025  2.5701 -0.4050
13621TIP3    H262355   5.460   2.640   6.290  0.9267 -1.1746 -2.1485
13622TIP3   OH262356   3.474   2.046  15.748 -0.0818  0.0493 -0.1791
13622TIP3    H162357   3.431   2.043  15.834 -0.1818  0.2080 -0.2228
13622TIP3    H262358   3.413   2.001  15.689 -0.2982  0.4739 -0.2866
13623TIP3   OH262359   4.502   4.783  11.290 -0.2865  0.2685 -0.4898
13623TIP3    H162360   4.472   4.728  11.218 -0.3746  1.4202 -1.3657
13623TIP3    H262361   4.421   4.821  11.325 -0.2259 -0.1340  0.1098
13624TIP3   OH262362   6.412   0.186   4.934  0.5326 -0.2460 -0.2593
13624TIP3    H162363   6.381   0.276   4.942  1.1090  0.0964 -1.4758
13624TIP3    H262364   6.497   0.186   4.978 -0.2858 -0.6911  1.3762
13625TIP3   OH262365   3.995   0.968  16.297  0.4019 -0.1686 -0.1583
13625TIP3    H162366   4.034   1.029  16.235  3.5358 -1.9748 -0.1953
13625TIP3    H262367   3.949   0.904  16.242  2.8410 -1.5446 -0.7672
13626TIP3   OH262368   5.201   0.608   1.398  0.1312  0.2318 -0.7521
13626TIP3    H162369   5.184   0.668   1.470 -1.6665 -1.6538  0.5112
13626TIP3    H262370   5.257   0.657   1.338 -0.6988  2.8934  0.5137
13627TIP3   OH262371   5.147   2.121  15.297  0.2693  0.3833  0.0342
13627TIP3    H162372   5.123   2.114  15.389  1.4836  1.6755  0.4921
13627TIP3    H262373   5.239   2.150  15.298  1.0368 -1.7213 -1.5986
13628TIP3   OH262374   5.767   4.358  17.180 -0.2573  0.5106 -0.0190
13628TIP3    H162375   5.815   4.307  17.245 -2.0975 -0.1000  0.9266
13628TIP3    H262376   5.728   4.430  17.229  2.8049  3.3857 -1.4266
13629TIP3   OH262377   0.729   5.760   4.857  0.1200  0.0695 -0.0268
13629TIP3    H162378   0.776   5.785   4.777 -0.4835 -0.1301 -0.4452
13629TIP3    H262379   0.716   5.666   4.849 -0.7291  0.1866 -0.1197
13630TIP3   OH262380   0.949   0.060  14.482  0.2828 -0.0724  0.6913
13630TIP3    H162381   1.014   0.129  14.471  0.6795 -0.5798 -0.2931
13630TIP3    H262382   0.934   0.027  14.393 -0.2455 -0.9292  1.0893
13631TIP3   OH262383   6.165   3.214   0.701  0.0548  0.4066  0.4400
13631TIP3    H162384   6.238   3.159   0.674 -0.2120  0.2977 -0.0882
13631TIP3    H262385   6.101   3.153   0.738  0.3287  0.5306  1.1286
13632TIP3   OH262386   5.185   3.233  15.469  0.1586  0.2618 -0.0717
13632TIP3    H162387   5.133   3.305  15.506 -1.2331  0.4248 -2.1875
13632TIP3    H262388   5.148   3.154  15.510 -0.4361  0.5343 -0.0705
13633TIP3   OH262389   3.174   3.297   3.390 -0.8211 -0.0941  0.1128
13633TIP3    H162390   3.236   3.350   3.341 -1.0565  0.5748  0.5204
13633TIP3    H262391   3.229   3.236   3.440 -0.6096 -1.2206 -1.4454
13634TIP3   OH262392   4.670   0.971   2.022  0.2664 -0.1571 -0.5163
13634TIP3    H162393   4.583   0.936   2.039 -0.4131  0.5508 -2.3109
13634TIP3    H262394   4.655   1.048   1.967  2.0626 -0.3927 -1.4031
13635TIP3   OH262395   4.921   3.647  15.139 -0.0364 -0.2998  0.2973
13635TIP3    H162396   4.953   3.720  15.086 -0.8593  0.0089  0.2052
13635TIP3    H262397   4.843   3.617  15.092 -2.2091  1.4953  2.5043
13636TIP3   OH262398   1.448   2.488  10.624  0.4389  0.0505 -0.2878
13636TIP3    H162399   1.408   2.482  10.710  0.8826 -2.0385 -0.1681
13636TIP3    H262400   1.455   2.397  10.594  1.0403  0.6594 -2.1810
13637TIP3   OH262401   4.387   3.589  10.347  0.0786  0.0589 -0.1391
13637TIP3    H162402   4.325   3.542  10.403 -0.6547 -1.3582 -2.0390
13637TIP3    H262403   4.421   3.522  10.288 -1.1495  1.8779 -3.1184
13638TIP3   OH262404   2.190   1.634   2.258 -0.7211  0.0171 -0.2717
13638TIP3    H162405   2.205   1.675   2.173 -0.7110  0.8009  0.1056
13638TIP3    H262406   2.111   1.677   2.292  0.2886  1.0063  0.9062
13639TIP3   OH262407   2.999   0.104   0.590 -0.5518 -0.1525  0.3873
13639TIP3    H162408   3.087   0.089   0.625 -0.5042  0.6238  0.6075
13639TIP3    H262409   2.974   0.189   0.624 -1.5729 -0.5656  0.6973
13640TIP3   OH262410   2.843   6.348   4.993  0.1708 -0.1761 -0.2084
13640TIP3    H162411   2.801   6.389   5.068  2.5100  1.4994  0.3240
13640TIP3    H262412   2.818   6.403   4.919 -0.3785 -0.5217 -0.2792
13641TIP3   OH262413   1.342   5.019  14.338 -0.0952 -0.1627 -0.0507
13641TIP3    H162414   1.353   4.934  14.296 -0.5379  0.2878 -1.1005
13641TIP3    H262415   1.413   5.023  14.402 -1.4653 -2.3207  1.7617
13642TIP3   OH262416   3.519   2.014  11.349  0.5329  0.4615 -0.6874
13642TIP3    H162417   3.601   2.014  11.299  1.3864 -0.7316  0.6701
13642TIP3    H262418   3.503   1.923  11.370  0.0339  0.8977  0.9657
13643TIP3   OH262419   5.533   3.858  11.034  0.5283 -0.4667  0.3851
13643TIP3    H162420   5.497   3.773  11.060 -0.3037 -0.1484  0.3096
13643TIP3    H262421   5.485   3.881  10.955  1.5501 -0.4450 -0.2372
13644TIP3   OH262422   6.551   5.166  17.126  0.3177 -0.3590  0.6187
13644TIP3    H162423   6.481   5.206  17.074 -2.3481 -1.5185  3.0596
13644TIP3    H262424   6.628   5.173  17.070 -1.1656  3.0158 -1.3728
13645TIP3   OH262425   2.215   5.657  12.986 -0.4771  0.0618  0.3603
13645TIP3    H162426   2.122   5.639  12.997 -0.6191  0.8273  0.4411
13645TIP3    H262427   2.253   5.638  13.072 -0.7012  0.6148  0.5842
13646TIP3   OH262428   3.288   5.508  11.163 -0.0810 -0.5187 -0.7728
13646TIP3    H162429   3.246   5.473  11.084  0.2770  1.1022 -1.7384
13646TIP3    H262430   3.302   5.600  11.143  1.1019 -0.3322  0.7467
13647TIP3   OH262431   4.533   0.730   6.276  0.2840  0.6206 -0.2367
13647TIP3    H162432   4.539   0.822   6.301 -1.3554  0.8306 -0.5633
13647TIP3    H262433   4.546   0.682   6.358  0.2836  1.1550  0.0815
13648TIP3   OH262434   0.445   0.977   3.154  0.5836 -0.0301 -0.4889
13648TIP3    H162435   0.528   1.024   3.154  1.5331 -1.5398  1.7241
13648TIP3    H262436   0.466   0.890   3.120 -0.3792 -0.0354 -1.1049
13649TIP3   OH262437   5.999   0.708   3.191  0.6837 -0.3973 -0.2734
13649TIP3    H162438   5.967   0.679   3.105  0.0341  0.8352 -0.4712
13649TIP3    H262439   6.078   0.656   3.205  0.7377 -0.7143 -1.5646
13650TIP3   OH262440   3.926   6.667   3.016  0.1531 -0.1764  0.2004
13650TIP3    H162441   3.998   6.726   2.997 -1.9227  1.9961 -1.5876
13650TIP3    H262442   3.950   6.585   2.973  1.5445  0.4797 -0.3340
13651TIP3   OH262443   1.939   1.124   4.546  0.2850  0.0353 -0.6772
13651TIP3    H162444   1.847   1.141   4.526 -0.2073  0.0982  1.4238
13651TIP3    H262445   1.941   1.035   4.579  0.4735  0.9044  1.8520
13652TIP3   OH262446   6.711   5.502   2.065  0.1752  0.1430  0.2857
13652TIP3    H162447   6.710   5.465   1.977  1.2593 -0.5578  0.5535
13652TIP3    H262448   6.627   5.475   2.103 -0.6417  1.1035 -0.7725
13653TIP3   OH262449   5.330   2.099  11.251 -0.5855  0.1235 -0.0227
13653TIP3    H162450   5.273   2.044  11.304 -0.4493  0.1488  0.1501
13653TIP3    H262451   5.404   2.041  11.229 -0.3888  0.2697  0.2497
13654TIP3   OH262452   3.274   2.249  15.602 -0.3378  0.4741 -0.0731
13654TIP3    H162453   3.210   2.233  15.533  0.2339  0.1043 -0.5346
13654TIP3    H262454   3.299   2.161  15.632 -1.8495  0.6376  1.8299
13655TIP3   OH262455   0.094   5.728   5.273 -0.1209  0.3418  0.3670
13655TIP3    H162456   0.134   5.785   5.207  1.4121  0.1171  1.0435
13655TIP3    H262457   0.000   5.746   5.267 -0.0727  0.0747 -2.0862
13656TIP3   OH262458   5.416   0.643  12.458  0.3472 -0.5283  0.2213
13656TIP3    H162459   5.321   0.654  12.455  0.2833  0.0759  2.4040
13656TIP3    H262460   5.431   0.591  12.537  1.8222 -0.8949 -0.2674
13657TIP3   OH262461   3.076   4.779   1.821 -0.2666 -0.1299  0.6964
13657TIP3    H162462   3.056   4.716   1.891 -0.6195 -0.8683 -0.0576
13657TIP3    H262463   3.171   4.785   1.821 -0.3062  1.6953  2.8089
13658TIP3   OH262464   5.887   0.756  16.414  0.0552 -1.0299 -0.2217
13658TIP3    H162465   5.957   0.821  16.428  0.0961 -0.7391 -1.6879
13658TIP3    H262466   5.899   0.693  16.485  1.8542 -1.0107 -0.4613
13659TIP3   OH262467   3.504   3.336  15.324 -0.3382 -0.3509  0.3443
13659TIP3    H162468   3.467   3.284  15.252 -0.5077 -1.8337  1.4608
13659TIP3    H262469   3.439   3.329  15.394 -0.5513  1.7272  0.4309
13660TIP3   OH262470   0.840   2.455  15.195 -0.1341 -0.4241 -0.1747
13660TIP3    H162471   0.843   2.498  15.280  0.0016  0.1842 -0.4821
13660TIP3    H262472   0.916   2.397  15.195  0.5671  0.4717 -0.3405
13661TIP3   OH262473   0.184   2.929   1.281  0.1302 -0.2866 -0.2158
13661TIP3    H162474   0.191   3.015   1.323  0.2324  0.5114 -1.7941
13661TIP3    H262475   0.271   2.890   1.292 -0.2156 -0.6949  1.4506
13662TIP3   OH262476   6.299   6.119   0.594 -0.1548  0.9504 -0.0536
13662TIP3    H162477   6.278   6.180   0.524 -2.4499  1.1156  0.7020
13662TIP3    H262478   6.249   6.150   0.670 -0.6296 -1.2794  0.6328
13663TIP3   OH262479   2.803   1.958  15.730 -0.3376 -0.3019 -0.4181
13663TIP3    H162480   2.771   2.025  15.790  0.0318 -1.2000  0.8518
13663TIP3    H262481   2.727   1.903  15.712 -0.7653  0.7361 -1.8864
13664TIP3   OH262482   1.081   5.109  15.956 -0.1329 -0.3925  0.3197
13664TIP3    H162483   1.169   5.147  15.961 -0.3099 -0.0157  0.5912
13664TIP3    H262484   1.030   5.158  16.020 -0.4456 -0.8718  0.4446
13665TIP3   OH262485   0.264   2.859  13.693 -0.0897  0.1743 -0.6137
13665TIP3    H162486   0.256   2.785  13.753  2.0721  0.1433 -0.2853
13665TIP3    H262487   0.204   2.838  13.622 -0.2793 -1.4090 -0.0405
13666TIP3   OH262488   3.864   2.657  13.132 -0.3590  0.8172 -0.2168
13666TIP3    H162489   3.859   2.630  13.040  0.0393  0.9033 -0.2639
13666TIP3    H262490   3.906   2.743  13.129 -1.9768  1.6695 -0.1142
13667TIP3   OH262491   2.812   4.423   1.766  0.2394 -0.1191 -0.1795
13667TIP3    H162492   2.739   4.469   1.726  1.5293  0.4232 -2.0766
13667TIP3    H262493   2.889   4.475   1.742  1.4670 -1.7735 -0.0345
13668TIP3   OH262494   1.001   3.723   4.522  0.0084  0.5582 -0.0991
13668TIP3    H162495   0.941   3.782   4.476  0.8293  1.1981 -0.3977
13668TIP3    H262496   1.028   3.659   4.455 -1.4446 -0.6239  0.4163
13669TIP3   OH262497   3.845   2.886  10.652  0.7490  0.6337  0.6085
13669TIP3    H162498   3.810   2.969  10.685 -0.1635 -0.0891  1.5294
13669TIP3    H262499   3.939   2.902  10.642  0.5823  1.7825  0.7449
13670TIP3   OH262500   0.198   0.621   3.711  0.1919  0.1522  0.1145
13670TIP3    H162501   0.210   0.703   3.663  1.4740 -1.2657 -2.1572
13670TIP3    H262502   0.132   0.573   3.662 -0.0331 -0.4827  1.0100
13671TIP3   OH262503   0.232   3.911  11.965  0.4696  0.1566  0.8749
13671TIP3    H162504   0.149   3.896  11.918 -0.4176 -0.0619  2.4421
13671TIP3    H262505   0.273   3.983  11.917  0.7008 -1.4532 -1.5774
13672TIP3   OH262506   1.343   6.756  13.347  0.3797 -0.4372 -0.3118
13672TIP3    H162507   1.434   6.770  13.374  1.0982 -2.8065 -1.2111
13672TIP3    H262508   1.340   6.787  13.257  0.3271 -0.4337 -0.3084
13673TIP3   OH262509   1.343   5.872  13.606 -0.6374 -0.1687 -0.2292
13673TIP3    H162510   1.376   5.792  13.564 -0.2606  0.1910 -0.6251
13673TIP3    H262511   1.399   5.883  13.683  0.4716  0.6673 -1.1226
13674TIP3   OH262512   3.717   2.806   0.443 -0.3443  0.1931 -0.3934
13674TIP3    H162513   3.784   2.795   0.511 -2.0909 -1.0485  1.2514
13674TIP3    H262514   3.728   2.896   0.413 -1.5629  2.1100  4.0059
13675TIP3   OH262515   3.114   3.758  15.709 -1.2547 -0.2635  0.5802
13675TIP3    H162516   3.037   3.787  15.660 -0.4427 -0.7257 -1.0380
13675TIP3    H262517   3.183   3.749  15.643  0.0574 -0.3741  1.9048
13676TIP3   OH262518   4.843   2.132   5.071 -0.1080  0.2755  0.3172
13676TIP3    H162519   4.917   2.071   5.071 -0.7280 -0.4944  0.3426
13676TIP3    H262520   4.842   2.168   4.982 -0.4594 -0.6478 -0.0558
13677TIP3   OH262521   4.190   3.647  14.608 -0.0890  0.2192  0.0716
13677TIP3    H162522   4.238   3.728  14.622 -0.3384  0.5868 -1.0824
13677TIP3    H262523   4.119   3.649  14.672  0.9835  0.0059  1.3127
13678TIP3   OH262524   0.512   4.260  13.284  0.5511  0.2839 -0.0086
13678TIP3    H162525   0.431   4.292  13.244 -0.0172  0.3838  1.1927
13678TIP3    H262526   0.483   4.211  13.361  1.6581  0.6542  0.6587
13679TIP3   OH262527   1.316   2.444   0.832  0.3428  0.7605 -1.1953
13679TIP3    H162528   1.232   2.489   0.824  0.1272  0.4182 -0.8688
13679TIP3    H262529   1.294   2.358   0.867  0.8656  0.7890 -0.7906
13680TIP3   OH262530   6.042   5.633  16.194 -0.7721 -0.5950 -0.4000
13680TIP3    H162531   5.961   5.673  16.161 -0.8214 -0.1163  0.2862
13680TIP3    H262532   6.098   5.708  16.216 -0.8416 -0.8893  0.8455
13681TIP3   OH262533   1.952   0.368  17.103  0.1371 -1.1016 -0.3140
13681TIP3    H162534   1.894   0.312  17.155 -0.5747 -0.7149 -0.6784
13681TIP3    H262535   2.031   0.315  17.090  0.4409 -1.1311  1.3561
13682TIP3   OH262536   4.895   0.224  16.561  0.1156  0.4177  0.0105
13682TIP3    H162537   4.940   0.142  16.579  0.9493  1.0563  0.9679
13682TIP3    H262538   4.820   0.224  16.621  0.2874  0.4920  0.2249
13683TIP3   OH262539   4.776   5.067   0.009  0.5740 -0.0596  0.5263
13683TIP3    H162540   4.700   5.069  -0.049  2.6456 -0.3093 -2.4307
13683TIP3    H262541   4.846   5.107  -0.042  2.8196 -1.2535  2.4865
13684TIP3   OH262542   4.791   1.899   3.033 -0.0530 -0.0435  0.1429
13684TIP3    H162543   4.728   1.927   2.966  0.1573  0.6605  0.2300
13684TIP3    H262544   4.766   1.948   3.111  1.0908  0.8635 -0.0367
13685TIP3   OH262545   0.695   0.493  15.374  0.5354  0.5420  0.2561
13685TIP3    H162546   0.666   0.491  15.283 -0.9609  0.8000  0.7093
13685TIP3    H262547   0.714   0.401  15.395  0.4863  0.4291 -0.1867
13686TIP3   OH262548   6.558   0.633  10.629 -0.0323  0.2179  0.3693
13686TIP3    H162549   6.614   0.589  10.565 -0.3222  1.2368 -0.6211
13686TIP3    H262550   6.515   0.561  10.676 -0.4541 -0.5809 -1.1604
13687TIP3   OH262551   0.198   2.824  12.148 -0.1204  0.2077 -0.0086
13687TIP3    H162552   0.175   2.737  12.116 -1.3762 -0.1549  1.7918
13687TIP3    H262553   0.114   2.868  12.163  0.4066  0.6359  1.9564
13688TIP3   OH262554   6.139   6.225  13.194  0.2613 -0.2598 -0.0841
13688TIP3    H162555   6.219   6.237  13.143  0.7656 -2.4060  0.1117
13688TIP3    H262556   6.082   6.174  13.137  0.3890 -1.6910  1.0114
13689TIP3   OH262557   2.981   1.585   1.713 -0.0154 -0.5911 -0.3776
13689TIP3    H162558   2.952   1.497   1.736 -0.1294 -0.8280 -1.3946
13689TIP3    H262559   3.070   1.573   1.679 -0.1828 -0.3780 -0.9079
13690TIP3   OH262560   6.243   6.754  11.541 -0.1580 -0.3445  0.5359
13690TIP3    H162561   6.283   6.683  11.591 -1.1626 -0.0459  1.8164
13690TIP3    H262562   6.157   6.720  11.515  0.0598 -0.2274 -0.3843
13691TIP3   OH262563   2.688   0.201   5.256 -0.4751 -0.1621 -0.0307
13691TIP3    H162564   2.729   0.246   5.330  2.1058 -1.3644 -0.6306
13691TIP3    H262565   2.657   0.118   5.292  0.8416 -0.7768 -0.2733
13692TIP3   OH262566   6.725   4.326  14.053  0.5269  0.4548  0.2477
13692TIP3    H162567   6.751   4.266  13.983  0.0481  0.0841  0.3782
13692TIP3    H262568   6.805   4.372  14.076  0.4539  1.4994 -1.4075
13693TIP3   OH262569   1.623   1.159   2.465  0.2022 -0.1031  0.1297
13693TIP3    H162570   1.665   1.091   2.518  2.4652  1.9872  1.2214
13693TIP3    H262571   1.604   1.230   2.527 -2.4344  0.1984 -0.8909
13694TIP3   OH262572   3.155   6.065  14.485  0.4560  0.2632  0.1197
13694TIP3    H162573   3.106   6.147  14.484 -0.2110 -0.1212  0.1357
13694TIP3    H262574   3.114   6.012  14.416  1.9764  0.5495 -1.0620
13695TIP3   OH262575   5.161   5.170  14.465  0.6114  0.0806 -0.4454
13695TIP3    H162576   5.071   5.156  14.496  1.2822 -0.9352  1.1990
13695TIP3    H262577   5.154   5.244  14.405 -1.2687  0.2627 -0.0824
13696TIP3   OH262578   0.454   1.242  15.274  0.0768 -0.4721 -0.0674
13696TIP3    H162579   0.461   1.328  15.315  3.0786 -0.6474  0.0081
13696TIP3    H262580   0.399   1.191  15.334  1.3945  0.3271  1.9335
13697TIP3   OH262581   5.414   3.599  13.401 -0.4331 -0.2859  0.1497
13697TIP3    H162582   5.401   3.507  13.378 -0.1899  0.3755 -3.0287
13697TIP3    H262583   5.509   3.612  13.394 -0.6716  0.6980 -1.8019
13698TIP3   OH262584   6.468   0.671   5.070  0.0340  0.0049  0.2471
13698TIP3    H162585   6.536   0.629   5.122 -0.2063 -0.7989 -0.0678
13698TIP3    H262586   6.389   0.662   5.123  0.4042  2.1530  1.2368
13699TIP3   OH262587   4.815   6.125   0.179 -0.0206  0.0253  0.1149
13699TIP3    H162588   4.739   6.083   0.220  0.1381  0.0553  0.4477
13699TIP3    H262589   4.853   6.056   0.124 -1.0929  0.4241 -1.1655
13700TIP3   OH262590   6.710   1.505  12.110 -0.0045 -0.0341 -0.0387
13700TIP3    H162591   6.689   1.568  12.041 -0.3250  1.0411  1.0045
13700TIP3    H262592   6.805   1.496  12.107  0.0707  0.7115 -0.0285
13701TIP3   OH262593   3.359   1.654  15.482  0.1488 -0.6262  0.1644
13701TIP3    H162594   3.364   1.579  15.423  0.1911 -0.1065 -0.4990
13701TIP3    H262595   3.359   1.730  15.425 -1.9569 -0.1456  0.7243
13702TIP3   OH262596   0.297   2.817  12.622 -0.3947  0.2101 -0.1477
13702TIP3    H162597   0.251   2.748  12.670  0.8741 -0.6253 -0.1045
13702TIP3    H262598   0.230   2.884  12.607 -1.9453 -1.4706 -1.1131
13703TIP3   OH262599   6.658   1.081  10.986  0.3249  0.1425 -0.1507
13703TIP3    H162600   6.568   1.081  11.019  0.7755  0.8433  1.1291
13703TIP3    H262601   6.665   0.998  10.939 -0.4272 -0.8278  1.3372
13704TIP3   OH262602   2.269   0.117  13.479  0.1037  0.0608 -0.3197
13704TIP3    H162603   2.197   0.133  13.540  0.2470  0.3765 -0.2328
13704TIP3    H262604   2.225   0.094  13.397 -0.1058 -2.1398  0.3215
13705TIP3   OH262605   4.845   4.653  13.322  0.1004 -0.1519  0.3887
13705TIP3    H162606   4.840   4.704  13.241  0.2267 -2.2796 -1.0322
13705TIP3    H262607   4.759   4.612  13.330 -0.0834  0.4381  1.6341
13706TIP3   OH262608   4.992   0.921  12.143  0.0625 -0.3512  0.0588
13706TIP3    H162609   4.943   1.003  12.150 -1.6633 -1.4539  1.7023
13706TIP3    H262610   4.976   0.876  12.226  0.9096 -2.3934 -0.8219
13707TIP3   OH262611   6.254   0.417  12.432 -0.0617 -0.5556  0.2645
13707TIP3    H162612   6.257   0.510  12.456  2.0921 -1.0676  2.4100
13707TIP3    H262613   6.344   0.396  12.407 -0.9135 -1.6843 -2.1375
13708TIP3   OH262614   0.438   4.993  15.617  0.0138  0.2309 -0.3845
13708TIP3    H162615   0.475   5.005  15.705  0.5665  0.2038 -0.6088
13708TIP3    H262616   0.449   5.078  15.575  1.0366 -0.1356 -0.8956
13709TIP3   OH262617   6.057   6.125   6.382 -0.4854  0.1212 -0.1001
13709TIP3    H162618   5.985   6.119   6.319 -0.8725 -3.4449  0.4424
13709TIP3    H262619   6.022   6.175   6.455 -1.4565  0.7559 -0.9784
13710TIP3   OH262620   2.541   5.567   2.440 -0.0123 -0.0074 -0.1493
13710TIP3    H162621   2.559   5.595   2.529  1.8796 -0.8354 -0.2229
13710TIP3    H262622   2.572   5.639   2.385 -1.0802  0.4568 -0.1718
13711TIP3   OH262623   4.637   0.231  16.048  0.3135 -0.0594  0.2054
13711TIP3    H162624   4.637   0.261  16.139 -0.7488 -0.5311  0.3726
13711TIP3    H262625   4.673   0.142  16.052  2.1103  0.6109 -0.1086
13712TIP3   OH262626   0.023   2.204   4.279  0.1633 -0.1328  0.2415
13712TIP3    H162627   0.041   2.216   4.372  0.4656 -2.7880  0.5976
13712TIP3    H262628  -0.062   2.161   4.275 -0.5424  1.2657 -0.8286
13713TIP3   OH262629   5.758   4.733  15.452  0.3165  0.1644  0.0636
13713TIP3    H162630   5.802   4.651  15.430  1.3306  0.8119 -0.4430
13713TIP3    H262631   5.700   4.711  15.524 -0.8210 -1.3893 -1.2512
13714TIP3   OH262632   0.960   3.880   5.430  0.3792 -0.5870 -0.0767
13714TIP3    H162633   0.954   3.959   5.483 -1.3461 -0.4738 -0.3655
13714TIP3    H262634   1.023   3.825   5.475  1.6954  0.9692  0.0896
13715TIP3   OH262635   5.780   4.517   2.409 -0.2968  0.6705  0.2708
13715TIP3    H162636   5.762   4.568   2.488  0.0552 -0.5696  1.1717
13715TIP3    H262637   5.705   4.534   2.352 -0.4640  1.7267  0.7773
13716TIP3   OH262638   3.291   6.664   1.819  0.3336 -0.1477 -0.1361
13716TIP3    H162639   3.350   6.646   1.891  0.9510 -1.0146 -0.8319
13716TIP3    H262640   3.222   6.719   1.856 -1.4025 -3.4670  2.0821
13717TIP3   OH262641   3.225   4.058  15.800  0.4242  0.1061 -0.4294
13717TIP3    H162642   3.296   4.081  15.860 -0.1611 -2.3455  1.3568
13717TIP3    H262643   3.269   4.025  15.721  1.2242  0.8840 -0.3254
13718TIP3   OH262644   3.779   6.545  15.084 -0.1641 -0.2374 -0.0909
13718TIP3    H162645   3.713   6.612  15.102  1.0765  0.8097  0.6995
13718TIP3    H262646   3.817   6.570  15.000  0.0615 -0.1417  0.0384
13719TIP3   OH262647   0.741   2.764   4.416 -0.1651  0.4414  0.2358
13719TIP3    H162648   0.764   2.689   4.361 -0.3804 -0.5112  1.4148
13719TIP3    H262649   0.747   2.731   4.506 -0.1658  1.8660  0.7827
13720TIP3   OH262650   1.250   3.299  16.532 -0.3048  0.2828 -0.3244
13720TIP3    H162651   1.268   3.245  16.609 -2.4576  0.1614  0.1486
13720TIP3    H262652   1.259   3.389  16.564 -0.6625  0.2286 -0.0657
13721TIP3   OH262653   1.526   1.763  16.042  0.1203  0.0703 -0.3097
13721TIP3    H162654   1.554   1.693  15.983 -0.9186 -1.3036  0.7573
13721TIP3    H262655   1.437   1.783  16.016 -0.0185  0.1175  0.1830
13722TIP3   OH262656   4.504   6.716   3.860 -0.2233 -0.6784 -0.2330
13722TIP3    H162657   4.544   6.802   3.851 -0.7481 -0.1485  1.8992
13722TIP3    H262658   4.505   6.679   3.772  2.7752  0.2477 -0.6926
13723TIP3   OH262659   6.774   3.308   1.767  0.0077 -0.3947 -0.0209
13723TIP3    H162660   6.681   3.305   1.789 -0.0115  0.8657  0.1070
13723TIP3    H262661   6.818   3.263   1.839 -0.6064 -2.5553 -0.9008
13724TIP3   OH262662   0.274   1.663  15.980  0.0237 -0.3089  0.2659
13724TIP3    H162663   0.191   1.640  16.023 -0.0964 -1.8990 -0.7263
13724TIP3    H262664   0.259   1.751  15.946 -1.2103 -0.5090  0.2273
13725TIP3   OH262665   6.038   0.316   4.057  0.1309  0.2246  0.1596
13725TIP3    H162666   6.014   0.260   4.130 -0.4267  1.2869  0.8321
13725TIP3    H262667   6.009   0.404   4.084 -1.1120  0.4806 -1.7799
13726TIP3   OH262668   4.714   1.398  13.735  0.0270  0.3951  0.5138
13726TIP3    H162669   4.628   1.424  13.701 -0.1298  0.0676  0.6489
13726TIP3    H262670   4.734   1.316  13.689  0.9451  1.2117 -0.6050
13727TIP3   OH262671   2.277   3.623  12.744  0.4076 -0.5413  0.4695
13727TIP3    H162672   2.240   3.710  12.757  1.8262  0.2805 -0.7089
13727TIP3    H262673   2.370   3.638  12.731  0.4220 -2.0350 -1.6654
13728TIP3   OH262674   5.802   6.624   2.322 -0.2844  0.8901 -0.2014
13728TIP3    H162675   5.837   6.707   2.354 -1.7193  1.6597 -0.5631
13728TIP3    H262676   5.751   6.647   2.245  0.8042 -0.5809 -1.4301
13729TIP3   OH262677   3.577   4.749   1.156 -0.7076 -0.0132  0.0849
13729TIP3    H162678   3.511   4.818   1.163 -0.3482  0.3027  0.3613
13729TIP3    H262679   3.551   4.700   1.078 -0.6742  0.7516 -0.4246
13730TIP3   OH262680   3.024   5.039  16.859 -0.2898 -0.1032 -0.6793
13730TIP3    H162681   2.970   4.969  16.822  1.0627 -1.0624 -0.9215
13730TIP3    H262682   3.044   5.009  16.948 -1.3769  0.9654 -0.0477
13731TIP3   OH262683   6.589   3.007   2.216 -0.0896 -0.1973  0.1515
13731TIP3    H162684   6.619   2.917   2.221  1.4894  0.3744  3.5511
13731TIP3    H262685   6.530   3.017   2.291 -1.1623  1.3343 -0.8254
13732TIP3   OH262686   5.073   3.404   4.073 -0.2573  0.4165 -0.5563
13732TIP3    H162687   5.096   3.319   4.111  0.5985  1.5691  1.6607
13732TIP3    H262688   5.156   3.440   4.042  0.1523  2.0546  2.1132
13733TIP3   OH262689   5.685   1.290   6.216  0.4273 -0.3574  0.1448
13733TIP3    H162690   5.713   1.340   6.292 -0.8101  0.0838  0.3451
13733TIP3    H262691   5.593   1.268   6.235  0.3948 -1.0898 -0.7827
13734TIP3   OH262692   2.278   6.539   4.883 -0.3574 -0.3137  0.1736
13734TIP3    H162693   2.204   6.499   4.837 -0.1769  0.5036 -0.8662
13734TIP3    H262694   2.355   6.506   4.836 -0.2074  1.1929 -0.6841
13735TIP3   OH262695   2.411   2.089   1.146 -0.4549 -0.2838 -0.1534
13735TIP3    H162696   2.378   2.017   1.199  0.3909 -0.4852  0.1275
13735TIP3    H262697   2.366   2.080   1.062 -2.0533  0.2423  0.6201
13736TIP3   OH262698   5.696   0.612  16.747  0.6328  0.4771 -0.2499
13736TIP3    H162699   5.700   0.580  16.657  0.5882  1.6609 -0.6833
13736TIP3    H262700   5.643   0.547  16.793 -0.2760  0.4304 -1.3336
13737TIP3   OH262701   0.720   1.835   2.158 -0.8699  0.1478  0.1942
13737TIP3    H162702   0.758   1.923   2.163  0.2519 -0.3478  0.6976
13737TIP3    H262703   0.789   1.782   2.119 -1.4094 -0.5897  0.2244
13738TIP3   OH262704   3.657   3.367   2.695 -0.3557  0.0177  0.3808
13738TIP3    H162705   3.703   3.412   2.765  0.2440  1.0816 -0.6605
13738TIP3    H262706   3.697   3.280   2.691 -1.3329 -0.5549  2.2268
13739TIP3   OH262707   3.669   3.672   0.606 -0.2315 -0.5980  0.4218
13739TIP3    H162708   3.722   3.603   0.646 -1.4929 -1.0458  1.3886
13739TIP3    H262709   3.584   3.632   0.592 -0.8170  0.5895  0.4586
13740TIP3   OH262710   3.534   3.443  14.724 -0.0241 -0.1915 -0.2261
13740TIP3    H162711   3.484   3.445  14.641 -1.2459  0.6462  0.4938
13740TIP3    H262712   3.475   3.400  14.786  0.5295  0.0019  0.4425
13741TIP3   OH262713   1.725   4.731   5.379 -0.7993 -0.5839  0.1022
13741TIP3    H162714   1.663   4.776   5.322  0.5766  0.0274 -0.9794
13741TIP3    H262715   1.672   4.696   5.450 -2.2521  0.6700 -0.3147
13742TIP3   OH262716   5.829   6.761  15.948 -0.2274  0.5114  0.0457
13742TIP3    H162717   5.833   6.838  15.892 -0.0156  0.8618  0.5310
13742TIP3    H262718   5.753   6.776  16.005 -1.3433 -0.5254 -1.1063
13743TIP3   OH262719   5.862   0.566  14.145  0.3177 -0.2112  0.1522
13743TIP3    H162720   5.829   0.498  14.204 -0.5962  0.3282  0.2770
13743TIP3    H262721   5.783   0.607  14.109  0.8494  0.8754  0.1940
13744TIP3   OH262722   2.460   3.016  16.974 -0.1804 -0.0049  0.0953
13744TIP3    H162723   2.462   2.923  16.996  0.4056 -0.6298 -2.2286
13744TIP3    H262724   2.460   3.017  16.878  0.0165  2.4078  0.0636
13745TIP3   OH262725   0.192   4.568  15.379  0.6479  0.4588 -0.1096
13745TIP3    H162726   0.164   4.642  15.324  0.2140  0.0279 -0.4798
13745TIP3    H262727   0.111   4.522  15.400  0.7388  0.9239  1.3666
13746TIP3   OH262728   2.486   2.277  11.996  0.1814 -0.4900  0.2218
13746TIP3    H162729   2.443   2.290  11.912 -2.5169  1.9188  1.8073
13746TIP3    H262730   2.467   2.186  12.019 -0.7326 -0.5973 -0.8883
13747TIP3   OH262731   1.756   2.825   2.909  0.2830 -0.9521  0.0309
13747TIP3    H162732   1.833   2.864   2.951 -0.3047 -0.9438  1.1576
13747TIP3    H262733   1.786   2.738   2.881  1.3749 -0.0513 -1.7868
13748TIP3   OH262734   0.828   5.284  16.592  0.1961  0.4138  0.0889
13748TIP3    H162735   0.859   5.346  16.526 -1.2409  1.7840  0.6513
13748TIP3    H262736   0.875   5.309  16.672 -1.4815  1.8184  0.6865
13749TIP3   OH262737   1.935   6.363  14.041 -0.0241 -0.1737 -0.6668
13749TIP3    H162738   1.963   6.452  14.018 -2.3385  0.6333 -0.6432
13749TIP3    H262739   1.877   6.337  13.970  0.6094 -1.6769 -0.6516
13750TIP3   OH262740   6.538   2.883   4.759 -0.0277  0.1332  0.1648
13750TIP3    H162741   6.559   2.792   4.741 -1.6547 -0.0993 -0.8238
13750TIP3    H262742   6.442   2.886   4.758 -0.0134  1.7536  0.6756
13751TIP3   OH262743   3.404   1.475   4.805  0.6311 -0.1175 -0.3146
13751TIP3    H162744   3.488   1.479   4.758  1.2873 -0.6618  0.7619
13751TIP3    H262745   3.421   1.522   4.886  0.0086 -0.5726  0.0823
13752TIP3   OH262746   0.944   4.794  16.467  0.3233  0.4060  0.4097
13752TIP3    H162747   0.942   4.706  16.505 -1.9935  0.9924  1.8566
13752TIP3    H262748   0.965   4.851  16.540  3.7892  1.0259 -0.8844
13753TIP3   OH262749   4.240   0.235   0.768  0.5532 -0.4438 -0.1691
13753TIP3    H162750   4.206   0.223   0.856  0.8366 -2.0058 -0.2414
13753TIP3    H262751   4.335   0.222   0.777  0.5645 -0.7755 -0.7352
13754TIP3   OH262752   3.849   6.310  11.496 -0.1265 -0.1999 -0.1086
13754TIP3    H162753   3.793   6.368  11.548 -0.4599 -0.5252 -0.0987
13754TIP3    H262754   3.936   6.319  11.535  0.1453  1.3686 -0.9968
13755TIP3   OH262755   5.699   1.469   1.337 -0.3271 -0.0047 -0.1178
13755TIP3    H162756   5.627   1.529   1.357 -2.6899 -2.6741  0.1182
13755TIP3    H262757   5.717   1.484   1.244  1.8634  3.5780  0.6903
13756TIP3   OH262758   3.429   5.086  12.159 -0.8662  0.4037 -0.0796
13756TIP3    H162759   3.372   5.066  12.085  0.9159 -1.7997 -0.9725
13756TIP3    H262760   3.406   5.022  12.226 -0.8908  0.9039  0.4014
13757TIP3   OH262761   4.934   1.785  16.904  0.2444 -0.0591 -0.4739
13757TIP3    H162762   4.872   1.737  16.958  1.2601 -1.0604 -0.1704
13757TIP3    H262763   5.017   1.779  16.950  0.3611  2.2699 -0.2786
13758TIP3   OH262764   5.054   6.367  12.134 -0.1096 -0.4197 -0.1852
13758TIP3    H162765   4.965   6.338  12.114  0.1393 -0.1243 -1.8256
13758TIP3    H262766   5.109   6.290  12.122  0.0809 -0.1686 -1.0140
13759TIP3   OH262767   0.574   3.339  14.406 -0.3609  0.2491 -0.2002
13759TIP3    H162768   0.519   3.416  14.395 -0.3912  0.1173 -1.0400
13759TIP3    H262769   0.520   3.266  14.374  0.1767  0.0762 -0.7194
13760TIP3   OH262770   6.190   0.362   1.709  0.8568  0.1483 -0.5999
13760TIP3    H162771   6.204   0.418   1.786 -0.0739 -0.1198 -0.2226
13760TIP3    H262772   6.115   0.307   1.732  0.9715 -0.3928 -1.4534
13761TIP3   OH262773   0.051   4.125  11.454 -0.1692 -0.4931  0.5924
13761TIP3    H162774   0.101   4.088  11.528 -0.0565 -0.7699  0.3827
13761TIP3    H262775   0.113   4.123  11.381 -0.6682 -1.4144  0.1750
13762TIP3   OH262776   1.090   4.215   3.414  0.1857 -0.1942  0.2984
13762TIP3    H162777   1.053   4.141   3.460 -0.5930  1.2735  2.1651
13762TIP3    H262778   1.183   4.196   3.407  0.0175 -1.2533  0.8922
13763TIP3   OH262779   4.715   2.186  17.084  0.7642  0.0995 -0.5755
13763TIP3    H162780   4.693   2.278  17.071  0.4700 -0.0231 -0.9829
13763TIP3    H262781   4.744   2.180  17.175  2.3229  0.8850 -0.9971
13764TIP3   OH262782   2.431   3.043  12.154 -0.5356  0.6275  0.5228
13764TIP3    H162783   2.465   3.042  12.243  1.0856 -1.3301 -0.0466
13764TIP3    H262784   2.338   3.023  12.163 -0.1523 -0.7882  1.7118
13765TIP3   OH262785   3.886   5.992  16.141  0.4545  0.0982 -0.0171
13765TIP3    H162786   3.803   6.026  16.109  1.1699  0.3952 -1.6751
13765TIP3    H262787   3.924   6.063  16.193  1.2704  1.3850 -2.2370
13766TIP3   OH262788   1.258   4.665  17.269 -0.2633  0.1854 -0.5401
13766TIP3    H162789   1.220   4.578  17.273  0.4219 -0.1056 -0.2154
13766TIP3    H262790   1.292   4.672  17.179 -0.7018  0.2826 -0.6974
13767TIP3   OH262791   1.153   4.273   2.110 -0.2619 -0.3018 -0.2502
13767TIP3    H162792   1.088   4.263   2.180 -0.7143  1.0584 -0.4518
13767TIP3    H262793   1.140   4.361   2.077 -0.0265 -0.8951 -2.0431
13768TIP3   OH262794   1.211   5.362   1.252  0.2769  0.0264  0.3126
13768TIP3    H162795   1.156   5.295   1.292 -0.5637 -0.7923 -2.0628
13768TIP3    H262796   1.184   5.365   1.160  1.2678  2.6389  0.0033
13769TIP3   OH262797   4.086   3.268  11.368  0.4260 -0.4489  0.0609
13769TIP3    H162798   4.043   3.325  11.432 -1.0475 -1.3921 -0.0384
13769TIP3    H262799   4.129   3.201  11.420 -2.9039 -2.7400  0.1727
13770TIP3   OH262800   2.086   0.507  11.686  0.0021 -0.0194 -0.0952
13770TIP3    H162801   2.161   0.489  11.630  0.2543 -1.9793  0.8027
13770TIP3    H262802   2.018   0.448  11.654 -0.4133  0.1018  0.5565
13771TIP3   OH262803   6.535   5.312   5.127 -0.4338  0.0827 -0.4653
13771TIP3    H162804   6.563   5.275   5.211  0.2573 -0.4273 -0.9144
13771TIP3    H262805   6.609   5.366   5.099 -0.7167  0.3573 -0.6910
13772TIP3   OH262806   1.082   0.383   1.096  0.7747 -0.0042  0.0376
13772TIP3    H162807   1.066   0.359   1.188  2.4817 -0.2272  0.2991
13772TIP3    H262808   0.995   0.382   1.056  0.2984 -2.7826  0.9590
13773TIP3   OH262809   1.985   4.275  17.049 -0.4262 -0.8154  0.2194
13773TIP3    H162810   2.079   4.292  17.046 -0.9067  2.3705 -0.9076
13773TIP3    H262811   1.970   4.211  16.980  0.6531  0.8950 -1.7156
13774TIP3   OH262812   5.505   5.283  12.965 -0.1779 -0.2402 -0.0987
13774TIP3    H162813   5.561   5.262  12.891 -0.3230  0.6836 -0.4865
13774TIP3    H262814   5.505   5.379  12.968 -0.0669 -0.2623  1.1762
13775TIP3   OH262815   1.567   3.694   3.235 -0.2124  0.2580 -0.7029
13775TIP3    H162816   1.558   3.734   3.148  2.0336  3.0113  0.1758
13775TIP3    H262817   1.647   3.642   3.230 -0.9103 -0.8649 -0.6514
13776TIP3   OH262818   0.026   5.705  16.388 -0.0348 -0.1550  0.2762
13776TIP3    H162819   0.008   5.703  16.294 -2.2411 -0.4290  0.6543
13776TIP3    H262820  -0.004   5.791  16.416 -1.3341 -0.8366  1.0502
13777TIP3   OH262821   0.968   2.718  15.425  0.2611 -0.2004 -0.1838
13777TIP3    H162822   1.048   2.668  15.441 -1.4179 -2.8623  0.5235
13777TIP3    H262823   0.990   2.774  15.351  2.6909 -1.0416 -0.1945
13778TIP3   OH262824   1.066   2.913  15.239  0.2679 -0.2049 -0.2288
13778TIP3    H162825   1.012   2.948  15.168  0.6976 -1.3559 -1.1699
13778TIP3    H262826   1.045   2.967  15.315 -1.1815  0.2316 -0.9100
13779TIP3   OH262827   5.087   5.319  12.166  0.7656  0.1219 -0.3694
13779TIP3    H162828   5.160   5.303  12.106  0.1600 -1.8420 -0.6663
13779TIP3    H262829   5.024   5.368  12.113  0.1575 -1.7432 -1.4875
13780TIP3   OH262830   2.510   2.464  14.346  0.3713  0.2162 -0.4215
13780TIP3    H162831   2.538   2.554  14.361 -0.1063 -0.0365  2.5812
13780TIP3    H262832   2.443   2.448  14.412 -0.5123 -1.9549 -1.7237
13781TIP3   OH262833   1.441   2.048  17.163  0.3941 -0.7631  0.1806
13781TIP3    H162834   1.410   2.137  17.150 -0.1733 -1.1874 -1.6126
13781TIP3    H262835   1.465   2.044  17.256 -1.9010  0.5322  0.8966
13782TIP3   OH262836   6.095   6.225  15.027 -0.2323 -0.2301 -0.2254
13782TIP3    H162837   6.053   6.147  15.063 -0.5059  0.2296  0.4740
13782TIP3    H262838   6.176   6.193  14.988 -0.7150 -0.9736 -0.6414
13783TIP3   OH262839   0.508   3.089   1.694 -0.6067  0.1377 -0.4613
13783TIP3    H162840   0.477   3.169   1.735 -1.6164 -1.8740  3.1383
13783TIP3    H262841   0.429   3.050   1.656 -1.3974 -1.6503  2.6642
13784TIP3   OH262842   0.167   5.372  14.240  0.4678 -0.0327  0.1380
13784TIP3    H162843   0.217   5.397  14.318 -1.1398 -1.4821  1.7567
13784TIP3    H262844   0.081   5.411  14.254  0.2478 -0.0418 -1.0875
13785TIP3   OH262845   4.121   2.593   2.477  0.2098 -0.0080 -0.0877
13785TIP3    H162846   4.211   2.566   2.495  0.4224  0.4215 -0.5018
13785TIP3    H262847   4.129   2.678   2.434 -0.3634 -0.2605 -0.7094
13786TIP3   OH262848   0.063   6.273   0.885 -0.2062 -0.4030 -0.0366
13786TIP3    H162849   0.134   6.335   0.904  0.7604 -0.9887 -1.5561
13786TIP3    H262850   0.028   6.302   0.801 -1.6980 -0.2194  0.6170
13787TIP3   OH262851   4.103   0.829  16.636  0.0569 -0.0056 -0.3770
13787TIP3    H162852   4.154   0.835  16.716 -0.7970 -0.7040  0.2462
13787TIP3    H262853   4.166   0.802  16.569  0.9130  1.2264 -0.1065
13788TIP3   OH262854   1.712   1.048  15.323  0.0819  0.1373 -0.0504
13788TIP3    H162855   1.731   0.960  15.356  0.5445  0.3330  0.2139
13788TIP3    H262856   1.697   1.036  15.230  1.1325 -0.0859 -0.2063
13789TIP3   OH262857   1.355   3.387  15.042 -0.2958 -0.3336  0.6810
13789TIP3    H162858   1.271   3.417  15.008  1.0625  1.5642 -1.2811
13789TIP3    H262859   1.364   3.432  15.126 -0.3393  1.1973 -0.0950
13790TIP3   OH262860   2.052   5.073  11.474 -0.4507  0.5298 -0.1036
13790TIP3    H162861   2.019   5.080  11.564  1.1466 -0.7734  0.6453
13790TIP3    H262862   2.116   5.144  11.467 -0.4350  0.5122 -0.1374
13791TIP3   OH262863   3.073   6.460   1.114 -0.0292 -0.5147 -0.0140
13791TIP3    H162864   3.101   6.525   1.051  0.6168 -1.0064 -0.2432
13791TIP3    H262865   3.105   6.377   1.079 -1.0946 -1.0011  0.1178
13792TIP3   OH262866   3.013   4.585   1.607  0.0895  0.3114  0.0519
13792TIP3    H162867   3.071   4.661   1.613  0.2892  0.3068 -1.5197
13792TIP3    H262868   3.071   4.513   1.584 -0.7189  0.7217 -3.8636
13793TIP3   OH262869   2.200   4.760  13.081 -0.3576 -0.0894 -0.1598
13793TIP3    H162870   2.262   4.832  13.092  0.1863 -0.9001  2.8258
13793TIP3    H262871   2.116   4.803  13.066  0.5367  1.0418 -2.4994
13794TIP3   OH262872   1.664   4.715  11.941  0.2265  0.0242 -0.4621
13794TIP3    H162873   1.650   4.637  11.887 -0.9653  0.8029 -1.3431
13794TIP3    H262874   1.621   4.786  11.892  1.6541  1.3255  0.0847
13795TIP3   OH262875   6.281   6.438   1.623  0.7985 -0.2514 -0.0725
13795TIP3    H162876   6.272   6.518   1.570  2.7808 -0.4597 -0.7897
13795TIP3    H262877   6.193   6.424   1.658 -0.2184  0.8351 -1.9604
13796TIP3   OH262878   5.422   1.837  12.713  0.0332  0.1491 -0.0724
13796TIP3    H162879   5.469   1.768  12.758  0.9521  0.2573 -0.8387
13796TIP3    H262880   5.486   1.907  12.701 -0.9821  1.3095  1.0269
13797TIP3   OH262881   6.741   1.839  13.121  0.3304 -0.2894  0.0373
13797TIP3    H162882   6.686   1.917  13.111  0.6768 -0.1677 -1.0681
13797TIP3    H262883   6.784   1.829  13.036  2.5660  0.0111  1.0897
13798TIP3   OH262884   2.840   6.115   6.855 -0.0084  0.2748 -0.0634
13798TIP3    H162885   2.837   6.207   6.881 -0.2589  0.0106  0.8738
13798TIP3    H262886   2.752   6.097   6.822  0.0059  0.3364 -0.1364
13799TIP3   OH262887   2.309   0.068   4.076 -0.4112  0.1998 -0.6181
13799TIP3    H162888   2.252   0.141   4.050 -1.6950 -0.7588 -0.5616
13799TIP3    H262889   2.357   0.045   3.997  0.6572  1.6209 -0.4494
13800TIP3   OH262890   1.352   3.991  13.567  0.1190 -0.4845  0.0478
13800TIP3    H162891   1.274   3.964  13.519 -1.4603  3.1525  0.2872
13800TIP3    H262892   1.344   3.948  13.652 -0.6519 -1.5106 -0.5118
13801TIP3   OH262893   1.503   5.479  14.076  0.3394 -0.1294 -0.6611
13801TIP3    H162894   1.558   5.403  14.060 -0.2534 -0.8610  0.6349
13801TIP3    H262895   1.453   5.457  14.155 -0.1592  1.4269 -0.5013
13802TIP3   OH262896   4.171   4.243  14.701  0.3995  0.2946  0.3181
13802TIP3    H162897   4.133   4.257  14.788 -0.9316 -1.9742  0.1650
13802TIP3    H262898   4.216   4.159  14.707 -1.1816 -0.7697 -1.5981
13803TIP3   OH262899   2.086   3.305  14.732  0.2087  0.6417  0.3025
13803TIP3    H162900   2.108   3.388  14.774  1.6304  0.4299  0.0055
13803TIP3    H262901   1.995   3.289  14.758 -1.0849  3.6025 -1.7514
13804TIP3   OH262902   5.789   3.987  14.765  0.5429 -0.3821  0.2784
13804TIP3    H162903   5.698   3.995  14.735  0.7172  0.7302 -0.0033
13804TIP3    H262904   5.796   3.896  14.796 -0.7323 -0.4100  0.5564
13805TIP3   OH262905   2.118   4.009  16.060 -1.0936  0.3130 -0.2218
13805TIP3    H162906   2.129   4.004  15.965  2.3055  2.2850 -0.0974
13805TIP3    H262907   2.206   3.997  16.095 -1.6263  2.9992  2.4493
13806TIP3   OH262908   6.529   3.722   0.459  0.0792 -0.4536  0.6424
13806TIP3    H162909   6.563   3.691   0.375 -0.3693  0.5136  0.0931
13806TIP3    H262910   6.478   3.648   0.492  0.4508 -0.9265  0.1831
13807TIP3   OH262911   5.388   2.359  13.778 -0.2556  0.1038 -0.3119
13807TIP3    H162912   5.418   2.414  13.851  0.5812 -1.1722  0.3282
13807TIP3    H262913   5.464   2.308  13.753 -1.3142 -1.7195 -0.0165
13808TIP3   OH262914   0.110   5.711  14.551 -0.7135  0.0364 -0.4044
13808TIP3    H162915   0.032   5.671  14.512 -0.4179 -2.0807  1.0157
13808TIP3    H262916   0.178   5.645  14.541  0.1528  0.6878  0.8992
13809TIP3   OH262917   3.021   0.477   3.984 -0.0412 -0.0375 -1.0352
13809TIP3    H162918   2.988   0.457   4.072  0.8753  2.8106  0.0669
13809TIP3    H262919   3.061   0.563   3.992  2.8480 -0.9475 -3.5463
13810TIP3   OH262920   5.443   2.369  12.374 -0.0048 -0.2710  0.2101
13810TIP3    H162921   5.466   2.459  12.395 -0.4883 -0.2643  0.7661
13810TIP3    H262922   5.474   2.355  12.285  1.0683  0.0926  0.5169
13811TIP3   OH262923   6.326   5.220   4.306  0.5469 -0.2214  0.0992
13811TIP3    H162924   6.346   5.241   4.215  2.5605 -0.7343  0.3609
13811TIP3    H262925   6.379   5.281   4.357  2.5031 -2.3762  0.8518
13812TIP3   OH262926   6.091   5.120  11.461  0.4097 -0.4708  0.0285
13812TIP3    H162927   6.184   5.119  11.482  0.5989  0.7953 -0.6907
13812TIP3    H262928   6.083   5.179  11.387 -0.9181 -0.9105 -0.2153
13813TIP3   OH262929   1.203   6.626  11.659 -0.3371 -0.5246 -0.3624
13813TIP3    H162930   1.235   6.632  11.569  1.5680 -2.1984  0.1466
13813TIP3    H262931   1.138   6.556  11.657  1.3089 -2.1082 -0.0596
13814TIP3   OH262932   2.898   3.224   4.466 -0.5152 -0.5105 -0.5101
13814TIP3    H162933   2.908   3.147   4.522 -1.9529  0.3025  0.9650
13814TIP3    H262934   2.986   3.261   4.461 -0.2431 -0.9163  0.7943
13815TIP3   OH262935   2.606   3.403  14.424 -0.0431 -0.2577 -0.1647
13815TIP3    H162936   2.621   3.496  14.406  0.5375 -0.3025  0.0712
13815TIP3    H262937   2.542   3.376  14.358 -0.9924  0.5487  0.3803
13816TIP3   OH262938   0.828   2.467   1.621 -0.1943 -0.5664 -0.1227
13816TIP3    H162939   0.871   2.527   1.683  0.6509  0.5201 -1.6817
13816TIP3    H262940   0.893   2.400   1.602 -0.5127 -0.9961  0.2682
13817TIP3   OH262941   4.398   6.801  14.008 -0.2436 -0.5747  0.3514
13817TIP3    H162942   4.418   6.894  14.003 -1.5576 -0.2316  0.9566
13817TIP3    H262943   4.462   6.766  14.070 -0.4014  0.1328  0.9199
13818TIP3   OH262944   0.613   1.087  13.198  0.6602  0.4309  0.2987
13818TIP3    H162945   0.608   1.003  13.152 -0.2869  1.4285 -1.5054
13818TIP3    H262946   0.707   1.104  13.206  0.8629  0.3321 -1.5226
13819TIP3   OH262947   2.118   4.660  10.660 -0.1370  0.6258 -1.2098
13819TIP3    H162948   2.132   4.728  10.726  0.5602 -0.6737  0.0402
13819TIP3    H262949   2.035   4.683  10.619 -0.0403  2.0789 -0.6688
13820TIP3   OH262950   2.015   5.974   3.967 -0.2104  0.7608  0.1005
13820TIP3    H162951   1.963   5.979   4.047  0.3470  0.2672  0.4976
13820TIP3    H262952   1.962   5.922   3.907 -0.1577  0.2083  0.5253
13821TIP3   OH262953   6.746   1.435   0.920  0.0551  0.0071 -0.6368
13821TIP3    H162954   6.816   1.435   0.985 -1.0638  0.9433  0.6441
13821TIP3    H262955   6.703   1.350   0.932 -0.4807  0.3840  0.2816
13822TIP3   OH262956   2.340   3.252   1.360  0.4377 -0.3272  0.1829
13822TIP3    H162957   2.292   3.222   1.283  0.9103 -0.1380 -0.1887
13822TIP3    H262958   2.323   3.185   1.427 -0.9272  0.0960  0.2908
13823TIP3   OH262959   4.967   4.656   4.719  0.6162  0.0762  0.6238
13823TIP3    H162960   5.000   4.669   4.808  4.1541 -4.1574  0.2770
13823TIP3    H262961   5.026   4.706   4.664  1.3574 -0.9762  0.4448
13824TIP3   OH262962   5.986   5.022   4.331  0.0727 -0.7412 -0.0685
13824TIP3    H162963   5.952   5.008   4.243  0.3252 -1.4462 -0.0637
13824TIP3    H262964   6.029   5.108   4.327  0.7622 -1.1067 -0.8531
13825TIP3   OH262965   0.827   3.633   6.108  0.0250 -0.2429 -0.0146
13825TIP3    H162966   0.907   3.591   6.077 -0.1142 -1.6856  1.4276
13825TIP3    H262967   0.792   3.678   6.032  2.1391  0.3528 -0.7131
13826TIP3   OH262968   1.688   0.556  16.983 -0.2913  0.6263 -0.0501
13826TIP3    H162969   1.613   0.502  17.007 -0.1612 -0.3641 -1.7446
13826TIP3    H262970   1.745   0.552  17.060 -0.9868 -0.3785  0.4443
13827TIP3   OH262971   4.736   3.562  14.102 -0.3488 -0.1170  0.4029
13827TIP3    H162972   4.788   3.615  14.162  0.1790 -0.3818  0.1840
13827TIP3    H262973   4.645   3.577  14.129 -0.1086 -0.3741  1.3835
13828TIP3   OH262974   4.102   5.772   2.031 -0.0171 -0.1345 -0.0670
13828TIP3    H162975   4.088   5.858   2.071 -0.4386  0.1085 -0.7171
13828TIP3    H262976   4.143   5.720   2.100 -0.6419  0.2971  0.6473
13829TIP3   OH262977   2.311   6.513   6.011 -0.0774 -0.2429  0.0673
13829TIP3    H162978   2.404   6.494   5.994 -0.3062 -0.5659 -0.8587
13829TIP3    H262979   2.264   6.438   5.975 -0.6117 -0.9823  2.1770
13830TIP3   OH262980   4.872   2.136  10.297 -0.0202  0.4375 -0.1950
13830TIP3    H162981   4.872   2.094  10.382 -1.9255 -1.5263 -1.0794
13830TIP3    H262982   4.912   2.222  10.313 -0.0071  0.0131  2.5743
13831TIP3   OH262983   1.738   4.332  16.521  0.2018 -0.6795  0.3022
13831TIP3    H162984   1.744   4.309  16.614  1.0944  0.9186  0.6731
13831TIP3    H262985   1.671   4.400  16.517 -0.3148 -1.2020 -0.3550
13832TIP3   OH262986   2.946   2.593  14.062  0.3129 -0.0875 -0.4003
13832TIP3    H162987   2.921   2.674  14.107 -0.9607 -1.2922  1.2003
13832TIP3    H262988   3.017   2.557  14.114 -1.3513 -1.6301  0.9215
13833TIP3   OH262989   6.392   2.842   4.268  0.6970 -0.0949  0.0982
13833TIP3    H162990   6.370   2.933   4.252 -0.5743 -0.6223 -1.4449
13833TIP3    H262991   6.488   2.841   4.276  0.9521  1.1003 -2.0559
13834TIP3   OH262992   5.289   0.027   1.848 -0.3055  0.1843  0.0311
13834TIP3    H162993   5.272  -0.057   1.805  0.6423  0.3154 -0.6306
13834TIP3    H262994   5.374   0.055   1.813 -1.2436  2.0834 -0.8302
13835TIP3   OH262995   5.128   6.288  12.566  0.6782  0.4039  0.1661
13835TIP3    H162996   5.152   6.259  12.654  0.7346 -3.7303 -0.9655
13835TIP3    H262997   5.210   6.284  12.516  0.2170  0.2056 -0.5965
13836TIP3   OH262998   3.529   1.693  12.975 -0.3907 -0.4159 -0.0577
13836TIP3    H162999   3.602   1.710  12.916  0.4326 -0.2704  0.9526
13836TIP3    H263000   3.517   1.598  12.974  1.3688 -0.7206  1.4712
13837TIP3   OH263001   1.226   6.408   6.698  0.1477 -0.2484 -0.1592
13837TIP3    H163002   1.257   6.317   6.692  0.4612 -0.2376  1.1417
13837TIP3    H263003   1.172   6.411   6.776 -0.8856  0.4170 -0.8664
13838TIP3   OH263004   1.628   4.326   6.658  0.0554 -0.0885 -0.3326
13838TIP3    H163005   1.686   4.255   6.687  0.1150  0.7775  1.8199
13838TIP3    H263006   1.673   4.365   6.583  1.6634 -0.2444  0.5182
13839TIP3   OH263007   5.741   1.831  16.697  0.1189  0.1822  0.3727
13839TIP3    H163008   5.686   1.759  16.727 -0.0258  0.5414  0.9793
13839TIP3    H263009   5.785   1.863  16.776 -0.6625  1.4666  0.3164
13840TIP3   OH263010   6.263   4.900  15.403 -0.0299 -0.4547  0.7596
13840TIP3    H163011   6.263   4.839  15.329  0.4401 -1.1980  1.3513
13840TIP3    H263012   6.189   4.872  15.456  0.7623 -1.1566  1.5278
13841TIP3   OH263013   0.775   4.638  14.219 -0.0371  0.0549 -0.1992
13841TIP3    H163014   0.760   4.599  14.305  2.0627 -1.7389 -0.5704
13841TIP3    H263015   0.729   4.581  14.158  1.6382 -0.9470 -0.5824
13842TIP3   OH263016   0.852   2.750  17.198 -0.0859  0.3937 -0.2656
13842TIP3    H163017   0.826   2.693  17.126 -2.0349 -0.2061  0.8236
13842TIP3    H263018   0.856   2.837  17.159  1.1292 -0.1966 -1.5514
13843TIP3   OH263019   5.640   0.132  14.636 -0.5204  0.1153 -0.0636
13843TIP3    H163020   5.701   0.201  14.661  0.1735 -0.2558 -0.6906
13843TIP3    H263021   5.599   0.104  14.719 -0.2694  0.7632  0.2811
13844TIP3   OH263022   0.925   5.821  15.017 -0.0902  0.5798  0.1706
13844TIP3    H163023   1.006   5.871  15.012  0.7134 -0.5316  1.6535
13844TIP3    H263024   0.952   5.730  15.023 -1.4165  0.2300  1.4036
13845TIP3   OH263025   4.399   3.973   5.417 -0.1855 -0.0626 -0.0546
13845TIP3    H163026   4.439   4.053   5.382  1.9496 -1.2330 -0.4490
13845TIP3    H263027   4.311   4.000   5.442  0.6427  2.5497  0.3560
13846TIP3   OH263028   4.267   4.415  13.556 -0.1065 -0.1434  0.5584
13846TIP3    H163029   4.173   4.401  13.567 -0.7614  2.6872 -0.6278
13846TIP3    H263030   4.276   4.507  13.532  2.8809 -0.6100 -0.6492
13847TIP3   OH263031   4.612   5.654  13.874  0.4868  0.1072  0.4551
13847TIP3    H163032   4.675   5.643  13.945  0.6359 -0.6602  0.2135
13847TIP3    H263033   4.546   5.713  13.909  0.4103 -0.4912  1.3320
13848TIP3   OH263034   2.560   5.969  16.654  0.5260  0.3055  0.6139
13848TIP3    H163035   2.508   5.888  16.651 -0.2818  0.8361 -0.2205
13848TIP3    H263036   2.648   5.940  16.680  0.1469 -0.7792  0.7508
13849TIP3   OH263037   0.698   4.155   0.211  0.4480  0.0891  0.2411
13849TIP3    H163038   0.633   4.208   0.259  0.0129  0.6600 -0.9523
13849TIP3    H263039   0.780   4.170   0.259  0.2410  1.4808  0.2149
13850TIP3   OH263040   4.083   5.998  11.525 -0.0983 -0.1103  0.2445
13850TIP3    H163041   4.171   5.963  11.535 -0.2700 -0.9402 -0.9081
13850TIP3    H263042   4.036   5.930  11.476 -0.3921  1.7877 -2.2741
13851TIP3   OH263043   4.237   4.871   2.982 -0.2229 -0.2796 -0.5110
13851TIP3    H163044   4.210   4.819   3.057 -1.0762 -0.3337 -0.8395
13851TIP3    H263045   4.245   4.960   3.017 -0.2615 -0.3664 -0.2774
13852TIP3   OH263046   2.697   1.084   5.473 -0.2952  0.4951  0.0849
13852TIP3    H163047   2.769   1.105   5.414 -0.4791  0.1276 -0.2749
13852TIP3    H263048   2.672   1.167   5.513  0.3007  0.6300  0.1809
13853TIP3   OH263049   5.352   6.750  13.389 -0.4439  0.2452  0.6591
13853TIP3    H163050   5.324   6.696  13.463 -0.7718  0.0464  0.3942
13853TIP3    H263051   5.270   6.774  13.345 -0.3233  1.2112  0.9433
13854TIP3   OH263052   1.019   2.773   2.253 -0.3414 -0.3066 -0.3916
13854TIP3    H163053   1.014   2.829   2.175 -3.2830  0.4546  0.2148
13854TIP3    H263054   1.051   2.830   2.322  0.9789 -0.6244 -0.7195
13855TIP3   OH263055   2.887   5.196   4.716 -0.3073  0.0452  0.7877
13855TIP3    H163056   2.876   5.101   4.708 -0.2659  0.1526 -1.0285
13855TIP3    H263057   2.910   5.225   4.628  1.8354  1.4913  1.7181
13856TIP3   OH263058   6.326   2.360   2.555 -0.3580 -0.0481  0.2720
13856TIP3    H163059   6.390   2.390   2.490  0.1743  0.2436  0.9244
13856TIP3    H263060   6.377   2.345   2.635 -0.7648 -1.7396  0.2667
13857TIP3   OH263061   2.292   4.684   3.032  0.0998 -0.3142  0.6318
13857TIP3    H163062   2.262   4.594   3.044 -0.7750  0.0933  1.7907
13857TIP3    H263063   2.361   4.679   2.967 -0.2605 -1.7608  0.3378
13858TIP3   OH263064   5.741   3.750   3.530  0.3616  0.3020  0.1640
13858TIP3    H163065   5.753   3.691   3.604 -2.7777 -1.1616 -0.3280
13858TIP3    H263066   5.812   3.729   3.470  1.8958  0.2383  1.9285
13859TIP3   OH263067   1.710   2.922   0.985 -0.0426 -0.1939 -0.1766
13859TIP3    H163068   1.731   3.004   0.941  0.1987 -1.2704 -2.2033
13859TIP3    H263069   1.643   2.882   0.930  0.5846 -1.8230  0.1923
13860TIP3   OH263070   5.829   2.317   0.084 -0.0980  0.0448 -0.2237
13860TIP3    H163071   5.783   2.273   0.155  0.5428 -0.4401 -0.1003
13860TIP3    H263072   5.851   2.247   0.023 -2.6797  0.7326 -2.0957
13861TIP3   OH263073   2.525   4.705  15.330  0.2094  0.3245  0.1087
13861TIP3    H163074   2.570   4.757  15.264 -0.2537  0.6221  0.0277
13861TIP3    H263075   2.467   4.767  15.375  0.4009  0.0923  0.6843
13862TIP3   OH263076   0.918   3.354  11.445 -0.3055  0.1444  0.0938
13862TIP3    H163077   0.926   3.353  11.350 -0.9822 -3.0180 -0.0510
13862TIP3    H263078   1.005   3.332  11.477  0.6183  3.7493  0.4494
13863TIP3   OH263079   1.311   5.622  15.169  0.1250  0.8889 -0.0347
13863TIP3    H163080   1.336   5.708  15.134 -2.3808  1.8302  0.2216
13863TIP3    H263081   1.361   5.613  15.249  2.2485  0.9544 -1.2718
13864TIP3   OH263082   3.363   4.609   3.682 -0.1066 -0.1339  0.0565
13864TIP3    H163083   3.311   4.676   3.725 -0.8933 -1.0653  0.6081
13864TIP3    H263084   3.313   4.528   3.695 -0.3652 -0.4689 -2.5832
13865TIP3   OH263085   5.909   3.708  11.477 -0.0455  0.5149  0.0990
13865TIP3    H163086   5.902   3.756  11.394 -1.0582  0.8362  0.3572
13865TIP3    H263087   5.983   3.748  11.522 -0.0578  0.9507 -0.2587
13866TIP3   OH263088   2.583   1.600  12.871 -0.2051 -0.5520  0.1782
13866TIP3    H163089   2.516   1.640  12.816 -0.1248  0.3981  0.7470
13866TIP3    H263090   2.579   1.507  12.850 -1.1922 -0.4080 -0.3356
13867TIP3   OH263091   0.053   4.066  16.512  0.6926 -0.9376 -0.3994
13867TIP3    H163092  -0.025   4.079  16.459  1.1094 -2.4455 -1.4580
13867TIP3    H263093   0.064   4.148  16.560 -0.2281  0.1447 -1.9616
13868TIP3   OH263094   0.615   0.376   2.938  0.1732 -0.3278  0.2320
13868TIP3    H163095   0.525   0.380   2.970 -0.7347 -1.3980 -1.9282
13868TIP3    H263096   0.645   0.288   2.962  2.0940  1.1356  4.1384
13869TIP3   OH263097   6.576   4.172  13.159  0.0282  0.0757 -0.4669
13869TIP3    H163098   6.528   4.242  13.114 -1.9217 -0.1511  1.1271
13869TIP3    H263099   6.602   4.211  13.243 -1.3166 -1.1182  0.5578
13870TIP3   OH263100   0.214   5.477  15.551  0.3695 -0.0662 -0.2491
13870TIP3    H163101   0.158   5.411  15.592  0.3308 -0.9368 -1.6305
13870TIP3    H263102   0.223   5.448  15.460 -0.0369  2.1033 -1.0334
13871TIP3   OH263103   0.088   5.166  14.383  0.0251  0.4970 -0.0335
13871TIP3    H163104   0.112   5.230  14.316  0.3367 -0.4426 -0.8430
13871TIP3    H263105   0.011   5.122  14.348 -0.7779  1.0729  0.9562
13872TIP3   OH263106   5.703   0.740  13.760  1.0650 -0.3967 -0.2297
13872TIP3    H163107   5.714   0.833  13.779  1.6750 -0.3751 -0.6543
13872TIP3    H263108   5.736   0.729  13.671  1.1694 -1.0539 -0.1181
13873TIP3   OH263109   4.617   1.709  14.458 -0.6565  0.3657  0.5178
13873TIP3    H163110   4.584   1.794  14.429 -0.0722  0.7910  1.0664
13873TIP3    H263111   4.710   1.711  14.434 -1.0181 -0.8761 -1.1773
13874TIP3   OH263112   0.253   5.204  16.976  0.4030 -0.4652 -0.0072
13874TIP3    H163113   0.186   5.135  16.971  1.6301 -2.2503  3.8877
13874TIP3    H263114   0.336   5.156  16.976  1.4242  1.2460  0.1617
13875TIP3   OH263115   4.296   3.108   2.230  0.5193  0.3028 -0.1655
13875TIP3    H163116   4.372   3.050   2.239  0.1465 -0.4962 -1.8608
13875TIP3    H263117   4.283   3.116   2.136 -1.8356  0.0010  0.0875
13876TIP3   OH263118   5.300   1.116   2.442 -0.2906  0.1247 -0.0886
13876TIP3    H163119   5.268   1.129   2.353 -1.7022  0.9410  0.5112
13876TIP3    H263120   5.298   1.203   2.481 -2.3775 -0.5872  1.5876
13877TIP3   OH263121   1.126   1.637   5.230  0.3673  0.2304  0.1483
13877TIP3    H163122   1.159   1.620   5.142  0.4573 -0.7346  0.3597
13877TIP3    H263123   1.187   1.701   5.266  0.7715  0.0600 -0.2163
13878TIP3   OH263124   2.753   2.782   3.098  0.6041 -0.3370 -0.5873
13878TIP3    H163125   2.809   2.857   3.080 -0.2377  0.1802 -1.1052
13878TIP3    H263126   2.801   2.707   3.064  1.7308 -0.1268  0.4904
13879TIP3   OH263127   2.494   2.245   5.621  0.0717 -0.0471 -0.3137
13879TIP3    H163128   2.555   2.196   5.566  0.5710  1.1227 -0.8308
13879TIP3    H263129   2.521   2.336   5.611 -0.4806  0.2833  1.0742
13880TIP3   OH263130   5.982   0.088   4.224 -0.1924  0.2891  0.0106
13880TIP3    H163131   6.003   0.047   4.308 -0.5354  0.2907  0.0985
13880TIP3    H263132   5.887   0.091   4.222 -0.2069 -0.2026 -0.6118
13881TIP3   OH263133   4.287   3.457   3.535  0.2727 -0.2158  0.3009
13881TIP3    H163134   4.359   3.503   3.491 -1.4157  1.0985 -1.2340
13881TIP3    H263135   4.305   3.364   3.517  0.8222  0.1596 -1.3557
13882TIP3   OH263136   6.269   3.017  16.890 -0.0727  0.1233 -0.3464
13882TIP3    H163137   6.241   3.101  16.927  1.7593  1.5190 -1.9508
13882TIP3    H263138   6.331   3.040  16.822  0.5612 -2.5826 -0.7957
13883TIP3   OH263139   2.064   0.641  14.407  0.8478  0.1611  0.0878
13883TIP3    H163140   2.057   0.728  14.447 -0.1486  0.7674 -1.3341
13883TIP3    H263141   2.137   0.649  14.345  0.3900  0.1665 -0.4560
13884TIP3   OH263142   2.063   6.782  13.758  0.7187  0.4849  0.1964
13884TIP3    H163143   2.012   6.701  13.764  2.3348 -0.5992  0.1111
13884TIP3    H263144   2.154   6.752  13.749  1.6451  2.3155  2.5297
13885TIP3   OH263145   3.694   1.833   2.892  0.3894 -0.5581 -0.1439
13885TIP3    H163146   3.617   1.816   2.947  0.2581  0.6338  0.0525
13885TIP3    H263147   3.737   1.908   2.932  1.5350 -1.0545 -0.3981
13886TIP3   OH263148   2.070   2.218  15.329 -0.3667 -0.3450  0.4415
13886TIP3    H163149   2.045   2.234  15.420 -2.2960 -1.6716  0.1949
13886TIP3    H263150   2.034   2.132  15.309 -1.7264  0.7355 -2.1746
13887TIP3   OH263151   0.013   0.138   3.561 -0.3561 -0.4777  0.1260
13887TIP3    H163152  -0.042   0.216   3.568  0.3655  0.1763 -1.1574
13887TIP3    H263153   0.088   0.156   3.619  0.6960  0.6077 -1.4806
13888TIP3   OH263154   4.725   3.814   2.786  0.4056 -0.2553  0.0909
13888TIP3    H163155   4.631   3.800   2.786  0.4101 -0.2765 -0.1024
13888TIP3    H263156   4.762   3.734   2.824  0.3106 -0.0300  0.6678
13889TIP3   OH263157   4.982   3.170   3.324  0.4167  0.0005  0.4429
13889TIP3    H163158   5.005   3.087   3.281  0.5174  0.4088 -0.3076
13889TIP3    H263159   4.905   3.149   3.377  0.0156 -0.4218 -0.2906
13890TIP3   OH263160   0.365   3.013  12.838 -0.7527  0.4434 -0.3846
13890TIP3    H163161   0.341   2.927  12.804 -0.1464 -0.7840  2.1251
13890TIP3    H263162   0.461   3.014  12.835 -0.7127  0.5481  0.6609
13891TIP3   OH263163   2.672   3.995  10.482 -0.0745  0.2663  0.5476
13891TIP3    H163164   2.678   3.904  10.450  0.4321  0.4730  0.0361
13891TIP3    H263165   2.579   4.015  10.478 -0.0510  0.2479 -0.7309
13892TIP3   OH263166   2.016   4.865   2.355 -0.5108 -0.5611  0.3376
13892TIP3    H163167   2.055   4.814   2.284 -2.5324 -0.8232 -0.6590
13892TIP3    H263168   2.017   4.806   2.430  1.1675 -0.4690  0.4213
13893TIP3   OH263169   5.568   4.949  17.047 -0.0016 -0.3786  0.4598
13893TIP3    H163170   5.621   4.907  17.115  0.5671 -1.9367 -0.9006
13893TIP3    H263171   5.489   4.895  17.041  0.4689 -0.9563 -0.8917
13894TIP3   OH263172   5.603   3.430   1.545  0.0721 -0.2114 -0.7526
13894TIP3    H163173   5.522   3.411   1.592 -0.4247  1.2382 -0.9774
13894TIP3    H263174   5.593   3.386   1.460  0.4405 -1.7752 -0.0269
13895TIP3   OH263175   3.612   5.772  12.397 -0.0008 -0.0348 -0.4750
13895TIP3    H163176   3.589   5.714  12.324  0.3434 -1.2737  0.3802
13895TIP3    H263177   3.589   5.723  12.476 -0.0643  1.1556  0.2740
13896TIP3   OH263178   5.322   0.813  13.996  0.1221  0.3536 -0.2336
13896TIP3    H163179   5.409   0.851  14.001 -0.0658  0.8525 -0.6173
13896TIP3    H263180   5.263   0.888  14.007 -0.2691 -0.0966  0.9350
13897TIP3   OH263181   6.011   5.341  12.471  0.2454  0.0937  0.2582
13897TIP3    H163182   5.933   5.394  12.489 -0.0936 -0.7166  1.2723
13897TIP3    H263183   6.002   5.265  12.528  2.0374  0.2248  0.7798
13898TIP3   OH263184   2.595   6.801  14.043 -0.1053 -0.1155 -0.4305
13898TIP3    H163185   2.682   6.815  14.081 -0.0618  1.7930 -1.1485
13898TIP3    H263186   2.602   6.833  13.954 -1.6732  0.5394 -0.3553
13899TIP3   OH263187   6.070   0.700   3.548  0.5674  1.3955 -0.3575
13899TIP3    H163188   5.977   0.705   3.527  0.8989  1.6506 -1.8853
13899TIP3    H263189   6.073   0.672   3.639 -0.9989  1.2508 -0.3320
13900TIP3   OH263190   0.225   1.983  16.140 -0.7362 -0.5969 -0.8880
13900TIP3    H163191   0.240   2.071  16.176 -0.3258 -0.5340 -1.2058
13900TIP3    H263192   0.297   1.931  16.176 -2.1291 -1.3327  1.0242
13901TIP3   OH263193   3.317   0.913   0.639 -0.2921 -0.0536 -0.1317
13901TIP3    H163194   3.336   1.007   0.633  1.5643 -0.3618  0.3355
13901TIP3    H263195   3.292   0.900   0.730 -2.5849  0.2840 -0.6561
13902TIP3   OH263196   0.191   1.858  12.637  0.0251 -0.2085 -0.6191
13902TIP3    H163197   0.204   1.947  12.604  0.5480  0.2965  0.8579
13902TIP3    H263198   0.240   1.802  12.577  1.0272  0.6815 -0.6474
13903TIP3   OH263199   0.109   0.692  11.795  0.1530 -0.1075 -0.4230
13903TIP3    H163200   0.058   0.753  11.848  0.8238  1.4538 -1.5204
13903TIP3    H263201   0.180   0.745  11.758  2.4481 -2.1112  0.8023
13904TIP3   OH263202   3.598   4.356   0.522  0.4480 -0.5457 -0.0270
13904TIP3    H163203   3.556   4.430   0.478  0.7193 -0.5045 -0.2183
13904TIP3    H263204   3.626   4.299   0.451  1.5341 -0.1267  0.0537
13905TIP3   OH263205   3.117   4.530  13.674 -0.1756  0.0694  0.6211
13905TIP3    H163206   3.065   4.453  13.697  2.2401 -2.1470 -0.7551
13905TIP3    H263207   3.078   4.562  13.593 -1.0487  0.1539  1.0664
13906TIP3   OH263208   5.689   2.609   4.955 -0.0010 -0.4871 -0.2310
13906TIP3    H163209   5.653   2.647   4.875  0.2161 -3.2895 -1.7777
13906TIP3    H263210   5.728   2.526   4.927  2.0444 -0.5632  2.4432
13907TIP3   OH263211   0.938   4.963   6.000 -0.4142  0.0240  0.3698
13907TIP3    H163212   0.948   4.888   5.941  1.9318  0.1163  0.5792
13907TIP3    H263213   0.853   4.948   6.042 -0.9580 -1.4000 -1.1120
13908TIP3   OH263214   4.552   3.936   3.806 -0.9071  0.0661  0.9430
13908TIP3    H163215   4.484   3.990   3.764 -0.9450 -0.0797  0.8190
13908TIP3    H263216   4.544   3.957   3.899  0.4437  1.8728  0.7248
13909TIP3   OH263217   3.091   1.813   4.313 -0.5251  0.8111 -0.2102
13909TIP3    H163218   3.006   1.792   4.274 -0.0897 -0.3949 -0.5519
13909TIP3    H263219   3.153   1.757   4.266  0.1580  0.0261  1.5515
13910TIP3   OH263220   2.113   3.681   0.664 -0.3849  0.6600 -0.2950
13910TIP3    H163221   2.018   3.683   0.678 -1.0605  0.4360 -3.8763
13910TIP3    H263222   2.129   3.596   0.622  1.4008  0.7640  0.1002
13911TIP3   OH263223   1.401   5.711   1.560 -0.3033  0.0332  0.6059
13911TIP3    H163224   1.308   5.728   1.544 -0.1556 -0.7673 -1.3657
13911TIP3    H263225   1.421   5.633   1.508  1.6541  0.6342  0.3649
13912TIP3   OH263226   4.141   0.253   5.637  0.3288 -0.0710 -0.4196
13912TIP3    H163227   4.067   0.194   5.638 -0.5973  0.9423 -2.4795
13912TIP3    H263228   4.102   0.341   5.638  1.5434  0.4924 -0.3616
13913TIP3   OH263229   4.409   0.969   4.440  0.3593  0.0544 -0.0049
13913TIP3    H163230   4.318   0.994   4.459 -0.1582 -0.4856 -1.6110
13913TIP3    H263231   4.402   0.901   4.374  1.9304 -0.6171  0.4610
13914TIP3   OH263232   0.334   4.005   0.869  0.8573  0.1359 -0.3577
13914TIP3    H163233   0.421   3.967   0.862  0.7797 -0.1485  0.1746
13914TIP3    H263234   0.278   3.948   0.816  0.7407 -0.5049  0.4414
13915TIP3   OH263235   3.330   1.809   5.923 -0.5029  0.4118 -0.0590
13915TIP3    H163236   3.375   1.830   6.005  0.5155 -0.4921 -0.3611
13915TIP3    H263237   3.239   1.798   5.948  0.0521 -1.5616  1.2949
13916TIP3   OH263238   3.595   5.130  13.475 -0.4459 -0.3811  0.4621
13916TIP3    H163239   3.665   5.165  13.420  2.8094 -1.9381  3.2551
13916TIP3    H263240   3.574   5.045  13.436 -0.4282 -0.1218 -0.1203
13917TIP3   OH263241   1.050   4.599  12.314 -0.6384 -0.2793  0.2056
13917TIP3    H163242   1.069   4.507  12.300  3.1316  0.0966  1.7194
13917TIP3    H263243   1.068   4.614  12.407  0.4361  2.2693 -0.3222
13918TIP3   OH263244   6.352   0.720  11.942  0.0789 -0.5260 -0.6673
13918TIP3    H163245   6.407   0.798  11.946  1.0777 -1.1991 -0.7215
13918TIP3    H263246   6.288   0.739  11.874  0.0028  0.4314 -0.3388
13919TIP3   OH263247   1.315   6.536   1.354  0.0641 -0.1435 -0.1411
13919TIP3    H163248   1.321   6.631   1.343  1.4263 -0.3321 -1.3067
13919TIP3    H263249   1.403   6.511   1.384  0.0122 -1.1409 -0.8033
13920TIP3   OH263250   2.565   2.946  12.414  0.4319 -0.7244  0.3764
13920TIP3    H163251   2.656   2.934  12.439  1.2905  1.0626 -1.5929
13920TIP3    H263252   2.543   3.034  12.442 -0.8368 -1.2504  1.1373
13921TIP3   OH263253   5.418   0.348  16.452  0.3072 -0.5115  0.5195
13921TIP3    H163254   5.440   0.299  16.531 -0.3789  0.3590  1.2735
13921TIP3    H263255   5.322   0.349  16.450  0.3015  0.6752  0.4609
13922TIP3   OH263256   6.429   3.853  13.086 -0.0277 -0.0337 -0.0008
13922TIP3    H163257   6.512   3.842  13.133  0.5463 -0.7451 -1.1567
13922TIP3    H263258   6.408   3.946  13.098  1.4695  0.4152 -0.5385
13923TIP3   OH263259   5.560   1.875   5.971  0.4146  0.1450 -0.7481
13923TIP3    H163260   5.467   1.895   5.985  0.2349 -0.6819 -0.7122
13923TIP3    H263261   5.560   1.788   5.932  1.2928 -1.2514  2.0773
13924TIP3   OH263262   6.312   0.908  10.768  0.7418  0.0116 -0.5317
13924TIP3    H163263   6.281   0.854  10.695  0.9641 -0.3081 -0.3946
13924TIP3    H263264   6.369   0.973  10.727  1.5436 -0.6873 -0.5630
13925TIP3   OH263265   4.159   3.360  14.723  0.4429  0.1403 -0.4634
13925TIP3    H163266   4.253   3.376  14.735  0.3945  0.4171 -0.4668
13925TIP3    H263267   4.146   3.367  14.628  0.5180 -0.4305 -0.5224
13926TIP3   OH263268   0.451   0.172   0.562  0.2008 -0.2213 -0.4529
13926TIP3    H163269   0.402   0.229   0.621  0.4831 -1.3318  0.9064
13926TIP3    H263270   0.530   0.149   0.611  1.9543  1.2266 -2.4607
13927TIP3   OH263271   0.766   2.787   3.471  0.3644  0.2592  0.5603
13927TIP3    H163272   0.678   2.787   3.509 -1.0118 -1.1683 -2.2352
13927TIP3    H263273   0.820   2.740   3.534 -0.6921  1.7210  2.6408
13928TIP3   OH263274   2.289   5.128   4.133  0.2932  0.5089 -0.1446
13928TIP3    H163275   2.255   5.039   4.140  2.2069 -0.1504  1.4449
13928TIP3    H263276   2.304   5.140   4.039 -0.6406 -0.5687 -0.4546
13929TIP3   OH263277   0.664   3.324   0.765  0.6130  0.3863 -0.0976
13929TIP3    H163278   0.672   3.305   0.671 -1.6336 -0.5110 -0.1806
13929TIP3    H263279   0.745   3.291   0.803  0.9577 -0.5390 -1.5401
13930TIP3   OH263280   5.945   1.768   3.800 -0.0124 -0.3485  0.1622
13930TIP3    H163281   6.003   1.837   3.832  0.8634 -1.2932  0.6618
13930TIP3    H263282   5.893   1.743   3.877  0.7380 -1.2757  0.3899
13931TIP3   OH263283   2.410   1.150   0.672 -0.4649 -0.2656 -0.8525
13931TIP3    H163284   2.324   1.149   0.630 -0.4304  0.0852 -0.9337
13931TIP3    H263285   2.456   1.076   0.634 -0.9761 -0.8835 -0.2953
13932TIP3   OH263286   3.935   3.990  16.399 -0.1757 -0.6930 -0.5362
13932TIP3    H163287   3.905   3.917  16.346 -1.6257 -1.2513  0.9403
13932TIP3    H263288   3.873   3.993  16.472 -1.6922  3.5004 -1.7141
13933TIP3   OH263289   6.012   4.315  12.148 -0.4000  0.4032 -0.6301
13933TIP3    H163290   5.969   4.318  12.233 -0.5495 -0.9819 -0.6365
13933TIP3    H263291   6.015   4.222  12.126 -0.1019  0.7194 -2.0098
13934TIP3   OH263292   4.259   3.208   4.445 -0.4362  0.2863 -0.0976
13934TIP3    H163293   4.248   3.234   4.354 -0.2760 -0.0871 -0.2286
13934TIP3    H263294   4.353   3.187   4.453 -0.1225  1.8467  0.5725
13935TIP3   OH263295   0.694   4.706   4.758  0.0665 -0.6296  0.0503
13935TIP3    H163296   0.650   4.761   4.694 -2.1299 -2.5237 -0.2039
13935TIP3    H263297   0.683   4.616   4.725 -0.8503 -1.6608  2.7979
13936TIP3   OH263298   3.346   0.888  13.437 -0.1040 -0.1005 -0.8065
13936TIP3    H163299   3.303   0.808  13.407 -0.2221 -1.2125  2.0397
13936TIP3    H263300   3.277   0.955  13.436 -0.6200 -0.6342 -0.9900
13937TIP3   OH263301   4.676   5.136  15.149  0.1485 -0.2737 -0.4055
13937TIP3    H163302   4.596   5.123  15.199  0.1998  1.0360  0.0776
13937TIP3    H263303   4.737   5.174  15.212  0.2548  1.3146 -1.3892
13938TIP3   OH263304   4.764   0.292   5.018 -0.3260 -0.4902 -0.0948
13938TIP3    H163305   4.708   0.226   4.976  0.2640 -0.9265 -0.2199
13938TIP3    H263306   4.843   0.243   5.044 -0.2091  0.0078  0.5175
13939TIP3   OH263307   0.263   0.447  13.829  0.1828  0.0831 -0.1430
13939TIP3    H163308   0.358   0.451  13.819  0.1045  0.6195 -0.7664
13939TIP3    H263309   0.245   0.354  13.846  0.8594  0.0652  0.5312
13940TIP3   OH263310   0.946   6.604  12.360  0.0616  0.2797 -0.0943
13940TIP3    H163311   0.976   6.521  12.322  0.8333  0.4464  0.1275
13940TIP3    H263312   0.916   6.581  12.448  2.3829  0.5456  0.8376
13941TIP3   OH263313   2.898   3.181  16.291  0.2493  0.0551 -0.5183
13941TIP3    H163314   2.987   3.218  16.289  0.2357  0.0695 -1.1348
13941TIP3    H263315   2.910   3.090  16.262 -0.2013  0.6690 -2.8451
13942TIP3   OH263316   5.123   5.926  15.044  0.2507  0.3152 -0.0793
13942TIP3    H163317   5.034   5.912  15.078 -0.2202  0.1320 -1.3306
13942TIP3    H263318   5.143   5.845  14.997  1.0749  0.3682  0.1799
13943TIP3   OH263319   4.415   1.998   5.174  0.1751  0.1990 -0.4330
13943TIP3    H163320   4.353   1.953   5.117  0.6574  0.6194 -1.2942
13943TIP3    H263321   4.449   1.929   5.231 -0.6509 -0.1367 -0.3404
13944TIP3   OH263322   6.641   1.180  11.447  0.3196 -0.2893 -0.7309
13944TIP3    H163323   6.619   1.120  11.519  0.8072 -0.3675 -0.6436
13944TIP3    H263324   6.558   1.191  11.400 -0.0798  0.0101  0.0196
13945TIP3   OH263325   4.882   6.150  15.278  0.8411  0.1466 -0.0693
13945TIP3    H163326   4.804   6.168  15.226 -0.2693 -2.2640  0.6452
13945TIP3    H263327   4.953   6.191  15.229 -0.5517  0.4683 -1.9348
13946TIP3   OH263328   2.000   5.661   4.078  0.1663  0.4629 -0.4821
13946TIP3    H163329   2.081   5.609   4.077  2.3477  3.5756 -1.3983
13946TIP3    H263330   1.980   5.675   3.985 -1.7936 -0.6494 -0.2776
13947TIP3   OH263331   3.338   5.789  11.353  0.6607 -0.9519  0.3362
13947TIP3    H163332   3.362   5.811  11.263 -2.5025  1.7815 -0.0457
13947TIP3    H263333   3.375   5.860  11.406 -0.2844 -0.7044  0.6862
13948TIP3   OH263334   3.723   6.330   4.630  0.3523  0.6395 -0.2635
13948TIP3    H163335   3.733   6.425   4.624 -0.1080  0.6560 -0.8164
13948TIP3    H263336   3.669   6.306   4.555 -1.1221  0.1832  0.8700
13949TIP3   OH263337   1.333   5.478  15.626  0.4641 -0.4675 -0.2396
13949TIP3    H163338   1.359   5.386  15.626 -0.8136 -0.9214 -2.4054
13949TIP3    H263339   1.411   5.526  15.599  0.4044 -1.3039 -2.0876
13950TIP3   OH263340   1.144   0.774   2.664 -0.2673  0.0965 -0.0241
13950TIP3    H163341   1.049   0.758   2.668 -0.1338 -0.7974 -0.1592
13950TIP3    H263342   1.166   0.808   2.751 -0.7506  0.5640 -0.0780
13951TIP3   OH263343   2.386   1.853   2.146  0.0875 -0.1699  0.3568
13951TIP3    H163344   2.465   1.815   2.183  0.9884 -0.5672 -1.8119
13951TIP3    H263345   2.338   1.887   2.221  2.8217  1.0744  1.6942
13952TIP3   OH263346   2.235   2.781   1.680 -0.4466 -0.4931 -0.0448
13952TIP3    H163347   2.308   2.827   1.720  0.3367 -1.8086  0.1164
13952TIP3    H263348   2.235   2.695   1.723 -1.9775 -0.5746 -0.1676
13953TIP3   OH263349   2.078   4.147  16.388 -0.1829 -0.8188  0.1123
13953TIP3    H163350   2.155   4.091  16.398  0.3618 -0.5412 -1.9146
13953TIP3    H263351   2.020   4.098  16.330 -0.7119 -0.2518  0.1559
13954TIP3   OH263352   5.403   4.434  11.334  0.2860 -0.1059  0.2136
13954TIP3    H163353   5.314   4.463  11.311  0.5842 -0.3831 -1.4265
13954TIP3    H263354   5.390   4.349  11.375 -0.1597 -0.5434 -0.8076
13955TIP3   OH263355   1.159   0.006   0.215 -0.0769 -0.4271  0.5589
13955TIP3    H163356   1.146   0.052   0.298  0.0177  0.6236  0.0103
13955TIP3    H263357   1.078  -0.042   0.201 -0.3042 -0.1770  0.9968
13956TIP3   OH263358   0.313   3.070   2.091 -0.0881 -0.3768  0.1824
13956TIP3    H163359   0.340   3.159   2.115  0.8502 -0.4393 -0.5621
13956TIP3    H263360   0.283   3.031   2.173 -0.9914  0.7850  0.4227
13957TIP3   OH263361   1.948   4.136   1.774  0.2285 -0.4765  0.8431
13957TIP3    H163362   1.854   4.143   1.756  0.0176 -0.3625  1.9195
13957TIP3    H263363   1.959   4.049   1.812  0.5294 -0.4130  0.9090
13958TIP3   OH263364   6.179   4.344   2.148 -0.0991  0.0947 -0.0579
13958TIP3    H163365   6.243   4.283   2.184 -0.5542 -0.5810 -0.3557
13958TIP3    H263366   6.100   4.290   2.136 -0.9369  1.0606  0.9530
13959TIP3   OH263367   5.073   6.419  11.356 -0.7324  1.0996 -0.5838
13959TIP3    H163368   5.001   6.419  11.420 -1.5122  1.2599 -1.4431
13959TIP3    H263369   5.149   6.390  11.406 -1.9049 -1.7138 -0.2259
13960TIP3   OH263370   6.232   0.556   5.205  0.7169  0.4756  0.4269
13960TIP3    H163371   6.164   0.577   5.269 -1.2071  1.7986 -1.8738
13960TIP3    H263372   6.251   0.463   5.220 -2.7208 -0.3892  0.2830
13961TIP3   OH263373   1.350   3.238  11.030 -0.1863 -0.2246 -0.5910
13961TIP3    H163374   1.274   3.251  10.974 -0.6669  1.2346  0.3473
13961TIP3    H263375   1.315   3.237  11.119  0.9227  1.1401 -0.0959
13962TIP3   OH263376   3.825   6.233  14.227  0.0537  0.7497  0.4835
13962TIP3    H163377   3.837   6.248  14.321 -1.5527  0.3372  0.7813
13962TIP3    H263378   3.775   6.308  14.197  1.3180  1.3336 -0.2612
13963TIP3   OH263379   0.997   1.427   5.357 -0.0719 -0.7715  0.2888
13963TIP3    H163380   1.001   1.341   5.316 -1.5325 -0.3658 -0.7761
13963TIP3    H263381   1.033   1.486   5.292 -1.8028 -0.2087 -0.2017
13964TIP3   OH263382   4.332   5.004   1.480  0.4625  0.0485 -0.7445
13964TIP3    H163383   4.375   4.998   1.394  0.5715  1.5580 -0.8216
13964TIP3    H263384   4.321   5.098   1.495  1.3669 -0.1389  1.3675
13965TIP3   OH263385   0.350   0.497   1.109 -0.0432  0.2042  0.0521
13965TIP3    H163386   0.321   0.547   1.185  1.1541  1.0031  0.0240
13965TIP3    H263387   0.418   0.552   1.070  0.6059 -1.0070 -0.5654
13966TIP3   OH263388   5.192   5.890  13.082 -0.2403  0.5305 -0.3374
13966TIP3    H163389   5.110   5.864  13.124 -1.2866  1.4704 -1.7090
13966TIP3    H263390   5.219   5.968  13.130  1.1580 -1.0528  1.6325
13967TIP3   OH263391   0.420   6.314  14.918  0.0415  0.3514  0.3331
13967TIP3    H163392   0.421   6.356  15.004  0.3958  0.6895  0.1678
13967TIP3    H263393   0.343   6.258  14.920 -0.2182  0.7114  0.7038
13968TIP3   OH263394   5.232   0.425   3.609  0.7361  0.2340 -0.6620
13968TIP3    H163395   5.194   0.489   3.669  2.9015 -0.8570  2.1143
13968TIP3    H263396   5.276   0.478   3.543  1.3608  1.6478  0.8114
13969TIP3   OH263397   4.546   5.812  11.220  0.0660 -0.4991 -0.4073
13969TIP3    H163398   4.559   5.872  11.146 -0.9993 -2.7704 -2.5748
13969TIP3    H263399   4.456   5.781  11.210  0.0606 -1.2459  1.5944
13970TIP3   OH263400   3.139   2.792  11.982  0.1341 -0.3295  0.2675
13970TIP3    H163401   3.043   2.794  11.981  0.0164  3.5579 -1.0752
13970TIP3    H263402   3.163   2.829  12.067  0.2570  1.6839 -0.5860
13971TIP3   OH263403   6.721   6.720  16.553  0.7579  0.0529 -0.2186
13971TIP3    H163404   6.804   6.673  16.556 -0.0054 -1.4788 -1.5689
13971TIP3    H263405   6.704   6.745  16.644  0.7332 -3.2482  0.7939
13972TIP3   OH263406   2.710   2.220   1.130 -0.1717 -0.0342  0.4808
13972TIP3    H163407   2.694   2.140   1.180 -2.2824 -0.3169 -0.5080
13972TIP3    H263408   2.662   2.206   1.048  1.8195  1.0678 -0.9533
13973TIP3   OH263409   2.764   0.502   5.721 -0.0930 -0.5186 -0.1603
13973TIP3    H163410   2.858   0.484   5.731  0.2142  0.7357 -0.5720
13973TIP3    H263411   2.759   0.555   5.642 -0.7406  2.2646  1.6103
13974TIP3   OH263412   6.734   3.924   1.521  0.0178 -0.3599 -0.0926
13974TIP3    H163413   6.793   3.873   1.466  1.6899  1.3168  0.0276
13974TIP3    H263414   6.655   3.936   1.468  0.1813 -1.7523 -0.6866
13975TIP3   OH263415   1.280   1.241   5.111  0.3771  0.3118 -0.6652
13975TIP3    H163416   1.329   1.299   5.052  1.6238  1.7795  1.6181
13975TIP3    H263417   1.343   1.173   5.135  0.3813  0.5800  0.0994
13976TIP3   OH263418   3.594   5.970  14.655 -0.6098 -0.6335 -0.2614
13976TIP3    H163419   3.522   6.019  14.615 -0.3037  1.0066  1.0483
13976TIP3    H263420   3.663   5.971  14.589 -0.6774  0.5911 -0.3339
13977TIP3   OH263421   4.773   2.495  13.374  0.0415 -0.4615  0.2819
13977TIP3    H163422   4.704   2.539  13.424  0.7312 -0.5152  1.3228
13977TIP3    H263423   4.817   2.439  13.439 -0.4557 -2.2771 -0.8813
13978TIP3   OH263424   6.206   2.963   5.576 -0.2516  0.6884 -0.3096
13978TIP3    H163425   6.228   2.924   5.491 -0.0033  2.4441 -1.0944
13978TIP3    H263426   6.137   2.906   5.611  0.0081 -0.3698 -1.4339
13979TIP3   OH263427   5.602   2.266  13.620  0.3078 -0.0589  0.4035
13979TIP3    H163428   5.530   2.273  13.558 -0.6268 -1.0149  1.3258
13979TIP3    H263429   5.642   2.353  13.621 -1.1581  0.6438  0.2373
13980TIP3   OH263430   4.562   1.302   0.402 -0.8930 -0.0758 -0.1426
13980TIP3    H163431   4.626   1.320   0.471 -1.4283 -3.4605  1.4861
13980TIP3    H263432   4.597   1.224   0.357 -3.0182 -1.0376 -0.2498
13981TIP3   OH263433   0.244   3.650  13.234 -0.4281 -0.1572  0.0295
13981TIP3    H163434   0.175   3.689  13.181  0.0280 -0.8793 -1.1234
13981TIP3    H263435   0.198   3.585  13.289 -0.9249  0.7233  0.6788
13982TIP3   OH263436   0.204   3.058  16.949 -0.0594  0.1885 -1.0278
13982TIP3    H163437   0.163   2.986  16.996 -1.0345  0.8702 -0.8045
13982TIP3    H263438   0.258   3.102  17.015 -1.6881  1.3462 -0.3884
13983TIP3   OH263439   6.527   0.604   1.704 -0.0014  0.4962  0.1949
13983TIP3    H163440   6.492   0.516   1.720 -0.0950  0.2013 -1.3800
13983TIP3    H263441   6.622   0.594   1.706  0.0674 -0.2434 -2.4207
13984TIP3   OH263442   3.929   3.537   2.484 -0.0138 -0.2334 -0.1128
13984TIP3    H163443   3.954   3.454   2.523 -1.6735 -0.4968  0.5050
13984TIP3    H263444   3.905   3.516   2.394  1.7071 -0.0038 -0.6598
13985TIP3   OH263445   2.464   3.862   4.309 -0.6148  0.5482  0.2704
13985TIP3    H163446   2.437   3.815   4.230 -0.6086 -0.8568  1.0630
13985TIP3    H263447   2.387   3.911   4.336  0.0191  2.9292 -1.8265
13986TIP3   OH263448   6.693   0.748  16.051  0.3159 -0.0644  0.1460
13986TIP3    H163449   6.704   0.811  15.980 -1.2081  1.9098  1.5349
13986TIP3    H263450   6.768   0.761  16.108  1.4294 -1.5037 -0.9067
13987TIP3   OH263451   0.372   4.555  14.007  0.5813 -0.2356 -0.0504
13987TIP3    H163452   0.389   4.570  14.100  0.4954 -1.3864  0.1614
13987TIP3    H263453   0.287   4.595  13.992  0.5975 -0.0390  0.3632
13988TIP3   OH263454   4.728   1.906  10.827 -0.1525  0.4115 -0.3563
13988TIP3    H163455   4.782   1.968  10.875  0.6540  0.5509 -1.4105
13988TIP3    H263456   4.775   1.823  10.834 -2.6947 -1.0147  3.6814
13989TIP3   OH263457   6.239   3.972   4.277 -1.3681  0.0526 -0.1116
13989TIP3    H163458   6.240   3.877   4.282 -1.2333  0.0465 -0.2347
13989TIP3    H263459   6.222   4.001   4.367  4.1597  0.0178  1.3056
13990TIP3   OH263460   1.499   2.313   0.219 -0.3944 -0.1409 -0.4606
13990TIP3    H163461   1.519   2.333   0.128 -1.8594 -0.3304 -0.8570
13990TIP3    H263462   1.405   2.331   0.227 -0.8834 -2.7001  0.2864
13991TIP3   OH263463   2.151   0.238   3.960  0.0434 -0.0658  0.6050
13991TIP3    H163464   2.138   0.184   3.881 -2.9149  0.0573  0.8798
13991TIP3    H263465   2.142   0.328   3.929  1.1392  0.1077  0.7595
13992TIP3   OH263466   0.452   4.041   5.458  0.1550 -0.3694 -0.2316
13992TIP3    H163467   0.394   4.000   5.522 -0.0256  1.6998  1.0029
13992TIP3    H263468   0.536   4.050   5.503  0.9360 -1.6168 -1.3622
13993TIP3   OH263469   3.969   6.775  17.225 -0.0067  0.3107 -0.8885
13993TIP3    H163470   3.878   6.802  17.237 -0.8292 -1.9067 -1.6023
13993TIP3    H263471   3.995   6.739  17.310  0.1174  0.6967 -0.7620
13994TIP3   OH263472   4.070   5.683   3.513  0.4700 -0.1084 -0.4384
13994TIP3    H163473   4.047   5.766   3.471  0.7574  0.1222 -0.1476
13994TIP3    H263474   4.160   5.666   3.485  0.1388 -0.7382 -1.1481
13995TIP3   OH263475   4.271   0.668  12.241 -0.0098  0.6299 -0.7412
13995TIP3    H163476   4.314   0.716  12.312  1.3958  0.0379 -1.1649
13995TIP3    H263477   4.183   0.707  12.236 -0.5971 -0.1437  2.1163
13996TIP3   OH263478   4.990   1.465   1.292 -0.1343  0.2155 -0.1955
13996TIP3    H163479   4.979   1.370   1.299  0.1360  0.0772 -1.3787
13996TIP3    H263480   5.069   1.476   1.239 -0.5325  1.0880 -0.6277
13997TIP3   OH263481   1.661   3.365   5.531 -0.1406  0.3572 -0.0587
13997TIP3    H163482   1.746   3.408   5.543  0.9977 -0.6221 -3.5344
13997TIP3    H263483   1.656   3.302   5.603  2.7930 -0.5661 -0.5419
13998TIP3   OH263484   2.610   1.777  15.620  0.5989  0.2322 -0.3697
13998TIP3    H163485   2.520   1.765  15.590  0.6296 -0.1739 -0.3032
13998TIP3    H263486   2.664   1.748  15.546  0.6746  0.1185 -0.2693
13999TIP3   OH263487   3.932   5.189   4.765  0.3266 -0.0077  0.4392
13999TIP3    H163488   3.962   5.262   4.818 -0.1707  0.7924 -0.3621
13999TIP3    H263489   3.921   5.117   4.827 -0.2515  0.9044  1.4102
14000TIP3   OH263490   3.821   0.674  12.060 -0.7124  0.1863  0.0142
14000TIP3    H163491   3.847   0.596  12.110 -0.0503  0.4444  0.0850
14000TIP3    H263492   3.787   0.735  12.125  2.1595  1.3892  0.5345
14001TIP3   OH263493   0.988   6.207  16.228  0.3470 -0.4166  0.1039
14001TIP3    H163494   0.918   6.162  16.181  2.0783 -1.9389 -1.1897
14001TIP3    H263495   0.969   6.192  16.320 -0.2282 -2.1025 -0.2623
14002TIP3   OH263496   3.311   4.847  12.632 -0.5588  0.0341  0.0856
14002TIP3    H163497   3.388   4.790  12.628  0.9320  1.7548  2.0531
14002TIP3    H263498   3.241   4.790  12.664 -0.0531 -1.4688 -1.3552
14003TIP3   OH263499   6.735   6.241  14.424 -0.4147  0.6110  0.4429
14003TIP3    H163500   6.776   6.155  14.429 -0.2797  0.4242 -2.3744
14003TIP3    H263501   6.716   6.254  14.331 -2.7806  2.5527  1.0783
14004TIP3   OH263502   2.225   2.777   5.958 -0.0165  0.7685 -0.0487
14004TIP3    H163503   2.200   2.865   5.985 -0.8293  0.2425  0.9864
14004TIP3    H263504   2.305   2.758   6.007 -1.4204 -0.1364  2.0353
14005TIP3   OH263505   4.027   4.299   0.740  0.0133  0.1285  0.1690
14005TIP3    H163506   4.035   4.358   0.665 -0.7199  0.7900  0.5934
14005TIP3    H263507   3.944   4.254   0.728 -0.9443  1.4726  1.4080
14006TIP3   OH263508   5.168   0.794  15.965  0.3543 -0.0138  0.1345
14006TIP3    H163509   5.168   0.853  16.040 -0.2295 -1.0606  0.9800
14006TIP3    H263510   5.207   0.714  15.997  1.5819  0.0313 -1.1343
14007TIP3   OH263511   1.246   5.035  15.428 -0.1468 -0.9203  0.9210
14007TIP3    H163512   1.253   4.955  15.480  4.7790 -2.1724 -1.1387
14007TIP3    H263513   1.230   5.005  15.339 -0.7906  0.6353  0.4780
14008TIP3   OH263514   2.595   1.946  10.735  0.2797  0.0288 -0.1546
14008TIP3    H163515   2.657   1.975  10.668  1.4402  0.8539  1.2180
14008TIP3    H263516   2.639   1.873  10.779  0.3730  0.6744  0.8812
14009TIP3   OH263517   4.848   5.199  15.358 -0.2863  0.2353 -0.0417
14009TIP3    H163518   4.858   5.169  15.448  0.9556  1.6065  0.3280
14009TIP3    H263519   4.937   5.198  15.323 -0.8697 -1.3556 -1.6659
14010TIP3   OH263520   3.589   5.741  14.819  0.4592 -0.0658  0.6908
14010TIP3    H163521   3.498   5.711  14.824  0.7514 -0.8157  3.2090
14010TIP3    H263522   3.588   5.811  14.754 -1.3751 -1.7315 -1.1997
14011TIP3   OH263523   3.264   6.497   3.014 -0.0075 -0.0162  0.2473
14011TIP3    H163524   3.176   6.463   3.027 -0.5778  0.4955 -1.8212
14011TIP3    H263525   3.253   6.592   3.010  0.8953  0.1659  1.4827
14012TIP3   OH263526   1.679   5.212  11.246  0.1898 -0.1556 -0.0511
14012TIP3    H163527   1.642   5.215  11.158 -1.2046  3.7730  0.4508
14012TIP3    H263528   1.768   5.247  11.236  1.6859 -3.6872 -0.3539
14013TIP3   OH263529   5.143   1.314   2.809 -0.6721  0.4057 -0.7210
14013TIP3    H163530   5.103   1.400   2.817  0.6028  0.9734 -0.2244
14013TIP3    H263531   5.227   1.322   2.855  0.1032 -0.6871 -1.8867
14014TIP3   OH263532   3.726   0.301   5.350 -0.0449 -0.4822 -0.1489
14014TIP3    H163533   3.648   0.249   5.334 -0.0272 -0.8496  0.9315
14014TIP3    H263534   3.792   0.238   5.377 -0.2650  0.1645  2.0271
14015TIP3   OH263535   1.161   3.393   0.728  0.4531  0.1299  0.0508
14015TIP3    H163536   1.169   3.342   0.648  0.7194 -0.2666  0.3283
14015TIP3    H263537   1.239   3.448   0.730 -0.1402  1.0269 -0.5720
14016TIP3   OH263538   5.094   6.639   6.174  0.0840 -0.1440  0.4052
14016TIP3    H163539   5.021   6.676   6.223 -0.7731 -1.3081  0.0457
14016TIP3    H263540   5.064   6.638   6.083  1.5973  1.8578 -0.1933
14017TIP3   OH263541   3.809   2.913   2.498 -0.3084 -0.0981 -0.0429
14017TIP3    H163542   3.724   2.931   2.460 -0.7201 -0.9118  0.4657
14017TIP3    H263543   3.841   2.836   2.450 -0.2549 -0.3295  0.3605
14018TIP3   OH263544   2.793   1.718   0.786  0.2510  0.0445 -0.2284
14018TIP3    H163545   2.832   1.707   0.699  1.4270 -0.8829  0.3710
14018TIP3    H263546   2.726   1.649   0.791 -1.8624  1.8774 -1.4015
14019TIP3   OH263547   4.504   6.059  13.286  0.3497 -0.0971  0.4712
14019TIP3    H163548   4.540   6.118  13.220  0.6497 -0.9849 -0.1845
14019TIP3    H263549   4.412   6.081  13.291 -0.1564 -1.3450 -1.7819
14020TIP3   OH263550   2.675   4.507   3.708  0.5545 -0.0213  0.7147
14020TIP3    H163551   2.744   4.446   3.735  0.3613 -0.3637  0.4312
14020TIP3    H263552   2.691   4.521   3.614  0.4761  0.2108  0.7350
14021TIP3   OH263553   5.697   2.596  15.465 -0.0507 -0.3446 -0.5290
14021TIP3    H163554   5.681   2.626  15.555 -3.3547 -1.0641 -0.7749
14021TIP3    H263555   5.769   2.534  15.474  1.4892  1.5360  1.1605
14022TIP3   OH263556   0.549   2.571   2.802 -0.4789 -0.5569  0.0472
14022TIP3    H163557   0.472   2.594   2.855 -1.7060 -2.0629 -0.9917
14022TIP3    H263558   0.532   2.612   2.717  1.0468  1.0801  0.4579
14023TIP3   OH263559   0.571   6.297   5.514 -0.0853  0.0641 -0.1414
14023TIP3    H163560   0.536   6.242   5.444 -0.2483 -0.9683  0.7399
14023TIP3    H263561   0.662   6.270   5.523 -0.5618 -1.1812  1.3283
14024TIP3   OH263562   2.567   5.455   0.279  0.4924  0.3216 -0.0600
14024TIP3    H163563   2.546   5.461   0.186  1.6914  0.8258 -0.3239
14024TIP3    H263564   2.627   5.381   0.285 -0.4356 -0.3964  0.4892
14025TIP3   OH263565   4.666   6.542  12.215  0.0524  0.3718  0.1595
14025TIP3    H163566   4.660   6.516  12.307 -0.8823  0.4534  0.1337
14025TIP3    H263567   4.667   6.459  12.168 -0.9965  0.3316  0.1777
14026TIP3   OH263568   0.832   2.060  13.969 -0.0894  0.0985  0.0184
14026TIP3    H163569   0.844   2.125  13.900 -0.2613  0.1324  0.0194
14026TIP3    H263570   0.913   2.063  14.020 -0.5432  1.1027  0.6882
14027TIP3   OH263571   0.995   2.083  17.245 -0.1134  0.3315  0.3124
14027TIP3    H163572   0.923   2.066  17.307  0.2877 -1.4326  0.3477
14027TIP3    H263573   1.002   2.178  17.242 -2.2591  0.5462  0.5315
14028TIP3   OH263574   1.953   3.031  16.202  0.6708  0.2697 -0.0950
14028TIP3    H163575   2.000   3.095  16.255 -0.3059  0.4973  0.5176
14028TIP3    H263576   1.924   3.081  16.125 -1.2590  0.9660  1.0112
14029TIP3   OH263577   4.864   6.573   3.040 -0.3549 -0.4437 -0.5213
14029TIP3    H163578   4.823   6.657   3.062 -2.6719 -1.7586  0.6091
14029TIP3    H263579   4.957   6.592   3.035 -0.8125  2.2182 -0.4915
14030TIP3   OH263580   4.236   4.660  13.892  0.5190  0.1869  0.3971
14030TIP3    H163581   4.294   4.656  13.816  1.3113 -2.0508  1.0398
14030TIP3    H263582   4.291   4.695  13.962  0.3453  0.4230  0.4178
14031TIP3   OH263583   0.848   2.274  14.214  0.2955  0.2630 -0.4906
14031TIP3    H163584   0.926   2.301  14.166 -0.0338 -0.9738 -1.7667
14031TIP3    H263585   0.881   2.246  14.299  1.0661  1.0287 -0.5179
14032TIP3   OH263586   5.746   6.079  12.973  0.0124 -0.6596  0.4381
14032TIP3    H163587   5.681   6.100  12.905  1.4403  0.2530 -0.7168
14032TIP3    H263588   5.756   5.984  12.968  0.2161 -0.5918 -0.7621
14033TIP3   OH263589   3.318   0.647   4.880  0.2462 -0.2413 -0.3243
14033TIP3    H163590   3.332   0.615   4.969  0.7125  0.3586 -0.1758
14033TIP3    H263591   3.234   0.693   4.884  0.5929  0.3771 -0.0198
14034TIP3   OH263592   0.919   5.660   1.250  0.0433  0.3631  0.1706
14034TIP3    H163593   0.899   5.646   1.158  0.3103  0.5864  0.0770
14034TIP3    H263594   0.922   5.572   1.288  1.3281  0.1606 -0.3333
14035TIP3   OH263595   5.686   5.176  16.169 -0.2153 -0.4058  0.1683
14035TIP3    H163596   5.685   5.160  16.263  0.5812 -2.0080 -0.0640
14035TIP3    H263597   5.776   5.159  16.143 -0.2067  0.9012 -0.7710
14036TIP3   OH263598   4.019   0.837   1.753 -0.0916  0.8487 -0.2111
14036TIP3    H163599   3.970   0.778   1.811  2.6557 -0.8822  0.5578
14036TIP3    H263600   4.111   0.820   1.774  0.9129  3.4727 -1.9669
14037TIP3   OH263601   3.451   6.199  14.940 -0.0357 -0.3164  0.7986
14037TIP3    H163602   3.476   6.270  14.998 -0.4347  0.5149 -0.0118
14037TIP3    H263603   3.468   6.119  14.990 -1.1499  0.3795  2.3778
14038TIP3   OH263604   6.145   0.474   2.310 -0.5495  0.1001 -0.1549
14038TIP3    H163605   6.234   0.469   2.276 -0.2079 -0.8324  0.8121
14038TIP3    H263606   6.097   0.525   2.245  1.4257  3.6519  0.8757
14039TIP3   OH263607   6.349   3.636  15.375  0.5164 -0.1281 -0.0062
14039TIP3    H163608   6.255   3.649  15.365  0.1626 -2.1375  0.3317
14039TIP3    H263609   6.376   3.706  15.435 -0.5968  0.9113 -0.6564
14040TIP3   OH263610   3.321   6.098  14.171  0.3483 -0.3747  0.6315
14040TIP3    H163611   3.370   6.159  14.226 -0.1998  0.5190  0.1551
14040TIP3    H263612   3.301   6.148  14.092  0.8318 -1.5207 -0.2579
14041TIP3   OH263613   3.765   4.971  17.142  0.9682  0.6602 -0.1776
14041TIP3    H163614   3.702   5.042  17.131 -1.2250 -0.9904  1.0733
14041TIP3    H263615   3.789   4.946  17.053 -1.1537  0.5030 -0.7527
14042TIP3   OH263616   1.319   2.432  12.781 -0.2856 -0.2065  0.4357
14042TIP3    H163617   1.316   2.527  12.768 -2.0933 -0.3387 -0.3905
14042TIP3    H263618   1.387   2.402  12.721 -0.7908  0.3985 -0.4554
14043TIP3   OH263619   4.941   4.968  16.773 -0.4185 -0.2010 -0.0352
14043TIP3    H163620   4.847   4.986  16.767 -0.7333 -1.5281  0.4591
14043TIP3    H263621   4.947   4.873  16.759  0.6837 -0.3772  1.4748
14044TIP3   OH263622   1.860   0.870   5.065  0.1989  0.2827 -0.4799
14044TIP3    H163623   1.855   0.963   5.089  0.6947 -0.1088  1.2468
14044TIP3    H263624   1.829   0.823   5.142  1.2683 -1.0403 -0.8126
14045TIP3   OH263625   4.427   6.738  10.564 -0.1209  0.0491  0.1603
14045TIP3    H163626   4.404   6.693  10.483  0.6987 -1.6535  0.8209
14045TIP3    H263627   4.364   6.705  10.629  1.3805 -1.3654  0.9877
14046TIP3   OH263628   3.201   0.490  15.673 -0.2347  0.4830  0.5901
14046TIP3    H163629   3.135   0.554  15.646 -0.1593  0.3471  0.0793
14046TIP3    H263630   3.236   0.525  15.756 -0.7696  0.6794  0.7365
14047TIP3   OH263631   0.158   3.288  10.831 -0.4878  0.3131  0.0268
14047TIP3    H163632   0.135   3.201  10.864 -0.9808  0.2025 -0.5905
14047TIP3    H263633   0.078   3.339  10.842 -0.5130  0.4050 -0.5505
14048TIP3   OH263634   2.042   4.506  13.882  0.4856  0.5710  0.0126
14048TIP3    H163635   2.076   4.443  13.819  1.3969 -0.1523  1.1669
14048TIP3    H263636   2.117   4.563  13.901  0.8401 -0.4075  1.8247
14049TIP3   OH263637   0.434   5.409   3.379 -0.0234 -0.1593 -0.6348
14049TIP3    H163638   0.488   5.344   3.336  0.9027  0.5649 -0.5966
14049TIP3    H263639   0.414   5.473   3.311  0.2291  0.2313 -0.3483
14050TIP3   OH263640   0.474   3.531   2.553  0.2398 -0.0373  0.3211
14050TIP3    H163641   0.454   3.606   2.608 -1.9581 -0.5096  0.2497
14050TIP3    H263642   0.530   3.475   2.608 -1.4467 -0.2398  1.9108
14051TIP3   OH263643   4.754   1.371  15.305  0.3680  0.2635 -0.5437
14051TIP3    H163644   4.774   1.360  15.398 -0.4035  0.6457 -0.3231
14051TIP3    H263645   4.822   1.431  15.274  1.2111 -0.6258 -0.4643
14052TIP3   OH263646   4.419   6.052   2.687  0.4212 -0.4149 -0.6606
14052TIP3    H163647   4.364   6.001   2.627 -1.0500  1.8912 -1.4226
14052TIP3    H263648   4.455   6.121   2.632  2.1977 -0.4695  0.3690
14053TIP3   OH263649   4.214   2.750  14.023 -0.5125  0.4384  0.0993
14053TIP3    H163650   4.158   2.795  14.086 -0.2683  0.3968  0.3497
14053TIP3    H263651   4.250   2.820  13.969 -2.3669  0.3355 -1.3875
14054TIP3   OH263652   3.196   5.962   4.431 -0.0630  0.2422 -0.0652
14054TIP3    H163653   3.178   5.868   4.430 -1.4772  0.4959 -0.2250
14054TIP3    H263654   3.279   5.971   4.385 -0.9295 -0.7305 -1.9137
14055TIP3   OH263655   3.155   2.594  14.245 -0.0019 -0.6970  0.4041
14055TIP3    H163656   3.122   2.611  14.333 -0.5484 -0.3546  0.1342
14055TIP3    H263657   3.192   2.678  14.217 -2.6367  0.1133 -0.9009
14056TIP3   OH263658   3.100   1.184   2.356 -0.4549  0.4912 -0.0429
14056TIP3    H163659   3.154   1.227   2.423 -0.6296  1.6027 -0.5828
14056TIP3    H263660   3.041   1.254   2.325  0.2507  0.2817 -2.0158
14057TIP3   OH263661   3.044   2.410   1.511  0.4234  0.5377 -0.2035
14057TIP3    H163662   3.022   2.345   1.443  0.0763  0.9317 -0.4694
14057TIP3    H263663   2.962   2.423   1.559  0.5173  0.7072 -0.0894
14058TIP3   OH263664   3.982   5.045   2.536 -0.1265 -0.8278  0.0262
14058TIP3    H163665   3.907   4.988   2.517  0.5550 -1.7586  0.0414
14058TIP3    H263666   3.963   5.080   2.623 -2.1680  1.6612 -1.2958
14059TIP3   OH263667   3.685   3.740  12.487 -0.2588 -0.4907  0.1794
14059TIP3    H163668   3.754   3.720  12.550 -0.0480 -0.9976 -0.2047
14059TIP3    H263669   3.726   3.800  12.425 -0.4891  0.0705  0.5569
14060TIP3   OH263670   3.503   2.218  16.981 -0.3825 -0.0583 -0.1816
14060TIP3    H163671   3.548   2.179  17.056  0.8819  0.4632 -0.6337
14060TIP3    H263672   3.476   2.305  17.011 -2.8674 -1.0329  0.7050
14061TIP3   OH263673   4.141   0.997   2.209  0.2031 -0.7960  0.0701
14061TIP3    H163674   4.085   0.920   2.220 -0.1464 -0.6411 -0.6323
14061TIP3    H263675   4.155   1.029   2.299 -1.3116 -0.4943  0.2265
14062TIP3   OH263676   0.315   6.549  15.572 -0.2761 -0.0185  0.2370
14062TIP3    H163677   0.325   6.520  15.482  1.0811 -0.2598  0.4330
14062TIP3    H263678   0.251   6.490  15.610 -0.1958 -0.4828 -0.3334
14063TIP3   OH263679   5.266   1.855   2.206 -0.3837 -0.3842 -0.3054
14063TIP3    H163680   5.251   1.896   2.121 -1.4693 -2.4906 -1.2041
14063TIP3    H263681   5.287   1.764   2.185  0.8411 -0.6002  1.6355
14064TIP3   OH263682   5.623   5.629  11.844  0.2626  0.2964 -0.4771
14064TIP3    H163683   5.627   5.661  11.754  0.9695 -1.0103 -0.9284
14064TIP3    H263684   5.568   5.551  11.841  1.3238 -0.5019 -0.0366
14065TIP3   OH263685   1.071   0.674  15.224  0.1419  0.4534  0.8268
14065TIP3    H163686   1.162   0.703  15.227 -0.2392  2.2451 -1.6925
14065TIP3    H263687   1.030   0.713  15.301  1.2652  0.5658  1.3731
14066TIP3   OH263688   1.446   5.647  11.903  0.5334 -0.3181  0.1544
14066TIP3    H163689   1.471   5.567  11.948 -0.1423  0.6063  2.3105
14066TIP3    H263690   1.508   5.713  11.936 -0.2443  0.4744  0.0670
14067TIP3   OH263691   3.414   3.714   3.379 -0.1112 -0.0402  0.0873
14067TIP3    H163692   3.437   3.802   3.349  1.7118 -0.3201  0.5561
14067TIP3    H263693   3.450   3.709   3.468 -1.5673 -0.7393  0.6731
14068TIP3   OH263694   2.089   6.055   3.299 -0.3953  0.4300  0.0708
14068TIP3    H163695   2.175   6.030   3.265  0.2566  0.7066  1.4418
14068TIP3    H263696   2.067   5.985   3.361 -2.3317 -0.9756 -2.0154
14069TIP3   OH263697   3.176   1.138  17.111  0.1720 -0.0248  0.2059
14069TIP3    H163698   3.147   1.047  17.108  0.9783 -0.2936  0.1267
14069TIP3    H263699   3.099   1.190  17.087 -0.3649 -0.6683  0.5151
14070TIP3   OH263700   3.792   0.459   0.887  0.1874  0.0781 -0.1869
14070TIP3    H163701   3.805   0.452   0.792  0.9791  0.5837 -0.1319
14070TIP3    H263702   3.709   0.507   0.897 -0.4273 -0.8755 -0.6021
14071TIP3   OH263703   0.501   2.566   5.047 -0.1097 -0.0175 -0.1321
14071TIP3    H163704   0.481   2.659   5.037  0.3699 -0.0287 -1.3354
14071TIP3    H263705   0.417   2.522   5.032 -0.4148  0.2280  0.7985
14072TIP3   OH263706   2.899   2.036   5.555  0.1679  0.0814  0.4709
14072TIP3    H163707   2.900   1.945   5.525  0.5143  0.3518 -0.3646
14072TIP3    H263708   2.866   2.086   5.481  0.0955  0.6578  0.8792
14073TIP3   OH263709   0.247   1.174   4.565 -0.5419 -0.5745  0.0851
14073TIP3    H163710   0.197   1.130   4.496 -0.2299 -2.3574  0.9395
14073TIP3    H263711   0.338   1.153   4.545 -0.3269  0.3506  0.0840
14074TIP3   OH263712   1.818   6.021  14.906  0.2643 -0.1045  0.7204
14074TIP3    H163713   1.868   6.035  14.826 -0.8172 -0.9316 -0.1464
14074TIP3    H263714   1.882   6.026  14.977  1.7315 -1.8536 -0.3758
14075TIP3   OH263715   1.888   2.485  16.291  0.2122 -0.3649  0.1188
14075TIP3    H163716   1.962   2.457  16.238  1.0557  2.0252 -0.0779
14075TIP3    H263717   1.837   2.540  16.233 -1.5067 -1.5608  0.4110
14076TIP3   OH263718   4.456   4.274  11.420 -0.5953 -1.0624  0.0187
14076TIP3    H163719   4.503   4.357  11.423 -2.1890 -0.0750  3.5902
14076TIP3    H263720   4.524   4.208  11.436  0.3523 -0.2420 -0.5034
14077TIP3   OH263721   2.759   0.771   5.468 -0.1182  0.3377  0.6144
14077TIP3    H163722   2.853   0.778   5.487 -0.3171 -1.5499  2.7836
14077TIP3    H263723   2.718   0.827   5.534 -0.5577 -0.2849  0.8794
14078TIP3   OH263724   6.816   2.176  11.982  0.1687 -0.0788 -0.1643
14078TIP3    H163725   6.905   2.155  11.956  0.0119  0.9570 -1.6474
14078TIP3    H263726   6.826   2.243  12.050  0.5337 -0.4631  0.1610
14079TIP3   OH263727   3.636   3.081   1.646  0.2175  0.4386 -0.3597
14079TIP3    H163728   3.574   3.013   1.673  0.1707  0.8675  0.6728
14079TIP3    H263729   3.635   3.144   1.719  0.8231  1.1567 -0.9574
14080TIP3   OH263730   3.944   1.196   5.547  0.1802 -0.0892  0.5323
14080TIP3    H163731   3.963   1.122   5.489  0.4388  0.1971  0.2519
14080TIP3    H263732   4.030   1.235   5.565  0.2083 -0.6599  1.7653
14081TIP3   OH263733   5.808   3.784  12.023  0.1725 -0.3278 -0.3318
14081TIP3    H163734   5.720   3.821  12.024  0.6993  1.0222  1.2700
14081TIP3    H263735   5.798   3.698  11.981 -1.4866  0.6802 -2.1563
14082TIP3   OH263736   3.312   2.583  16.466 -0.1602  0.1709  0.5964
14082TIP3    H163737   3.257   2.577  16.388 -0.1708  0.8503  0.5396
14082TIP3    H263738   3.402   2.579  16.433 -0.1586 -1.3556  0.7283
14083TIP3   OH263739   5.253   4.842  13.586  0.2270 -0.2358  0.9662
14083TIP3    H163740   5.269   4.925  13.541  0.3704 -0.1602  1.1522
14083TIP3    H263741   5.326   4.786  13.560 -0.5910 -0.7794 -0.2568
14084TIP3   OH263742   2.965   3.613  15.488  0.6569 -0.9095  0.4992
14084TIP3    H163743   2.998   3.581  15.404  1.5513  1.3341 -0.0993
14084TIP3    H263744   2.904   3.683  15.464  2.0169  0.7532  1.6639
14085TIP3   OH263745   5.216   2.286  16.122  0.3944  0.1356 -0.2452
14085TIP3    H163746   5.174   2.203  16.101  1.9472 -0.2715 -1.9286
14085TIP3    H263747   5.223   2.332  16.038  0.4708  1.5598  0.4980
14086TIP3   OH263748   2.025   6.578  13.344  0.3543  0.3516 -0.1841
14086TIP3    H163749   2.093   6.636  13.310 -1.0497  1.9434 -0.4241
14086TIP3    H263750   1.986   6.538  13.267  0.7137 -0.2179 -0.0751
14087TIP3   OH263751   5.451   2.054   5.320  0.6720 -0.0559  0.3382
14087TIP3    H163752   5.363   2.059   5.281  1.0571  2.0037 -0.4224
14087TIP3    H263753   5.500   1.997   5.261 -0.1374 -1.3104  0.8242
14088TIP3   OH263754   3.335   6.581  12.709  0.0304 -0.4168 -0.5571
14088TIP3    H163755   3.347   6.641  12.635  0.4839 -0.1371 -0.2603
14088TIP3    H263756   3.252   6.607  12.748  0.3497  0.1881 -0.2741
14089TIP3   OH263757   3.654   4.657   0.060  0.3479  0.0011  0.0642
14089TIP3    H163758   3.610   4.742   0.069  0.6274  0.0798  0.7830
14089TIP3    H263759   3.612   4.616  -0.015 -1.3929 -0.1881  1.0806
14090TIP3   OH263760   3.344   1.839  12.515 -0.5372  0.0524  0.5344
14090TIP3    H163761   3.393   1.914  12.480 -2.2358  1.6759  1.4325
14090TIP3    H263762   3.313   1.792  12.437  0.1801  0.5425 -0.0606
14091TIP3   OH263763   4.018   0.128  13.491 -0.6617  0.2319  0.1971
14091TIP3    H163764   4.025   0.222  13.477  1.4850  0.2129  0.7741
14091TIP3    H263765   4.067   0.089  13.419  1.8662 -0.2166  2.0028
14092TIP3   OH263766   2.221   0.643   3.582  0.2487 -0.1364 -0.0910
14092TIP3    H163767   2.291   0.696   3.620  1.1880 -1.8788  0.7605
14092TIP3    H263768   2.257   0.613   3.498 -0.5166  1.0191 -0.8559
14093TIP3   OH263769   0.562   6.442  16.162  0.4700 -0.6614 -0.3252
14093TIP3    H163770   0.651   6.426  16.132  0.1865 -0.6506 -1.2227
14093TIP3    H263771   0.567   6.524  16.211  1.0808 -1.0530  0.2928
14094TIP3   OH263772   4.237   5.961  14.187 -0.0247  0.3351 -0.2487
14094TIP3    H163773   4.190   5.894  14.137  2.0246 -1.3084 -0.1393
14094TIP3    H263774   4.296   6.001  14.123 -0.5642  1.4024 -0.0941
14095TIP3   OH263775   1.700   1.633   1.532 -0.1531  0.1608  0.3009
14095TIP3    H163776   1.770   1.649   1.595  0.0522 -2.0848  0.7357
14095TIP3    H263777   1.673   1.720   1.503  0.8880  1.1850  2.2254
14096TIP3   OH263778   4.939   4.692   3.712 -0.2280  0.2604  0.3326
14096TIP3    H163779   4.866   4.649   3.756  0.2448  0.0932  0.9676
14096TIP3    H263780   5.014   4.677   3.769  0.5312 -0.4266 -0.7946
14097TIP3   OH263781   3.038   0.716   3.205 -0.5369 -0.8280 -0.1390
14097TIP3    H163782   3.001   0.802   3.228  1.7048  0.7244 -1.8903
14097TIP3    H263783   3.069   0.681   3.288 -0.6945  0.4761  0.5073
14098TIP3   OH263784   6.447   4.957   1.399  0.1360 -0.6398  0.0096
14098TIP3    H163785   6.419   4.903   1.473 -0.4581  1.3163  1.2689
14098TIP3    H263786   6.537   4.927   1.382  0.1064 -1.4854  1.1648
14099TIP3   OH263787   6.208   1.414  11.189  0.0667 -0.0032 -0.4280
14099TIP3    H163788   6.134   1.358  11.170 -1.5522  1.2142  1.8427
14099TIP3    H263789   6.187   1.498  11.147  0.8310 -0.0490 -0.9269
14100TIP3   OH263790   0.671   0.054  11.613  0.1534 -0.0631  0.2493
14100TIP3    H163791   0.637   0.081  11.699  2.2680  0.6450  0.9237
14100TIP3    H263792   0.672   0.135  11.561 -0.1125 -0.2756 -0.0917
14101TIP3   OH263793   6.489   3.589   1.399  0.3028 -0.0870 -0.5571
14101TIP3    H163794   6.402   3.557   1.373 -0.0127  0.7213 -0.5226
14101TIP3    H263795   6.550   3.539   1.344 -0.2813  0.5221 -1.8015
14102TIP3   OH263796   3.218   6.654  13.841 -0.1024 -0.0434  0.0931
14102TIP3    H163797   3.208   6.721  13.774 -0.1421 -0.3436 -0.1993
14102TIP3    H263798   3.312   6.642  13.850 -0.0460  0.7692  0.8646
14103TIP3   OH263799   5.887   0.051   5.916 -0.1439  0.1938  0.1883
14103TIP3    H163800   5.815   0.103   5.879 -0.3768 -0.0510  0.3015
14103TIP3    H263801   5.851   0.012   5.995  0.4799  1.0480  0.9152
14104TIP3   OH263802   2.614   1.283  14.570 -0.2750  0.4450 -0.4927
14104TIP3    H163803   2.702   1.246  14.578  0.7843  2.9402  0.6950
14104TIP3    H263804   2.555   1.210  14.584  1.6406 -1.0075  0.4102
14105TIP3   OH263805   1.988   0.288  12.285  0.2185  0.1063 -0.0634
14105TIP3    H163806   2.025   0.334  12.210  0.1180 -1.3979 -1.0816
14105TIP3    H263807   2.035   0.324  12.361  0.8442  1.1270 -0.9133
14106TIP3   OH263808   3.428   2.546   5.699 -0.6752 -0.6811 -0.3989
14106TIP3    H163809   3.428   2.577   5.608  0.3097 -0.4341 -0.3290
14106TIP3    H263810   3.520   2.552   5.726 -0.5817 -2.7945 -0.0718
14107TIP3   OH263811   6.104   2.430   4.479 -0.3950 -0.4056  0.0820
14107TIP3    H163812   6.157   2.507   4.458 -0.8415  0.1048  0.7967
14107TIP3    H263813   6.149   2.357   4.436  1.2384 -0.0852  1.1390
14108TIP3   OH263814   3.252   5.368  13.768 -0.0819  0.6675  0.1252
14108TIP3    H163815   3.214   5.311  13.702  0.4735 -0.4756  0.7559
14108TIP3    H263816   3.196   5.446  13.769 -0.0168  0.7648 -1.7579
14109TIP3   OH263817   0.410   1.251   1.374  0.8846 -0.2131 -0.1666
14109TIP3    H163818   0.448   1.193   1.309  0.3974  0.5967 -1.1909
14109TIP3    H263819   0.379   1.327   1.325 -1.2852 -0.4507  0.7189
14110TIP3   OH263820   3.773   1.036   5.223  0.0453 -0.4198 -0.3365
14110TIP3    H163821   3.758   1.117   5.273 -0.4659  0.2220 -1.4849
14110TIP3    H263822   3.856   1.003   5.256  0.5307  0.8667 -0.2231
14111TIP3   OH263823   6.792   3.240  12.181 -0.1131 -0.7331  0.0023
14111TIP3    H163824   6.760   3.325  12.149 -0.2191 -0.5896  0.4717
14111TIP3    H263825   6.739   3.223  12.259  1.5201 -0.0672  1.3334
14112TIP3   OH263826   3.513   1.647   3.752  0.2403 -0.4767  0.3527
14112TIP3    H163827   3.473   1.590   3.685  0.4710  0.0562 -0.2449
14112TIP3    H263828   3.525   1.589   3.827  0.9263 -1.3690 -0.4034
14113TIP3   OH263829   5.582   3.170   6.358 -0.4190 -0.4891 -0.0052
14113TIP3    H163830   5.604   3.102   6.422 -0.8318 -1.9693 -1.3789
14113TIP3    H263831   5.593   3.252   6.406  0.2900 -1.5001  1.6520
14114TIP3   OH263832   3.310   1.481   3.928  0.7521  0.1707 -0.1268
14114TIP3    H163833   3.278   1.408   3.981 -0.2169 -0.0280 -0.9519
14114TIP3    H263834   3.253   1.554   3.950  0.5710  0.1818 -0.6111
14115TIP3   OH263835   4.768   5.121   1.065  0.2379  0.1501 -0.0028
14115TIP3    H163836   4.828   5.047   1.051 -0.3941 -0.4283  0.2647
14115TIP3    H263837   4.691   5.098   1.012  0.6044  1.3359 -1.1120
14116TIP3   OH263838   6.657   0.296   0.062 -0.2424 -0.0279  0.0798
14116TIP3    H163839   6.721   0.363   0.036 -1.7804  0.8427 -1.7026
14116TIP3    H263840   6.605   0.339   0.130  0.5055 -0.4617  0.9608
14117TIP3   OH263841   4.231   4.954   3.803  0.1065  0.5056  0.4374
14117TIP3    H163842   4.255   4.871   3.844 -0.6200  0.1944  0.2453
14117TIP3    H263843   4.204   4.930   3.714 -1.7644  0.6999  0.9048
14118TIP3   OH263844   3.488   2.010   1.606 -0.9644  0.5289 -0.2062
14118TIP3    H163845   3.431   2.079   1.573 -2.0142  0.5449  1.4996
14118TIP3    H263846   3.477   2.014   1.701 -0.8650 -1.8134 -0.0467
14119TIP3   OH263847   3.060   5.509   6.514 -0.1163 -0.4065 -0.3073
14119TIP3    H163848   3.037   5.443   6.579 -2.3114  1.1244  0.6303
14119TIP3    H263849   3.154   5.498   6.499 -0.1879 -2.9271  0.6386
14120TIP3   OH263850   3.475   0.785   3.503 -0.0925  0.2649 -0.0076
14120TIP3    H163851   3.408   0.845   3.470  1.9736  2.5139 -0.4365
14120TIP3    H263852   3.471   0.794   3.598 -0.0692  0.8288 -0.0551
14121TIP3   OH263853   3.526   1.097   5.075  0.3876  0.3888  0.2600
14121TIP3    H163854   3.593   1.088   5.143  0.0676 -2.7855  0.3305
14121TIP3    H263855   3.575   1.092   4.993  0.3578 -1.7442  0.3132
14122TIP3   OH263856   1.715   4.081   5.400  0.2643  0.4236 -0.1893
14122TIP3    H163857   1.649   4.012   5.412 -0.4193  1.0737 -0.1651
14122TIP3    H263858   1.799   4.036   5.413 -0.2385  0.1977  2.9322
14123TIP3   OH263859   2.081   1.747  14.885 -0.2216  0.4734  0.2277
14123TIP3    H163860   2.152   1.697  14.844  0.3798  0.0227  1.7476
14123TIP3    H263861   2.013   1.682  14.904 -1.2023  0.9496 -1.4786
14124TIP3   OH263862   0.640   1.161   2.569 -0.1105 -0.2796 -0.3839
14124TIP3    H163863   0.723   1.117   2.586  0.1384  0.7132  1.1713
14124TIP3    H263864   0.664   1.248   2.537 -0.5895 -0.6559 -1.8625
14125TIP3   OH263865   6.557   5.295  11.660  0.3319 -0.0439  0.0938
14125TIP3    H163866   6.587   5.225  11.718  1.5316 -0.0916 -0.5562
14125TIP3    H263867   6.545   5.251  11.575 -0.9040  0.1253  0.1697
14126TIP3   OH263868   2.871   3.817  14.541  0.6274 -0.2777 -0.1952
14126TIP3    H163869   2.916   3.735  14.560 -0.9466 -0.6410  2.4574
14126TIP3    H263870   2.939   3.884  14.550  1.5820 -1.1349 -0.7748
14127TIP3   OH263871   0.377   5.826  12.889 -0.1454  0.0976  0.0591
14127TIP3    H163872   0.306   5.792  12.835  0.8547 -1.1326 -0.5354
14127TIP3    H263873   0.385   5.918  12.863 -1.1195  0.0994 -0.2846
14128TIP3   OH263874   3.908   6.314   4.826  0.1866 -0.4988  0.3202
14128TIP3    H163875   3.834   6.304   4.766  0.6881 -0.0650 -0.3784
14128TIP3    H263876   3.889   6.252   4.897 -1.8344  0.9363  1.1522
14129TIP3   OH263877   6.174   1.802   2.088  0.2258  0.0709 -0.1899
14129TIP3    H163878   6.183   1.870   2.022  0.2550  0.6802  0.4265
14129TIP3    H263879   6.202   1.722   2.044 -1.2855  0.1622 -1.4099
14130TIP3   OH263880   1.642   6.607  14.060 -0.0857  0.2234 -0.6900
14130TIP3    H163881   1.601   6.572  13.981 -1.2411  2.3889 -1.1417
14130TIP3    H263882   1.628   6.539  14.127  0.4669 -1.4246 -2.1836
14131TIP3   OH263883   2.567   0.013  16.981 -0.1128 -0.5796 -0.3066
14131TIP3    H163884   2.617   0.045  17.056 -1.7279  1.0061  0.1637
14131TIP3    H263885   2.568  -0.083  16.991 -0.0863 -0.4233  1.5893
14132TIP3   OH263886   2.813   5.464  15.850  0.3604 -0.0240  0.5230
14132TIP3    H163887   2.773   5.462  15.763  1.4626 -0.6103  0.0075
14132TIP3    H263888   2.895   5.417  15.840  0.6317  0.1215  1.8334
14133TIP3   OH263889   4.501   3.957   4.680 -0.1581 -0.3803  0.2900
14133TIP3    H163890   4.452   3.946   4.599 -0.6306 -0.4813  0.5869
14133TIP3    H263891   4.568   4.022   4.659 -1.1265  0.5941  0.1912
14134TIP3   OH263892   3.872   2.082   3.584  0.2916  0.0175 -0.0862
14134TIP3    H163893   3.889   2.064   3.677 -1.6592  0.0694  0.3284
14134TIP3    H263894   3.901   2.173   3.571 -0.8187  0.5273  0.8748
14135TIP3   OH263895   0.952   6.731  16.456 -0.1834  0.4978  0.1383
14135TIP3    H163896   0.991   6.651  16.491  1.1177  0.7854 -0.5952
14135TIP3    H263897   0.858   6.713  16.453  0.1731 -1.4185 -1.0384
14136TIP3   OH263898   1.691   2.695  12.092 -0.2195  0.2782  0.0870
14136TIP3    H163899   1.641   2.748  12.153  1.9779 -0.6796  2.9257
14136TIP3    H263900   1.637   2.616  12.079 -0.5993  0.3785  1.0133
14137TIP3   OH263901   3.033   5.722  15.735 -0.1747 -0.1085  0.0459
14137TIP3    H163902   3.092   5.725  15.810 -1.7986  2.0553  1.3594
14137TIP3    H263903   2.969   5.654  15.757  0.6373 -1.0675 -0.4741
14138TIP3   OH263904   6.685   3.974  11.974  0.1487 -0.2639 -0.3139
14138TIP3    H163905   6.730   3.899  12.012 -1.1768 -0.7239  0.4113
14138TIP3    H263906   6.594   3.946  11.965 -0.1126  0.8186 -1.2360
14139TIP3   OH263907   3.962   3.002  13.472  0.3699 -0.2022  0.5883
14139TIP3    H163908   3.888   3.062  13.465  0.6979  0.0428 -1.4239
14139TIP3    H263909   3.925   2.916  13.453  0.5395 -0.1082 -0.2064
14140TIP3   OH263910   2.294   3.079  12.695  0.1356  0.4895  0.0867
14140TIP3    H163911   2.288   3.066  12.600  0.6250  0.0184  0.1145
14140TIP3    H263912   2.303   3.174  12.706  0.2128  0.5335 -0.3462
14141TIP3   OH263913   6.400   4.651   5.140 -0.1439 -0.3689  0.1480
14141TIP3    H163914   6.429   4.561   5.151  1.4282 -0.0413 -0.9250
14141TIP3    H263915   6.391   4.686   5.229  1.3867 -0.9427  0.5399
14142TIP3   OH263916   0.202   6.345  15.172  0.2591 -0.7646  0.0821
14142TIP3    H163917   0.234   6.424  15.217  0.8320  0.2919 -2.0612
14142TIP3    H263918   0.117   6.327  15.213  1.4392 -0.8705  2.6779
14143TIP3   OH263919   3.680   3.643  12.156 -0.0593  0.2944 -0.0139
14143TIP3    H163920   3.660   3.735  12.171 -0.4111  0.3193 -0.5962
14143TIP3    H263921   3.775   3.639  12.150 -0.0332  0.5937  0.1912
14144TIP3   OH263922   2.409   4.170   1.927  0.3099 -0.5429 -0.1595
14144TIP3    H163923   2.466   4.113   1.874 -0.6721  0.1299 -2.0311
14144TIP3    H263924   2.461   4.249   1.941  0.4081 -0.5337 -0.5558
14145TIP3   OH263925   2.574   5.972  11.801 -0.1531  0.1396  0.5389
14145TIP3    H163926   2.617   6.057  11.795 -0.0710  0.1184  0.8130
14145TIP3    H263927   2.638   5.915  11.842  0.7648 -0.7347 -1.9151
14146TIP3   OH263928   3.656   3.956   3.864  0.0143 -0.0820  0.0188
14146TIP3    H163929   3.595   3.927   3.932  0.4963 -0.6420  0.2164
14146TIP3    H263930   3.729   3.894   3.868  0.9655  1.0217  0.2922
14147TIP3   OH263931   0.680   1.646  11.648  0.1810 -0.0808  0.2056
14147TIP3    H163932   0.599   1.606  11.617 -0.4563  0.6077  0.9225
14147TIP3    H263933   0.675   1.737  11.617 -0.4006  0.5897  2.1106
14148TIP3   OH263934   2.704   3.210   3.157 -0.1695 -0.1618  0.7911
14148TIP3    H163935   2.723   3.120   3.185  0.2791 -0.2014  0.3816
14148TIP3    H263936   2.700   3.204   3.061  0.1962  0.3162  0.7442
14149TIP3   OH263937   1.018   1.274  14.338 -0.1221 -0.6086  0.5409
14149TIP3    H163938   1.055   1.188  14.319 -1.1334 -1.3970  1.9413
14149TIP3    H263939   1.080   1.315  14.399  2.4127  1.3639 -3.0249
14150TIP3   OH263940   3.469   2.090   4.786 -0.1585  0.0291  0.3955
14150TIP3    H163941   3.422   2.173   4.795  0.5258  0.5494 -0.6724
14150TIP3    H263942   3.552   2.113   4.744 -1.5920 -1.6357 -3.9155
14151TIP3   OH263943   2.701   3.403  13.292  0.0442 -0.2973  0.5058
14151TIP3    H163944   2.626   3.402  13.234 -0.2875  0.4698  0.8997
14151TIP3    H263945   2.708   3.495  13.320  1.6339 -0.1749 -0.1807
14152TIP3   OH263946   2.606   5.365  17.021 -0.3137 -0.0301  0.1497
14152TIP3    H163947   2.563   5.293  16.975 -1.7523 -0.1801  1.6626
14152TIP3    H263948   2.636   5.326  17.104 -0.5424  0.9571  0.7107
14153TIP3   OH263949   6.534   2.781   1.948  0.0853  0.0997 -0.2706
14153TIP3    H163950   6.569   2.780   2.037  3.4284 -0.2543 -1.4552
14153TIP3    H263951   6.500   2.693   1.933 -0.0486  0.0246  0.4518
14154TIP3   OH263952   5.958   6.179   1.697  0.7928  0.2421 -0.9334
14154TIP3    H163953   5.870   6.191   1.733  0.3787  1.7287 -2.3307
14154TIP3    H263954   6.014   6.232   1.753  1.2308 -2.3217  1.2536
14155TIP3   OH263955   2.354   3.773  15.146  0.0626 -0.1326  0.4329
14155TIP3    H163956   2.391   3.798  15.061 -0.7356 -2.1869 -0.5817
14155TIP3    H263957   2.380   3.844  15.205  1.7418  0.7270 -1.2219
14156TIP3   OH263958   0.964   3.227  13.853  0.2723 -0.5531 -0.3296
14156TIP3    H163959   0.889   3.239  13.911  0.1806  0.6289 -0.6583
14156TIP3    H263960   0.970   3.309  13.804  1.5822 -0.7449 -0.5446
14157TIP3   OH263961   0.359   2.968   0.643 -0.6664  0.1934  0.3531
14157TIP3    H163962   0.350   3.017   0.725 -0.7719  0.7014  0.0451
14157TIP3    H263963   0.371   3.036   0.577 -0.1660 -0.2355  0.0049
14158TIP3   OH263964   5.354   5.822   1.510  0.0245 -0.3027  0.0607
14158TIP3    H163965   5.444   5.805   1.537 -0.4220 -0.0491  1.8094
14158TIP3    H263966   5.301   5.802   1.587 -1.4939 -0.9828 -1.1011
14159TIP3   OH263967   6.602   5.326  12.119  0.9043  0.3393 -0.1868
14159TIP3    H163968   6.552   5.345  12.198  0.1154 -0.7573 -0.4067
14159TIP3    H263969   6.677   5.275  12.149  0.2924 -0.5845 -0.2030
14160TIP3   OH263970   0.515   4.261  16.302  0.3278 -0.3228 -0.0130
14160TIP3    H163971   0.536   4.245  16.211  2.4355  1.6325  0.0487
14160TIP3    H263972   0.419   4.265  16.304  0.2604  0.6805 -2.3544
14161TIP3   OH263973   2.368   4.825  11.747  0.4582 -0.1528  0.0914
14161TIP3    H163974   2.344   4.911  11.781 -0.6628 -1.1102  1.8518
14161TIP3    H263975   2.463   4.831  11.732  0.2345  1.7101 -0.9312
14162TIP3   OH263976   5.491   2.282   1.038 -0.1193  0.5169 -0.1711
14162TIP3    H163977   5.547   2.233   0.977  0.0538  0.5715 -0.0554
14162TIP3    H263978   5.409   2.233   1.038 -0.4926  1.1064 -1.2724
14163TIP3   OH263979   6.475   6.581   1.794 -0.1344  0.4272 -0.3194
14163TIP3    H163980   6.393   6.551   1.755 -0.3350  1.4642 -0.7486
14163TIP3    H263981   6.540   6.570   1.725  0.4276 -1.7561  0.4856
14164TIP3   OH263982   1.248   2.265  15.117 -0.2926 -0.1657  0.4378
14164TIP3    H163983   1.190   2.254  15.042  0.6762 -1.6868 -0.1329
14164TIP3    H263984   1.189   2.274  15.192 -1.3604  3.9253 -0.6851
14165TIP3   OH263985   0.798   4.541  17.138  0.2455 -0.1517  0.4356
14165TIP3    H163986   0.761   4.617  17.094 -1.0471  2.2958  5.0511
14165TIP3    H263987   0.730   4.474  17.131  0.2151  0.0167 -1.3512
14166TIP3   OH263988   3.877   0.080  12.650 -0.5887 -0.1039 -0.0452
14166TIP3    H163989   3.884   0.075  12.745 -0.1905 -0.3777 -0.0869
14166TIP3    H263990   3.941   0.147  12.625 -1.2873  0.5742 -0.0512
14167TIP3   OH263991   5.103   3.483  13.100 -0.0337  0.7244  0.2589
14167TIP3    H163992   5.198   3.479  13.088 -0.1280 -1.6660 -0.0492
14167TIP3    H263993   5.067   3.448  13.019 -1.2614  2.3522  0.0329
14168TIP3   OH263994   0.921   6.091   4.964  0.4157 -0.6101  0.2621
14168TIP3    H163995   0.955   6.001   4.972 -0.8614 -1.2368 -0.8867
14168TIP3    H263996   0.911   6.104   4.870 -2.6904 -0.5988  0.4764
14169TIP3   OH263997   3.410   2.873   2.917  0.3172  0.1601  0.3021
14169TIP3    H163998   3.317   2.892   2.904  0.1967 -1.6585 -2.1313
14169TIP3    H263999   3.413   2.779   2.931  1.9129 -0.2325 -2.1020
14170TIP3   OH264000   5.835   1.062   1.797 -0.0157 -0.3437 -0.7172
14170TIP3    H164001   5.840   0.968   1.777  1.2269 -0.3366 -0.4673
14170TIP3    H264002   5.831   1.067   1.892  1.4532 -0.0960 -0.6535
14171TIP3   OH264003   0.113   6.397   5.584  0.1438 -0.1855 -0.4001
14171TIP3    H164004   0.180   6.442   5.636 -1.2979  1.2081  0.3404
14171TIP3    H264005   0.046   6.372   5.648 -2.1272  2.3730 -1.5435
14172TIP3   OH264006   2.572   2.279  13.080 -0.0170 -0.4221  0.5017
14172TIP3    H164007   2.512   2.211  13.050 -0.4602  0.6768 -1.2638
14172TIP3    H264008   2.514   2.346  13.118 -0.1160  1.1497 -2.1985
14173TIP3   OH264009   2.988   1.602  13.522 -0.5710  0.0869 -0.2144
14173TIP3    H164010   3.058   1.655  13.484 -0.5920 -0.7393 -1.4667
14173TIP3    H264011   2.994   1.518  13.476 -2.0337 -0.1837  0.0449
14174TIP3   OH264012   5.686   1.144  14.676 -0.1018  0.0885 -0.0269
14174TIP3    H164013   5.735   1.082  14.623  1.0751  1.3902 -0.5054
14174TIP3    H264014   5.619   1.179  14.617 -0.6730 -0.6124  0.2025
14175TIP3   OH264015   4.953   2.414  11.302  0.0916 -0.3404  0.3795
14175TIP3    H164016   5.006   2.442  11.228  0.4576 -1.6278  0.1257
14175TIP3    H264017   4.912   2.332  11.273  0.4331 -0.9934  1.6718
14176TIP3   OH264018   3.238   1.044  12.549 -0.0243  0.1215  0.2483
14176TIP3    H164019   3.187   1.081  12.476 -0.8815  0.3834  0.9669
14176TIP3    H264020   3.214   0.951  12.550 -0.0491  0.1277  0.2297
14177TIP3   OH264021   1.961   1.199   3.204 -0.1055  0.3439  0.0647
14177TIP3    H164022   1.990   1.221   3.115  0.3046 -0.1958  0.0631
14177TIP3    H264023   1.932   1.108   3.198  0.6503  0.0631  0.6626
14178TIP3   OH264024   2.385   4.663   2.034  0.3132 -0.2338 -0.4674
14178TIP3    H164025   2.423   4.751   2.028 -0.5054  0.1340 -0.3783
14178TIP3    H264026   2.353   4.658   2.124  0.2669 -0.5919 -0.5046
14179TIP3   OH264027   0.818   6.039  16.666  0.4104  0.3789  0.0990
14179TIP3    H164028   0.744   6.031  16.726  0.5445 -0.8632  0.1100
14179TIP3    H264029   0.805   5.970  16.601  0.4937  1.4268 -1.0765
14180TIP3   OH264030   3.823   5.312   5.723 -0.3381 -0.0736 -0.0578
14180TIP3    H164031   3.891   5.246   5.736 -0.3743 -0.3270 -1.0661
14180TIP3    H264032   3.783   5.322   5.809  2.5594  1.8699  1.2488
14181TIP3   OH264033   2.916   3.015   3.062 -1.0902  0.0784  0.0297
14181TIP3    H164034   2.977   2.967   3.006 -2.2060 -1.5036  0.1123
14181TIP3    H264035   2.879   3.083   3.005 -0.0128  0.4189 -0.2889
14182TIP3   OH264036   3.875   5.108  12.987 -0.2321  0.3653 -0.6292
14182TIP3    H164037   3.929   5.132  13.063 -0.9631 -1.0368  0.3606
14182TIP3    H264038   3.865   5.190  12.938  1.0333  1.0898  0.2790
14183TIP3   OH264039   2.280   1.814   1.176 -0.3128  0.2423 -0.0550
14183TIP3    H164040   2.208   1.760   1.209  0.1130  0.9331  2.1962
14183TIP3    H264041   2.358   1.759   1.187 -0.3052  0.0337 -1.1031
14184TIP3   OH264042   2.718   4.427  15.813  0.1943  0.0241  0.1279
14184TIP3    H164043   2.666   4.463  15.886 -1.7980 -1.2068 -0.6003
14184TIP3    H264044   2.696   4.483  15.739 -0.3571 -0.6516 -0.2402
14185TIP3   OH264045   5.521   4.812   0.860 -0.1135 -0.0371 -0.2328
14185TIP3    H164046   5.605   4.770   0.841  0.6197  1.4631 -0.4519
14185TIP3    H264047   5.535   4.857   0.943 -0.7172  0.2030 -0.2582
14186TIP3   OH264048   1.792   1.318  13.320  0.5303 -0.3059 -0.4066
14186TIP3    H164049   1.833   1.327  13.235 -0.5882 -0.6223 -1.0088
14186TIP3    H264050   1.709   1.365  13.312  1.3639  1.6049  1.2411
14187TIP3   OH264051   0.158   4.892   6.066 -0.3256 -0.2034 -0.2491
14187TIP3    H164052   0.145   4.829   6.137  0.8713  0.0302  0.2055
14187TIP3    H264053   0.070   4.913   6.035 -0.9489  0.4424  1.8219
14188TIP3   OH264054   1.746   5.119   2.552 -0.1991  0.3010 -0.7679
14188TIP3    H164055   1.673   5.073   2.511 -1.9683  0.8739  1.5607
14188TIP3    H264056   1.708   5.162   2.629  2.5998  0.5069  0.6364
14189TIP3   OH264057   2.539   3.029  16.015  0.2309  0.0124 -0.3226
14189TIP3    H164058   2.543   2.950  16.069  2.7389  0.9996  1.1155
14189TIP3    H264059   2.569   3.001  15.928 -0.4792 -0.9207 -0.2710
14190TIP3   OH264060   6.712   1.949   4.102 -0.4952 -0.1559 -0.3852
14190TIP3    H164061   6.679   1.884   4.040 -0.9287 -0.2806 -0.0258
14190TIP3    H264062   6.806   1.951   4.086 -0.3621 -1.4228  0.1166
14191TIP3   OH264063   3.203   5.600  16.251  0.5694  0.1458 -0.2437
14191TIP3    H164064   3.211   5.578  16.344  0.4787 -2.5284 -0.8007
14191TIP3    H264065   3.168   5.689  16.251 -2.9208 -1.0044  2.3662
14192TIP3   OH264066   5.401   4.699  11.909 -0.0352  0.3636 -0.1578
14192TIP3    H164067   5.418   4.641  11.835  1.0797 -0.8042  0.9772
14192TIP3    H264068   5.405   4.787  11.871 -0.6840 -0.2238 -1.6922
14193TIP3   OH264069   6.161   3.239  15.579 -0.1006 -0.0831  0.1915
14193TIP3    H164070   6.156   3.221  15.485 -0.3935  1.3849 -0.0892
14193TIP3    H264071   6.187   3.155  15.618 -0.6195 -0.8817 -1.1216
14194TIP3   OH264072   2.156   5.150  12.017  0.5455  0.0463 -0.3013
14194TIP3    H164073   2.077   5.200  12.040  0.3674 -0.5868  0.5065
14194TIP3    H264074   2.178   5.103  12.097  0.7299 -1.1444 -1.0363
14195TIP3   OH264075   2.600   1.494   5.176  0.2686  0.1198 -0.5606
14195TIP3    H164076   2.588   1.558   5.105  0.8770 -0.8209 -1.5508
14195TIP3    H264077   2.659   1.429   5.139 -0.9635 -1.4531  0.1382
14196TIP3   OH264078   5.108   2.993  15.634 -0.1925  0.1962  0.4008
14196TIP3    H164079   5.085   2.943  15.712 -1.0189 -1.1542 -0.6533
14196TIP3    H264080   5.186   2.950  15.600 -0.1722  0.4175  0.1683
14197TIP3   OH264081   1.341   6.820  16.635 -0.0565  0.2092 -0.9221
14197TIP3    H164082   1.322   6.794  16.725  0.1362  0.3570 -0.8379
14197TIP3    H264083   1.256   6.849  16.600 -0.1482  0.0633 -0.8171
14198TIP3   OH264084   1.167   5.622  15.460  0.4261 -0.4516 -0.2258
14198TIP3    H164085   1.250   5.662  15.435 -0.2640 -0.4725 -2.8194
14198TIP3    H264086   1.191   5.555  15.524  2.2146  0.4850  0.1411
14199TIP3   OH264087   6.102   5.057  13.360  0.0206 -0.9062  0.5120
14199TIP3    H164088   6.033   5.092  13.416  0.4845 -1.6294  1.5618
14199TIP3    H264089   6.173   5.033  13.420  1.5248  0.5238 -0.6171
14200TIP3   OH264090   5.919   2.176  12.513 -0.1470 -0.2381  0.2115
14200TIP3    H164091   5.983   2.245  12.493  0.0813  0.2916  2.4470
14200TIP3    H264092   5.836   2.210  12.480  0.0859  0.8482  0.6953
14201TIP3   OH264093   5.108   4.954  15.552  0.2409 -0.3103 -0.0309
14201TIP3    H164094   5.159   4.968  15.632 -1.0625 -0.6896  0.9018
14201TIP3    H264095   5.027   5.003  15.567 -0.7715 -1.8527 -0.3489
14202TIP3   OH264096   1.355   1.488  14.136  0.8403 -0.0541  0.0669
14202TIP3    H164097   1.332   1.427  14.067  0.3913  0.2136 -0.0220
14202TIP3    H264098   1.371   1.433  14.213 -0.7879 -0.2124  0.3259
14203TIP3   OH264099   2.240   4.857   0.148 -0.0750  0.2132  0.5844
14203TIP3    H164100   2.237   4.783   0.088  1.4318  0.9457 -0.4591
14203TIP3    H264101   2.150   4.886   0.155 -0.5680 -1.1598  0.3307
14204TIP3   OH264102   2.151   2.040   5.964 -0.1287 -0.0312  0.6287
14204TIP3    H164103   2.152   1.955   6.008 -0.2817  0.7037  2.1172
14204TIP3    H264104   2.141   2.103   6.035 -0.3699  1.2156 -0.4821
14205TIP3   OH264105   0.576   0.455  17.056 -0.0731  0.3106  0.2414
14205TIP3    H164106   0.518   0.530  17.041 -1.3081 -0.1939  2.0270
14205TIP3    H264107   0.664   0.492  17.058 -0.6610  1.7641  1.1576
14206TIP3   OH264108   2.108   1.144  14.317  0.5011 -0.0809  0.0926
14206TIP3    H164109   2.133   1.070  14.262 -0.7599 -0.0956 -0.5030
14206TIP3    H264110   2.190   1.177  14.353  1.0746 -1.7886  0.4008
14207TIP3   OH264111   4.753   5.190   2.546  0.0572  0.0105 -0.4197
14207TIP3    H164112   4.686   5.166   2.611  1.4663 -0.2868  0.9810
14207TIP3    H264113   4.776   5.280   2.569  1.2808 -0.4331  0.1545
14208TIP3   OH264114   0.512   3.270   0.977 -0.4171 -0.2919 -0.2305
14208TIP3    H164115   0.593   3.298   1.020  0.5330  1.5338 -2.9502
14208TIP3    H264116   0.526   3.291   0.884 -3.4161 -1.3943 -1.0328
14209TIP3   OH264117   6.651   3.068   4.577 -0.2178  0.5335 -0.8744
14209TIP3    H164118   6.667   3.138   4.640  0.2188  0.7006 -1.1616
14209TIP3    H264119   6.640   2.990   4.630  2.3824  0.2425 -0.6133
14210TIP3   OH264120   0.632   3.628   0.813  0.8470 -0.0068 -0.3334
14210TIP3    H164121   0.649   3.534   0.800  1.7175 -0.0033  0.6457
14210TIP3    H264122   0.719   3.666   0.822  0.5950  1.1739 -2.3194
14211TIP3   OH264123   6.794   1.856  16.042 -0.0029 -0.0402  0.4679
14211TIP3    H164124   6.752   1.905  16.113  0.4907 -2.0372  2.2361
14211TIP3    H264125   6.811   1.770  16.079  1.9233 -0.6080 -1.5407
14212TIP3   OH264126   2.094   0.207   4.248 -0.3792  0.7605 -0.5184
14212TIP3    H164127   2.124   0.229   4.159  0.2841 -0.1860 -0.5424
14212TIP3    H264128   2.163   0.241   4.305 -1.0299  1.7864 -0.3127
14213TIP3   OH264129   1.057   2.561   3.947 -0.4884  0.3686 -0.2935
14213TIP3    H164130   1.085   2.649   3.972 -0.8682  0.4918 -0.2991
14213TIP3    H264131   1.131   2.526   3.897  0.5376 -0.1071  1.4848
14214TIP3   OH264132   2.638   2.740   5.547  0.1716 -0.2067 -0.0405
14214TIP3    H164133   2.681   2.772   5.468  1.3649 -0.1608  0.6137
14214TIP3    H264134   2.617   2.819   5.597  0.1551 -0.2724  0.0584
14215TIP3   OH264135   3.335   1.517   5.678 -0.1877  0.5208 -0.5418
14215TIP3    H164136   3.349   1.435   5.631 -0.6155  1.5799 -2.6230
14215TIP3    H264137   3.407   1.520   5.741  0.3767 -1.0072 -1.0471
14216TIP3   OH264138   3.220   4.948  15.936  0.0307 -0.4688  0.4590
14216TIP3    H164139   3.261   4.910  16.014 -0.9918  0.1119  1.3107
14216TIP3    H264140   3.176   4.874  15.893 -0.3555 -0.6041  1.0668
14217TIP3   OH264141   6.387   5.164  14.696  0.5459 -0.7122 -0.0349
14217TIP3    H164142   6.359   5.243  14.742  1.7149 -1.9420  3.0863
14217TIP3    H264143   6.457   5.193  14.638 -0.7332  0.8785 -0.8496
14218TIP3   OH264144   4.183   3.936   0.830 -0.0758  0.2471 -0.5110
14218TIP3    H164145   4.172   3.877   0.904  0.8299 -0.4163 -0.8898
14218TIP3    H264146   4.096   3.942   0.790 -0.7351  1.1352  0.9702
14219TIP3   OH264147   4.155   6.329  13.787 -0.5427 -0.4783 -0.8109
14219TIP3    H164148   4.072   6.369  13.760  0.2940  0.3785 -2.3181
14219TIP3    H264149   4.220   6.373  13.732  1.2791  0.8025  2.1374
14220TIP3   OH264150   1.838   0.088   3.333  0.4610 -0.5938  0.0349
14220TIP3    H164151   1.831   0.076   3.427  1.4899 -0.8804  0.0875
14220TIP3    H264152   1.922   0.050   3.310  0.9869  0.9449 -0.7465
14221TIP3   OH264153   6.007   1.587   4.240  0.3934 -0.3601  0.1130
14221TIP3    H164154   6.071   1.620   4.177 -0.4528  1.8539  0.3399
14221TIP3    H264155   6.029   1.630   4.322 -0.0266 -1.3344  0.7620
14222TIP3   OH264156   5.288   0.116   0.935 -0.1260  0.1616 -0.2931
14222TIP3    H164157   5.381   0.096   0.944 -0.1007  0.4517  0.1427
14222TIP3    H264158   5.243   0.040   0.972 -0.0365  0.6520  0.8883
14223TIP3   OH264159   2.048   0.635   5.842  0.5869 -0.2866  0.0354
14223TIP3    H164160   2.140   0.654   5.822  0.4117  2.1375  1.1205
14223TIP3    H264161   2.009   0.613   5.758  1.5473  1.6839 -1.0088
14224TIP3   OH264162   3.858   1.020   2.780  0.6429 -0.2986 -0.2713
14224TIP3    H164163   3.886   0.928   2.784 -0.8656 -0.9591 -2.4852
14224TIP3    H264164   3.763   1.016   2.790  0.5566  1.0288 -0.4363
14225TIP3   OH264165   5.666   1.350  12.529  0.4037  0.2454 -0.6448
14225TIP3    H164166   5.612   1.379  12.456 -1.4668  1.3770  1.0879
14225TIP3    H264167   5.676   1.428  12.584  1.6493 -0.5870  0.3709
14226TIP3   OH264168   2.420   6.756  10.994 -0.1268 -0.3259  0.3167
14226TIP3    H164169   2.474   6.759  10.915 -0.8635  1.5478 -0.1820
14226TIP3    H264170   2.475   6.714  11.060  0.3884 -2.2603 -1.2450
14227TIP3   OH264171   1.971   1.426  16.125  0.0924  0.4971  0.2929
14227TIP3    H164172   1.968   1.444  16.031 -0.5197  2.1525  0.5932
14227TIP3    H264173   2.045   1.367  16.136 -1.6426 -2.2970 -1.6096
14228TIP3   OH264174   5.491   5.201  12.159  0.4834 -0.0874 -0.4356
14228TIP3    H164175   5.509   5.111  12.188  0.6145  0.0372 -0.1212
14228TIP3    H264176   5.545   5.255  12.217 -0.1188  0.2365 -0.1715
14229TIP3   OH264177   6.535   3.845   1.741  0.4221 -0.1576  0.0378
14229TIP3    H164178   6.553   3.751   1.736  1.6197 -0.1197  2.3523
14229TIP3    H264179   6.579   3.882   1.664  0.7262 -1.3698 -0.4047
14230TIP3   OH264180   6.111   0.583   0.791 -0.3800  0.8411  0.1996
14230TIP3    H164181   6.175   0.613   0.727 -1.1779  1.5105 -0.3011
14230TIP3    H264182   6.070   0.507   0.750  0.4519  0.0853  0.7454
14231TIP3   OH264183   2.941   6.113  16.544 -0.2237  0.3504 -0.1574
14231TIP3    H164184   2.878   6.050  16.509  0.9187 -0.6289 -0.5516
14231TIP3    H264185   2.974   6.159  16.467 -0.9298  1.3269  0.1123
14232TIP3   OH264186   0.088   1.018  16.419  0.2698  0.4251 -0.3215
14232TIP3    H164187   0.027   1.060  16.359  0.3288 -0.6191 -1.1372
14232TIP3    H264188   0.165   0.999  16.365  1.2215  1.4407  0.6108
14233TIP3   OH264189   4.417   4.532  12.933  0.0935  0.1677 -0.0327
14233TIP3    H164190   4.342   4.569  12.886 -0.0407  2.2595  1.6800
14233TIP3    H264191   4.493   4.557  12.880 -0.2245  0.3809 -0.3916
14234TIP3   OH264192   3.085   5.300   1.265  0.0181  0.0224 -0.5693
14234TIP3    H164193   3.000   5.301   1.221 -1.6579 -1.4661  2.3178
14234TIP3    H264194   3.092   5.386   1.307 -0.7501 -0.3175  0.2879
14235TIP3   OH264195   2.514   4.862  16.776  0.1604 -0.1285  0.1675
14235TIP3    H164196   2.535   4.855  16.683  1.2072 -1.5101  0.4755
14235TIP3    H264197   2.600   4.868  16.820 -0.3342  1.7343  0.9890
14236TIP3   OH264198   0.068   4.297  16.639  0.0739 -0.4178 -0.4234
14236TIP3    H164199   0.159   4.321  16.626  0.6636 -3.2185 -2.5580
14236TIP3    H264200   0.059   4.286  16.734  1.2485  2.0741  0.0506
14237TIP3   OH264201   5.038   4.530  11.867  0.1214  0.2153 -0.5725
14237TIP3    H164202   4.971   4.469  11.896 -0.5340  0.3292 -1.7974
14237TIP3    H264203   5.090   4.548  11.946  0.0861 -1.5886 -0.1100
14238TIP3   OH264204   3.459   0.194  12.196 -0.3746  0.3310  0.1747
14238TIP3    H164205   3.368   0.203  12.226 -0.4568 -1.2573  0.4717
14238TIP3    H264206   3.504   0.152  12.269  0.3675  0.1615 -0.3685
14239TIP3   OH264207   5.359   2.776   0.973 -0.5712  0.5452 -0.1560
14239TIP3    H164208   5.358   2.864   1.012  0.4609  0.4986 -0.0092
14239TIP3    H264209   5.369   2.792   0.879  1.4221  0.5766  0.0176
14240TIP3   OH264210   4.629   3.795   3.452 -0.3314 -0.3348  0.3918
14240TIP3    H164211   4.722   3.784   3.432 -0.4506  1.1066 -1.1765
14240TIP3    H264212   4.602   3.710   3.486  1.1950 -1.2822 -0.6318
14241TIP3   OH264213   5.536   5.284  16.383 -0.0991 -0.1834  0.3155
14241TIP3    H164214   5.483   5.209  16.357  1.8432 -1.7047  0.4962
14241TIP3    H264215   5.538   5.340  16.306 -2.1525  0.0845  0.4004
14242TIP3   OH264216   1.204   1.890   1.607 -0.5747 -0.4310 -0.6512
14242TIP3    H164217   1.229   1.912   1.517  0.0684 -0.8678 -0.5832
14242TIP3    H264218   1.109   1.905   1.609 -0.9837 -2.3456 -2.0088
14243TIP3   OH264219   2.683   0.147   4.181  0.0760 -0.8633 -0.0209
14243TIP3    H164220   2.710   0.090   4.109  1.4828 -0.9651  0.5621
14243TIP3    H264221   2.672   0.233   4.140  2.4407 -0.5396 -0.1487
14244TIP3   OH264222   4.913   6.263   2.469  0.9295 -0.3253  0.0552
14244TIP3    H164223   4.858   6.341   2.459  0.0253 -1.1097 -1.4739
14244TIP3    H264224   4.860   6.191   2.434  2.1176 -1.4737  0.5092
14245TIP3   OH264225   0.774   1.357   3.325  0.0074  0.0252 -0.2027
14245TIP3    H164226   0.810   1.442   3.300 -1.0475  0.7487  0.6574
14245TIP3    H264227   0.788   1.352   3.419 -0.9838 -0.2326 -0.0548
14246TIP3   OH264228   0.070   4.738   1.910  0.1568 -0.0490  0.1823
14246TIP3    H164229   0.129   4.792   1.962 -0.2837 -0.9349  1.6694
14246TIP3    H264230  -0.002   4.717   1.970 -0.6867 -0.6057 -0.9872
14247TIP3   OH264231   5.477   2.532   0.901 -0.0521 -0.3928 -0.2100
14247TIP3    H164232   5.419   2.597   0.941  0.4735 -0.1123  0.0938
14247TIP3    H264233   5.467   2.454   0.955 -0.6295 -0.5527 -0.5341
14248TIP3   OH264234   2.550   5.177  15.710  0.1920 -0.2803  0.3011
14248TIP3    H164235   2.631   5.199  15.664 -0.2761 -0.7821 -0.7816
14248TIP3    H264236   2.523   5.259  15.751  1.2123 -0.0958  0.6488
14249TIP3   OH264237   0.842   2.293   2.147 -0.0255 -0.2073 -0.3198
14249TIP3    H164238   0.880   2.381   2.143  0.6022 -0.5211 -1.7428
14249TIP3    H264239   0.824   2.280   2.240  0.9351  0.9772  0.0661
14250TIP3   OH264240   5.350   1.521  16.574 -0.7312 -0.5382  0.1553
14250TIP3    H164241   5.305   1.545  16.655 -2.9065 -1.0814 -0.8230
14250TIP3    H264242   5.344   1.599  16.519  2.5071  0.5689  1.0985
14251TIP3   OH264243   0.869   1.718   5.143 -0.0731  0.0195 -0.0882
14251TIP3    H164244   0.810   1.646   5.165 -0.9938  0.5444 -0.7921
14251TIP3    H264245   0.945   1.704   5.201 -1.4127  0.0688  1.7944
14252TIP3   OH264246   4.612   1.120   1.457  0.2399  0.6431  0.5935
14252TIP3    H164247   4.594   1.134   1.550 -3.4065  1.4791 -0.0741
14252TIP3    H264248   4.541   1.063   1.427  1.7262 -0.2007 -1.5924
14253TIP3   OH264249   2.505   6.706  14.508 -0.6395  0.2328  0.3019
14253TIP3    H164250   2.543   6.794  14.513 -0.0169  0.0368 -0.7441
14253TIP3    H264251   2.558   6.661  14.443 -1.0932 -0.8568  0.6715
14254TIP3   OH264252   5.518   2.455   1.780 -0.6736  0.0278  0.5106
14254TIP3    H164253   5.571   2.390   1.734  0.8896 -0.1377  2.4449
14254TIP3    H264254   5.533   2.537   1.733 -0.7919 -0.5214 -0.5137
14255TIP3   OH264255   0.125   3.887   1.732 -0.4701  0.1400 -0.3902
14255TIP3    H164256   0.061   3.893   1.662 -1.4899  0.3479  0.5211
14255TIP3    H264257   0.098   3.811   1.784  0.3918 -0.1462 -0.3333
14256TIP3   OH264258   0.452   0.962   0.835 -0.2422 -0.4391 -0.2546
14256TIP3    H164259   0.545   0.978   0.849 -0.2302  0.7059 -1.4052
14256TIP3    H264260   0.419   1.044   0.799 -1.8196 -0.6514  0.6066
14257TIP3   OH264261   3.079   0.010   2.739  0.2071 -0.3936 -0.3888
14257TIP3    H164262   3.113  -0.023   2.657  1.3114  3.8240 -1.8526
14257TIP3    H264263   2.985   0.020   2.724  0.2624 -0.4909 -0.7998
14258TIP3   OH264264   1.426   0.050   6.583 -0.1074 -0.5395 -0.4193
14258TIP3    H164265   1.418  -0.045   6.588  1.5688 -0.8695 -2.6623
14258TIP3    H264266   1.417   0.071   6.490 -1.6492  1.6679  0.1425
14259TIP3   OH264267   2.647   6.071   0.551  0.4390  0.1060 -0.9893
14259TIP3    H164268   2.602   5.990   0.576 -0.8118  0.9145 -0.5386
14259TIP3    H264269   2.711   6.084   0.621 -1.7631  1.3395  0.9710
14260TIP3   OH264270   5.134   0.540   0.991  0.3976 -0.3061  0.2689
14260TIP3    H164271   5.222   0.513   1.017  0.8020 -0.1534 -0.8779
14260TIP3    H264272   5.142   0.562   0.898 -0.8410 -0.2361  0.1584
14261TIP3   OH264273   0.077   1.434   4.350  0.2996  0.3682  0.2810
14261TIP3    H164274   0.084   1.429   4.254  1.0889 -0.6991  0.3781
14261TIP3    H264275   0.150   1.491   4.376 -1.6781  3.2266  0.0755
14262TIP3   OH264276   4.292   4.735  12.191 -0.4218 -0.1954 -0.4740
14262TIP3    H164277   4.218   4.749  12.250 -0.1328 -0.7463  0.0292
14262TIP3    H264278   4.253   4.729  12.104 -0.9292 -0.1168 -0.2528
14263TIP3   OH264279   3.867   6.479   3.888 -0.1028 -0.0545 -0.4542
14263TIP3    H164280   3.912   6.396   3.908 -0.0976  0.1412  0.4179
14263TIP3    H264281   3.791   6.453   3.836  0.2667 -0.5362 -0.7678
14264TIP3   OH264282   0.240   6.510  13.270  0.2333 -0.0088 -0.6437
14264TIP3    H164283   0.230   6.564  13.349 -0.8922  0.1298 -0.8711
14264TIP3    H264284   0.223   6.421  13.301  0.6028 -0.0569 -0.5723
14265TIP3   OH264285   5.510   0.740   1.916 -0.0280 -0.4524  0.3826
14265TIP3    H164286   5.437   0.789   1.953  0.0371  0.9063 -1.2186
14265TIP3    H264287   5.576   0.740   1.986  0.1489  2.1827  0.3163
14266TIP3   OH264288   4.636   6.070  12.160 -0.2137 -0.4429 -0.0433
14266TIP3    H164289   4.548   6.100  12.140 -0.5627 -1.4805 -0.1108
14266TIP3    H264290   4.638   6.059  12.255  0.0623  0.2275  0.0354
14267TIP3   OH264291   2.416   0.751   3.731  0.0647  0.6349 -0.0419
14267TIP3    H164292   2.345   0.759   3.795 -0.9074 -1.2497 -0.7784
14267TIP3    H264293   2.496   0.748   3.783 -0.5429  1.0660  0.9333
14268TIP3   OH264294   3.496   6.658   1.196 -0.0312  0.4496 -0.5044
14268TIP3    H164295   3.532   6.712   1.266  2.5005 -0.4613 -0.9866
14268TIP3    H264296   3.462   6.580   1.241 -0.3664  0.7999 -0.1406
14269TIP3   OH264297   4.456   4.782  16.858  0.2047  0.0197 -0.0267
14269TIP3    H164298   4.504   4.725  16.918 -1.9819 -1.8020  0.0857
14269TIP3    H264299   4.399   4.724  16.809 -1.3956  2.0040 -0.6660
14270TIP3   OH264300   4.997   5.255  13.953  0.1779  0.4845  0.1815
14270TIP3    H164301   4.939   5.313  13.904  1.6750  1.1483 -0.8806
14270TIP3    H264302   5.069   5.236  13.893  1.6279  0.5909  1.8024
14271TIP3   OH264303   5.250   3.888   4.273  0.4375 -0.1943 -0.1928
14271TIP3    H164304   5.303   3.829   4.219 -0.8091 -0.5421 -1.0807
14271TIP3    H264305   5.284   3.975   4.252  0.9002 -0.4337 -0.4779
14272TIP3   OH264306   2.349   0.904  12.223  0.4380  0.3700  0.3150
14272TIP3    H164307   2.436   0.878  12.255  0.4007 -0.4905 -0.2789
14272TIP3    H264308   2.333   0.848  12.148 -0.2786  1.1137 -0.1013
14273TIP3   OH264309   4.775   0.158   5.772  0.5284 -0.4089 -0.3303
14273TIP3    H164310   4.704   0.222   5.780  0.2009 -0.2377 -3.4279
14273TIP3    H264311   4.748   0.086   5.829 -0.6900  0.8207  0.7375
14274TIP3   OH264312   3.752   4.429  15.549  0.2349 -0.1877 -0.6870
14274TIP3    H164313   3.788   4.342  15.532  0.6396  0.3285 -2.6859
14274TIP3    H264314   3.800   4.460  15.626  2.0898 -0.6517 -1.5986
14275TIP3   OH264315   6.178   6.179  11.613  0.5447  0.3051  0.0621
14275TIP3    H164316   6.125   6.197  11.535  1.1313 -1.8162 -0.8913
14275TIP3    H264317   6.190   6.265  11.654 -1.5090  1.1926 -1.0370
14276TIP3   OH264318   5.754   5.256   2.828  0.0165 -0.0153  0.0836
14276TIP3    H164319   5.697   5.313   2.776 -0.4394  0.9863  1.6251
14276TIP3    H264320   5.700   5.179   2.848 -0.5224  0.5298  0.7861
14277TIP3   OH264321   5.985   5.279   3.253 -0.0062  0.3767 -0.5552
14277TIP3    H164322   6.061   5.265   3.310  1.7814  2.6400 -2.2081
14277TIP3    H264323   6.008   5.235   3.171 -0.9162  0.3191 -0.7909
14278TIP3   OH264324   2.261   3.758   4.097 -0.1674  0.0850  0.0585
14278TIP3    H164325   2.339   3.718   4.058 -0.1632  0.6589 -0.5457
14278TIP3    H264326   2.265   3.849   4.069 -0.5895  0.3244  0.7674
14279TIP3   OH264327   5.869   2.386   1.814  0.0490  0.0516  0.2607
14279TIP3    H164328   5.864   2.368   1.908 -0.3470  1.4750  0.5357
14279TIP3    H264329   5.894   2.302   1.775 -0.0813 -0.6419  1.5993
14280TIP3   OH264330   1.319   5.326  14.770  0.0600 -0.1253  0.2127
14280TIP3    H164331   1.285   5.243  14.803  1.2685 -0.3842  0.9029
14280TIP3    H264332   1.413   5.321  14.786  0.5025  0.4128 -1.8903
14281TIP3   OH264333   5.077   0.392  13.272 -0.3515  0.2311 -0.0395
14281TIP3    H164334   5.156   0.443  13.252 -0.8181  0.5664 -1.1426
14281TIP3    H264335   5.098   0.303  13.244 -0.2129  0.2322  0.0633
14282TIP3   OH264336   1.435   5.296  14.270 -0.6129  0.9156 -0.4327
14282TIP3    H164337   1.341   5.309  14.280 -0.9259 -0.0156 -1.9049
14282TIP3    H264338   1.445   5.201  14.259  0.7880  0.6441  2.1945
14283TIP3   OH264339   1.574   3.128  12.939  0.3429  0.1633  0.0021
14283TIP3    H164340   1.610   3.210  12.971 -0.1540  0.3724  0.0344
14283TIP3    H264341   1.614   3.115  12.853  0.2344  0.5653 -0.1093
14284TIP3   OH264342   1.516   3.664  10.700 -0.2076 -0.0688  0.0612
14284TIP3    H164343   1.541   3.574  10.679 -0.8100 -0.4785  1.0110
14284TIP3    H264344   1.597   3.705  10.729  1.1113  1.0687 -4.4622
14285TIP3   OH264345   5.520   1.234   5.029  0.2066 -0.1918 -0.1323
14285TIP3    H164346   5.551   1.230   5.119 -1.8105  0.7554  0.6683
14285TIP3    H264347   5.592   1.274   4.981  1.8053 -1.8080  0.7647
14286TIP3   OH264348   1.166   4.621  13.272  0.5707  0.1850  0.0860
14286TIP3    H164349   1.259   4.606  13.288  0.0988 -3.6192  0.1426
14286TIP3    H264350   1.125   4.612  13.358 -0.1276 -1.4323 -0.3934
14287TIP3   OH264351   5.698   3.464  12.314 -0.4442  0.0570  0.0382
14287TIP3    H164352   5.623   3.431  12.264  0.3697 -0.4065 -0.9298
14287TIP3    H264353   5.659   3.514  12.385 -1.6666  1.2903 -1.4153
14288TIP3   OH264354   0.236   5.718  12.655  0.2353 -0.2587  0.5018
14288TIP3    H164355   0.155   5.766  12.639 -0.3817 -1.0890  1.0410
14288TIP3    H264356   0.252   5.669  12.574 -0.1368 -0.5628  0.6106
14289TIP3   OH264357   4.553   0.082   1.749 -0.2697  0.3920 -0.1279
14289TIP3    H164358   4.626   0.027   1.778 -0.7096  0.0017  0.2374
14289TIP3    H264359   4.541   0.144   1.821  0.3761  1.1275 -0.6362
14290TIP3   OH264360   1.482   3.113  12.175 -0.2482 -0.1611 -0.3868
14290TIP3    H164361   1.436   3.192  12.202  0.1586  0.2139 -0.7753
14290TIP3    H264362   1.574   3.133  12.188 -0.1992 -1.0186  0.6717
14291TIP3   OH264363   5.598   6.462  14.791  0.0859 -0.0355  0.2617
14291TIP3    H164364   5.632   6.521  14.725 -1.3138  1.3616  0.7195
14291TIP3    H264365   5.623   6.502  14.874  0.1696 -0.7494  0.5866
14292TIP3   OH264366   5.302   4.151  14.631  0.6093 -0.4784  0.9618
14292TIP3    H164367   5.248   4.130  14.555  0.7025 -2.5044  1.4067
14292TIP3    H264368   5.368   4.212  14.597  0.4442 -1.0871 -0.5011
14293TIP3   OH264369   3.951   1.232  13.907 -0.0097 -0.1066  0.3116
14293TIP3    H164370   4.037   1.205  13.937 -0.4636 -1.5035  0.4303
14293TIP3    H264371   3.968   1.284  13.828  1.1477  3.0441  2.4594
14294TIP3   OH264372   2.885   0.538  14.789 -0.4358 -0.6768 -0.5411
14294TIP3    H164373   2.914   0.463  14.738 -0.9431 -1.7070  0.6345
14294TIP3    H264374   2.789   0.530  14.792 -0.5281  0.2411 -0.7330
14295TIP3   OH264375   5.868   0.866  13.230 -0.3190  0.4558  0.0324
14295TIP3    H164376   5.956   0.846  13.198 -0.0495 -0.5788  1.3251
14295TIP3    H264377   5.878   0.948  13.278  0.2970 -0.4433  1.4923
14296TIP3   OH264378   1.136   3.429  15.393  0.1739  0.7224  0.3302
14296TIP3    H164379   1.040   3.423  15.392  0.1464  1.1214 -1.0516
14296TIP3    H264380   1.165   3.344  15.427 -0.6961  1.3932  2.9423
14297TIP3   OH264381   5.019   2.184   5.397  0.7078 -0.5246 -0.3781
14297TIP3    H164382   5.093   2.170   5.338  0.7865  2.1871 -1.0346
14297TIP3    H264383   4.981   2.267   5.370 -1.1299 -0.6627  1.4851
14298TIP3   OH264384   1.299   4.290  16.289  0.1064 -0.0739  0.0604
14298TIP3    H164385   1.240   4.363  16.269  0.0752 -0.1628 -0.1696
14298TIP3    H264386   1.294   4.282  16.385  0.5279  0.5755  0.1466
14299TIP3   OH264387   3.245   5.768  12.716 -0.6445 -0.0891  0.2170
14299TIP3    H164388   3.279   5.857  12.723 -0.0333 -0.2567 -0.5169
14299TIP3    H264389   3.250   5.734  12.806 -1.8169  0.9352  0.6898
14300TIP3   OH264390   4.985   2.137   0.643  0.0752 -0.4957 -0.4023
14300TIP3    H164391   5.019   2.224   0.620 -0.7050 -0.2477 -0.6606
14300TIP3    H264392   4.974   2.140   0.738  0.0231 -0.2940 -0.4128
14301TIP3   OH264393   2.716   6.524   0.645  0.5090  0.6710 -0.1087
14301TIP3    H164394   2.713   6.480   0.560 -2.0337  0.8355 -0.1839
14301TIP3    H264395   2.653   6.595   0.638  1.1169  1.4370  1.5585
14302TIP3   OH264396   3.642   1.715  15.444 -0.2819 -0.3790 -0.6064
14302TIP3    H164397   3.650   1.675  15.357 -1.0960 -0.5362 -0.6150
14302TIP3    H264398   3.553   1.694  15.472  0.2358 -1.0429  0.6174
14303TIP3   OH264399   6.675   3.475   3.370  0.3182 -0.5729 -0.0051
14303TIP3    H164400   6.586   3.496   3.342 -0.0849 -0.3955  1.3459
14303TIP3    H264401   6.687   3.383   3.347 -0.2799 -0.6466 -0.0183
14304TIP3   OH264402   5.465   3.305   3.234 -0.2741 -0.2880 -0.8145
14304TIP3    H164403   5.502   3.223   3.202 -0.9337 -0.3143 -1.5512
14304TIP3    H264404   5.541   3.359   3.255  0.1778 -1.5372  0.9401
14305TIP3   OH264405   3.729   6.007  15.762  0.7728 -0.0669  0.4491
14305TIP3    H164406   3.768   6.062  15.693 -2.0754  1.3779 -0.1567
14305TIP3    H264407   3.635   6.021  15.753 -0.0297 -3.8131  1.4188
14306TIP3   OH264408   0.010   5.345  15.696  0.2705 -0.1220  0.4393
14306TIP3    H164409   0.036   5.255  15.717  0.6328  0.3591  2.2513
14306TIP3    H264410  -0.082   5.349  15.720 -0.1639 -0.3868 -1.0657
14307TIP3   OH264411   4.530   6.010  14.447  1.1050 -0.1368  0.0222
14307TIP3    H164412   4.492   6.092  14.413  1.6308  0.8312  1.6606
14307TIP3    H264413   4.608   5.997  14.394  0.8365  0.2227 -0.4820
14308TIP3   OH264414   0.235   4.575   0.129  0.2269  0.1524  0.3086
14308TIP3    H164415   0.197   4.517   0.195  1.4326 -1.0536 -0.0213
14308TIP3    H264416   0.188   4.554   0.048 -1.0741  1.4530  0.6708
14309TIP3   OH264417   6.195   3.457  11.326  0.0697  0.2816  0.2481
14309TIP3    H164418   6.107   3.430  11.349  0.7981 -3.0672 -0.3871
14309TIP3    H264419   6.183   3.520  11.255 -1.7753  1.4867  1.5227
14310TIP3   OH264420   0.398   2.261   4.805  0.1543  0.5774 -0.4338
14310TIP3    H164421   0.354   2.272   4.889  1.6752  1.4667  0.2809
14310TIP3    H264422   0.437   2.173   4.810 -0.4706  0.2819 -0.5829
14311TIP3   OH264423   5.197   1.965   1.950  0.5649  0.6861 -0.3056
14311TIP3    H164424   5.107   1.996   1.950  0.2753 -0.1362 -0.5209
14311TIP3    H264425   5.212   1.934   1.861  1.0203  0.7036 -0.2376
14312TIP3   OH264426   0.943   4.121  14.739  0.5402  0.3006 -0.0038
14312TIP3    H164427   0.890   4.046  14.766 -0.2184  0.9983  0.4920
14312TIP3    H264428   0.948   4.115  14.644 -1.1999  0.7121 -0.1447
14313TIP3   OH264429   0.062   2.865   1.940  0.2006 -0.7153  0.5443
14313TIP3    H164430   0.127   2.831   2.001 -0.4223 -0.7115  1.2227
14313TIP3    H264431   0.041   2.791   1.884  1.4189 -0.4858 -0.2489
14314TIP3   OH264432   2.864   5.919   3.079 -0.2502 -0.3991  0.2936
14314TIP3    H164433   2.844   5.995   3.133 -1.3193 -0.8290  0.5301
14314TIP3    H264434   2.949   5.888   3.112  0.0188  0.4624  0.4359
14315TIP3   OH264435   1.094   0.647   0.735  0.1566 -0.3628  0.2457
14315TIP3    H164436   1.038   0.696   0.675 -0.7273 -0.3840  1.0401
14315TIP3    H264437   1.181   0.650   0.694 -0.1030  0.9522 -0.2583
14316TIP3   OH264438   0.047   4.899   6.603 -0.8877  0.0211  0.4370
14316TIP3    H164439   0.082   4.944   6.681  1.1009  1.0867 -1.0026
14316TIP3    H264440   0.058   4.806   6.622  0.7186  0.2827  0.9679
14317TIP3   OH264441   2.759   0.688   1.716  0.0268 -0.1287 -0.0624
14317TIP3    H164442   2.778   0.760   1.656  2.1317  0.0560  0.7615
14317TIP3    H264443   2.763   0.727   1.804  1.1215 -1.2072  0.3947
14318TIP3   OH264444   6.595   4.095  16.430  0.2244 -0.2690  0.0259
14318TIP3    H164445   6.588   4.140  16.346 -3.4861  0.0414  0.3268
14318TIP3    H264446   6.566   4.006  16.411 -1.5448  0.0449  1.0538
14319TIP3   OH264447   3.256   2.953   5.094  0.1324 -0.6079  0.2112
14319TIP3    H164448   3.185   2.890   5.107 -0.1320 -0.1116  1.3166
14319TIP3    H264449   3.273   2.988   5.182 -0.4460  1.6129 -0.5024
14320TIP3   OH264450   0.795   3.152   1.437 -0.2980 -0.0263 -0.3706
14320TIP3    H164451   0.825   3.219   1.499  2.4245 -1.1040 -0.3652
14320TIP3    H264452   0.768   3.079   1.493 -0.5193  0.0367 -0.3983
14321TIP3   OH264453   2.601   5.563  11.937  0.2363  0.3920 -0.4086
14321TIP3    H164454   2.615   5.597  11.848  1.2240  1.4055  0.1029
14321TIP3    H264455   2.663   5.613  11.991 -1.1214  0.5748  1.0273
14322TIP3   OH264456   1.839   1.218  15.939  0.3575  0.2173  0.5714
14322TIP3    H164457   1.925   1.242  15.974  0.2945  0.0552  0.8437
14322TIP3    H264458   1.812   1.293  15.887  0.6634  0.2720  0.4869
14323TIP3   OH264459   0.562   2.708  12.586  0.1928  0.2705 -0.6974
14323TIP3    H164460   0.475   2.747  12.599 -0.2239 -0.6468 -0.6386
14323TIP3    H264461   0.616   2.746  12.656 -0.7047 -0.7097  0.5647
14324TIP3   OH264462   6.665   2.271  16.399 -0.1142  0.0649 -0.0320
14324TIP3    H164463   6.657   2.263  16.495 -0.8053 -1.9316 -0.2034
14324TIP3    H264464   6.759   2.277  16.383  0.0038  0.5144  0.7768
14325TIP3   OH264465   5.057   1.210   0.870 -0.2516  0.2410  0.3770
14325TIP3    H164466   5.104   1.155   0.808  0.7446 -0.2265  1.5202
14325TIP3    H264467   5.088   1.183   0.956  0.7595  2.9560  0.9865
14326TIP3   OH264468   1.775   4.946   0.753 -0.7740  0.3681  0.0747
14326TIP3    H164469   1.823   4.866   0.731 -2.0555 -1.1022  2.3131
14326TIP3    H264470   1.789   4.958   0.847 -0.4587  2.9362 -0.2191
14327TIP3   OH264471   5.590   3.448  17.118  0.3375 -0.5805 -0.6182
14327TIP3    H164472   5.553   3.511  17.056 -2.4814 -1.1960  0.2481
14327TIP3    H264473   5.639   3.501  17.180 -1.5763  0.8122 -0.1796
14328TIP3   OH264474   1.319   3.863  13.811 -0.5180 -0.1880 -0.1434
14328TIP3    H164475   1.334   3.865  13.906  1.2112  0.1915 -0.3788
14328TIP3    H264476   1.370   3.788  13.780 -1.8378 -0.8999 -0.6962
14329TIP3   OH264477   0.048   2.210  14.801 -0.2672  0.4745 -0.5097
14329TIP3    H164478   0.058   2.201  14.706 -0.9821 -1.5182 -0.4426
14329TIP3    H264479  -0.046   2.217  14.815 -0.2501 -0.3294  0.1062
14330TIP3   OH264480   3.345   6.399  16.944  0.1107  0.0769  0.8052
14330TIP3    H164481   3.323   6.456  17.018 -1.8575  0.6542 -0.1527
14330TIP3    H264482   3.302   6.440  16.869  0.6949 -1.3753 -0.3678
14331TIP3   OH264483   1.210   5.714   6.661  0.5927  0.0017 -0.1363
14331TIP3    H164484   1.252   5.790   6.622  1.4922 -0.0091  0.7768
14331TIP3    H264485   1.170   5.747   6.741 -2.4481  0.3243 -1.6300
14332TIP3   OH264486   2.088   5.054   4.362  0.1941  0.4742  0.7676
14332TIP3    H164487   2.074   5.148   4.352  0.9154  0.4911 -0.2930
14332TIP3    H264488   2.164   5.047   4.419  0.8925  0.5744 -0.1348
14333TIP3   OH264489   3.935   5.390   1.566  0.1392 -0.1217  0.7483
14333TIP3    H164490   3.993   5.464   1.548 -0.3461  0.1418  0.2388
14333TIP3    H264491   3.847   5.422   1.547  0.0488 -1.2851 -1.1209
14334TIP3   OH264492   2.727   1.716   2.797  0.6992  0.3941 -0.1149
14334TIP3    H164493   2.800   1.668   2.757 -1.2200 -1.9157 -1.1602
14334TIP3    H264494   2.701   1.661   2.871 -1.0775  0.1312 -0.8739
14335TIP3   OH264495   2.890   5.884   1.739 -0.4038 -0.2039 -0.0490
14335TIP3    H164496   2.961   5.881   1.676 -0.8326 -0.0416 -0.5541
14335TIP3    H264497   2.820   5.832   1.698 -1.1651  1.0004 -0.3335
14336TIP3   OH264498   3.890   4.772   6.797  0.2103 -0.1491 -0.2096
14336TIP3    H164499   3.888   4.820   6.880  0.6191 -0.1847 -0.1785
14336TIP3    H264500   3.916   4.838   6.732  2.5189 -0.6896  0.0953
14337TIP3   OH264501   4.261   3.613   6.147 -0.2297  0.5761 -0.2893
14337TIP3    H164502   4.269   3.611   6.242 -0.4517  0.2707 -0.2744
14337TIP3    H264503   4.329   3.554   6.115  0.5061  1.4559 -0.3692
14338TIP3   OH264504   6.349   6.770   3.078 -0.0652  0.1226  0.4298
14338TIP3    H164505   6.345   6.702   3.145  2.7753 -0.9902 -0.3949
14338TIP3    H264506   6.379   6.725   2.999  0.5270  2.0702 -0.5291
14339TIP3   OH264507   0.391   5.571  15.827 -0.5370 -0.5762  0.0701
14339TIP3    H164508   0.446   5.492  15.829 -0.1309 -0.2838  1.0728
14339TIP3    H264509   0.397   5.607  15.916 -0.3179  0.8506 -0.4848
14340TIP3   OH264510   2.960   4.452  11.474 -0.1433  0.3926 -0.8379
14340TIP3    H164511   2.970   4.452  11.378 -0.1392  0.6767 -0.8373
14340TIP3    H264512   3.049   4.457  11.507 -0.1178 -0.1706 -0.8155
14341TIP3   OH264513   2.800   4.903   0.186  0.5721 -0.6227 -0.0864
14341TIP3    H164514   2.847   4.969   0.135  1.3554  0.3039  1.7098
14341TIP3    H264515   2.868   4.848   0.223  0.2134 -0.0956  1.4588
14342TIP3   OH264516   3.730   3.771   2.523  0.0721 -0.1312 -0.7066
14342TIP3    H164517   3.777   3.692   2.549  0.5729 -0.0414 -1.3363
14342TIP3    H264518   3.670   3.743   2.454 -1.8402 -0.5318  0.9983
14343TIP3   OH264519   1.117   5.674  12.616  0.1432 -0.7927  0.7695
14343TIP3    H164520   1.052   5.654  12.549  3.1093 -0.0235 -2.6916
14343TIP3    H264521   1.176   5.599  12.616  2.2007  0.6841 -0.3393
14344TIP3   OH264522   5.159   3.088   2.996  0.4290  0.0760 -0.4726
14344TIP3    H164523   5.081   3.095   2.941 -0.6479  0.3599  1.0335
14344TIP3    H264524   5.178   3.179   3.022  1.1274 -0.0205 -0.6238
14345TIP3   OH264525   1.145   6.384  11.917 -0.3536  0.9896  0.0752
14345TIP3    H164526   1.121   6.292  11.929  0.0053  1.0726  1.6759
14345TIP3    H264527   1.112   6.406  11.830 -2.0613 -0.1288  0.3966
14346TIP3   OH264528   5.551   2.074   0.124  0.3242 -0.4457 -0.2175
14346TIP3    H164529   5.518   2.163   0.109 -0.8090 -1.0438 -1.5111
14346TIP3    H264530   5.618   2.084   0.191 -0.6092  1.2313  0.5328
14347TIP3   OH264531   5.042   3.469   1.598 -0.1415 -0.3033 -0.2985
14347TIP3    H164532   4.948   3.451   1.602 -0.1153 -0.3775  0.0021
14347TIP3    H264533   5.075   3.408   1.532 -0.3904  0.1060 -0.8104
14348TIP3   OH264534   6.594   5.507  17.051 -0.0764  0.2815 -0.1334
14348TIP3    H164535   6.596   5.488  16.957  0.9628  0.7208 -0.2067
14348TIP3    H264536   6.535   5.440  17.087 -0.7759  0.3312 -1.1334
14349TIP3   OH264537   3.643   0.610   4.510  0.1300  0.1766 -0.4955
14349TIP3    H164538   3.647   0.683   4.571 -0.4962  0.1934 -0.4677
14349TIP3    H264539   3.587   0.545   4.553  0.6202 -0.2979 -0.5503
14350TIP3   OH264540   5.037   4.942  13.775  0.3902 -0.2737  0.1937
14350TIP3    H164541   5.026   4.944  13.871 -0.0149  0.7033  0.1421
14350TIP3    H264542   5.022   4.851  13.751 -0.6157 -0.3353  0.9579
14351TIP3   OH264543   2.242   6.712   3.085  0.4633 -0.1416  0.0026
14351TIP3    H164544   2.219   6.752   3.169 -1.1202 -1.2550  0.1420
14351TIP3    H264545   2.282   6.783   3.035  0.2921  0.8636  1.2451
14352TIP3   OH264546   5.497   4.652  14.664  0.5330 -0.1338 -0.3077
14352TIP3    H164547   5.550   4.725  14.697  1.0992 -0.7362  0.1582
14352TIP3    H264548   5.416   4.692  14.633  0.0130  0.5057  1.7035
14353TIP3   OH264549   5.981   1.565  11.801  0.4798 -0.0817  0.7771
14353TIP3    H164550   6.011   1.645  11.845  0.2156  0.8688 -0.6886
14353TIP3    H264551   5.900   1.542  11.847  0.9522  0.0639  1.7006
14354TIP3   OH264552   1.275   1.548   0.109  0.6653 -0.0534  0.2824
14354TIP3    H164553   1.330   1.516   0.181 -0.1653 -0.5432  0.7151
14354TIP3    H264554   1.337   1.582   0.044  1.4640 -0.4606  0.8208
14355TIP3   OH264555   0.673   4.660  13.878  0.7061  0.1677  0.3035
14355TIP3    H164556   0.614   4.706  13.819  0.3703  0.2351  0.6858
14355TIP3    H264557   0.619   4.591  13.917  0.6269  0.8002  1.3425
14356TIP3   OH264558   3.514   2.340   0.334 -0.2932  0.4143  0.4315
14356TIP3    H164559   3.566   2.420   0.334  0.7466 -0.2298  1.2323
14356TIP3    H264560   3.519   2.308   0.424 -0.0047 -0.9877 -0.0588
14357TIP3   OH264561   5.433   5.187   1.700  0.6619  0.6391 -0.7419
14357TIP3    H164562   5.440   5.178   1.795  0.8434  0.6628 -0.7524
14357TIP3    H264563   5.522   5.175   1.669  0.5087  0.0198 -0.9621
14358TIP3   OH264564   5.275   5.213  16.755 -0.3557  0.2225 -0.1272
14358TIP3    H164565   5.346   5.253  16.704  1.1948 -0.0676  1.6970
14358TIP3    H264566   5.271   5.265  16.835 -2.8159  0.7428 -0.5345
14359TIP3   OH264567   1.336   3.126   1.033  0.4700  0.2832 -0.0835
14359TIP3    H164568   1.272   3.188   1.065  0.4718  0.8250 -1.0860
14359TIP3    H264569   1.413   3.139   1.088  1.0246  2.2935 -1.2601
14360TIP3   OH264570   0.604   1.118   0.312 -0.3223  0.1787 -0.5894
14360TIP3    H164571   0.555   1.112   0.230 -3.8086  0.0937  1.3193
14360TIP3    H264572   0.553   1.066   0.374  0.3712  2.8042  2.4135
14361TIP3   OH264573   0.391   4.218   1.803  0.8417 -0.1039  0.0013
14361TIP3    H164574   0.372   4.154   1.734  1.3775  0.9013 -1.1189
14361TIP3    H264575   0.335   4.293   1.782  1.8525  0.6609 -0.0412
14362TIP3   OH264576   4.237   5.500   1.753 -1.0004 -0.5759  0.3352
14362TIP3    H164577   4.314   5.449   1.778  1.0808  2.3752  0.4705
14362TIP3    H264578   4.237   5.498   1.657 -0.5301 -0.3015  0.3277
14363TIP3   OH264579   2.258   1.007  11.110 -0.1514 -0.5435 -0.0673
14363TIP3    H164580   2.318   0.957  11.165 -0.1082  1.0185  1.3960
14363TIP3    H264581   2.313   1.041  11.039  0.2829 -0.7102  0.1874
14364TIP3   OH264582   2.508   2.485   5.265  0.3087 -0.1323  0.4380
14364TIP3    H164583   2.465   2.403   5.238  1.1977 -0.5305  0.1947
14364TIP3    H264584   2.437   2.549   5.268 -0.2683 -0.7215 -0.1649
14365TIP3   OH264585   6.638   6.796  14.092  0.2459 -0.4265 -0.0152
14365TIP3    H164586   6.687   6.822  14.014  0.7183  0.2715  0.5056
14365TIP3    H264587   6.590   6.717  14.065  0.1079  0.0189 -1.1161
14366TIP3   OH264588   6.457   4.146   3.360 -0.0705  0.7511 -0.1040
14366TIP3    H164589   6.498   4.077   3.308  0.2317 -0.1214  1.2614
14366TIP3    H264590   6.377   4.167   3.312  0.9331  1.0712 -1.7395
14367TIP3   OH264591   0.125   2.428   6.204 -0.1838  0.5013  0.1822
14367TIP3    H164592   0.155   2.369   6.273 -2.1659 -0.3090  0.4233
14367TIP3    H264593   0.031   2.436   6.219 -0.3484  1.8229 -1.3125
14368TIP3   OH264594   2.626   1.751   1.161  0.1395 -0.3091  0.1673
14368TIP3    H164595   2.548   1.696   1.163 -0.4407  0.3287 -1.7841
14368TIP3    H264596   2.621   1.795   1.076  2.1571  0.4488  0.3912
14369TIP3   OH264597   5.249   2.617   1.518  0.2981  0.0755  0.1248
14369TIP3    H164598   5.322   2.554   1.514  1.9053  1.6793  1.7704
14369TIP3    H264599   5.272   2.684   1.454 -0.1399  0.2008  0.0987
14370TIP3   OH264600   1.035   5.977   1.262 -0.0708 -0.1739 -0.1813
14370TIP3    H164601   0.958   6.033   1.276 -0.0476  0.1965 -1.3828
14370TIP3    H264602   1.023   5.943   1.173 -0.0283 -2.0121  0.4881
14371TIP3   OH264603   5.393   6.365  12.100  0.2902 -0.3764 -0.3855
14371TIP3    H164604   5.335   6.289  12.097  0.4432 -0.4788 -0.9958
14371TIP3    H264605   5.367   6.418  12.024 -0.3132  0.5597  0.4540
14372TIP3   OH264606   0.068   5.753   5.545  0.5850 -0.3612  0.2591
14372TIP3    H164607   0.086   5.761   5.451  0.1044 -1.9966 -0.0141
14372TIP3    H264608  -0.005   5.812   5.561  1.3071  0.6737 -0.1856
14373TIP3   OH264609   0.975   4.176   5.914 -0.3314 -0.5525 -0.1595
14373TIP3    H164610   0.949   4.086   5.897 -1.9021  0.3257 -3.2256
14373TIP3    H264611   1.006   4.176   6.004 -1.0401 -3.9535  0.2099
14374TIP3   OH264612   0.105   5.601  11.212 -0.3180 -0.1735  0.3402
14374TIP3    H164613   0.150   5.664  11.267 -1.6704  1.2778 -0.1490
14374TIP3    H264614   0.146   5.611  11.126  0.2327 -0.7966  0.5212
14375TIP3   OH264615   5.506   1.020  14.827  0.2205 -0.1336  0.0678
14375TIP3    H164616   5.466   0.980  14.749  1.0711  0.6066 -0.7741
14375TIP3    H264617   5.536   1.106  14.797 -1.7816  1.3175  1.8876
14376TIP3   OH264618   0.899   0.015   4.317  0.0611 -0.1380 -0.0600
14376TIP3    H164619   0.869  -0.028   4.236 -1.5669  0.3774  0.2375
14376TIP3    H264620   0.839  -0.016   4.384 -0.5986  1.8934  0.3414
14377TIP3   OH264621   0.138   2.331   1.285 -0.0242 -0.4645 -0.0038
14377TIP3    H164622   0.225   2.341   1.324  0.2046  0.8462 -0.8009
14377TIP3    H264623   0.081   2.385   1.340  0.1852  0.8680 -1.0300
14378TIP3   OH264624   1.907   5.803   0.686  0.0124 -0.3039 -0.0553
14378TIP3    H164625   1.897   5.783   0.779  1.5476  1.1715  0.4778
14378TIP3    H264626   1.910   5.898   0.682  0.5309 -0.3559 -1.5595
14379TIP3   OH264627   1.780   5.885  13.973 -0.4529 -0.6784  0.2808
14379TIP3    H164628   1.769   5.971  14.013  0.5679 -1.1070  1.5399
14379TIP3    H264629   1.767   5.823  14.045 -3.1669 -1.7259 -0.9673
14380TIP3   OH264630   3.175   1.725   4.906 -0.2097  0.3779  0.2527
14380TIP3    H164631   3.217   1.738   4.991  0.4729  1.1576 -0.1928
14380TIP3    H264632   3.141   1.811   4.882  0.2918  0.3406 -0.6219
14381TIP3   OH264633   2.056   1.595  15.605  0.3342  0.2094  0.2067
14381TIP3    H164634   2.056   1.689  15.589  0.1643 -0.3303 -4.5417
14381TIP3    H264635   2.148   1.573  15.624  0.9200  1.0817 -1.4452
14382TIP3   OH264636   0.738   4.607  14.911 -0.2139  0.0289 -0.6237
14382TIP3    H164637   0.748   4.514  14.890  2.4557  0.2755 -0.6974
14382TIP3    H264638   0.706   4.608  15.001  3.2934 -1.0747  0.8023
14383TIP3   OH264639   3.062   2.759   5.154 -0.0369 -0.0903 -0.8936
14383TIP3    H164640   3.000   2.810   5.102  0.7127  2.8089  0.7948
14383TIP3    H264641   3.008   2.713   5.217 -0.6851 -0.5829 -1.7890
14384TIP3   OH264642   3.608   1.789   5.973  0.0491  0.1393 -0.2909
14384TIP3    H164643   3.653   1.873   5.977  1.1209 -0.4420  0.5512
14384TIP3    H264644   3.553   1.795   5.896  0.9952  1.1845 -0.9220
14385TIP3   OH264645   0.021   6.130   3.126 -0.3230  0.2002  0.1949
14385TIP3    H164646   0.087   6.197   3.106 -0.1506  0.2040  0.7804
14385TIP3    H264647  -0.014   6.155   3.211  0.3783 -0.9520  0.8490
14386TIP3   OH264648   0.495   2.829  11.382  0.4292 -0.9216  0.3047
14386TIP3    H164649   0.475   2.750  11.331 -0.3704 -1.6872  1.7567
14386TIP3    H264650   0.423   2.889  11.363 -0.1157 -1.3822  0.8451
14387TIP3   OH264651   6.460   0.225   5.561  0.3143 -0.1917  0.3754
14387TIP3    H164652   6.514   0.193   5.489 -1.1144 -0.7142 -0.5091
14387TIP3    H264653   6.397   0.155   5.578 -0.8539  0.8499  0.5362
14388TIP3   OH264654   4.678   5.987  13.545 -0.5986 -0.0112  0.2862
14388TIP3    H164655   4.722   6.067  13.517 -0.6514  0.5166  1.6146
14388TIP3    H264656   4.590   5.994  13.510 -0.7199  0.7095  0.7236
14389TIP3   OH264657   0.733   6.098   2.861  0.3843  0.0809  0.2663
14389TIP3    H164658   0.732   6.139   2.774 -1.1951 -1.7486 -0.6702
14389TIP3    H264659   0.789   6.021   2.850 -1.1983 -1.1339  0.3067
14390TIP3   OH264660   5.788   0.507  12.764 -0.2290  0.2460  0.2312
14390TIP3    H164661   5.800   0.456  12.844  0.3627  1.3417  0.8546
14390TIP3    H264662   5.835   0.457  12.697 -0.2471 -0.3878  0.6834
14391TIP3   OH264663   5.281   3.610   2.172 -0.4096  0.4293 -0.3643
14391TIP3    H164664   5.310   3.520   2.180 -0.0288  0.4668 -1.1546
14391TIP3    H264665   5.229   3.611   2.091  0.8205  1.1976 -1.1876
14392TIP3   OH264666   0.093   2.962  12.716  0.0563 -0.3986  0.5314
14392TIP3    H164667   0.101   3.051  12.752 -0.3535  0.0933 -0.5487
14392TIP3    H264668   0.072   2.908  12.792  0.4370  0.4016  1.2338
14393TIP3   OH264669   0.916   3.922   1.787 -0.5164  0.2718 -0.3251
14393TIP3    H164670   0.952   3.947   1.703 -0.1444  1.5665  0.2014
14393TIP3    H264671   0.971   3.967   1.852  0.6723 -2.4840  0.7349
14394TIP3   OH264672   3.071   6.348   5.190 -0.2796 -0.6524  0.5243
14394TIP3    H164673   3.086   6.380   5.101 -1.8327 -0.7844  0.1864
14394TIP3    H264674   2.983   6.378   5.212  0.5302  0.4680  2.5264
14395TIP3   OH264675   4.001   3.627  11.383  0.1627 -0.2142  0.3493
14395TIP3    H164676   3.973   3.632  11.292  0.2622  0.5293  0.3536
14395TIP3    H264677   3.966   3.706  11.424  2.4251  0.8733  0.3059
14396TIP3   OH264678   1.806   2.352  16.046  0.6416 -0.4655  0.3381
14396TIP3    H164679   1.902   2.345  16.043  0.6702  0.1306 -0.4882
14396TIP3    H264680   1.776   2.262  16.040  1.1473 -0.6033 -0.2846
14397TIP3   OH264681   1.098   4.568   2.107 -0.3482 -0.6172  0.3039
14397TIP3    H164682   1.158   4.643   2.106 -1.0915 -0.0145 -0.1804
14397TIP3    H264683   1.024   4.598   2.160 -2.5658  0.5731 -3.0971
14398TIP3   OH264684   4.191   1.164   0.676 -0.1474  0.0539  1.1864
14398TIP3    H164685   4.244   1.084   0.685 -0.3509 -0.0839  1.1695
14398TIP3    H264686   4.255   1.233   0.660  0.0862  0.0112  1.8926
14399TIP3   OH264687   2.742   4.723   0.420 -0.0532 -0.0652  0.1965
14399TIP3    H164688   2.822   4.705   0.469 -1.2017 -1.6794  1.5700
14399TIP3    H264689   2.715   4.639   0.384 -0.8151  0.5672 -0.7861
14400TIP3   OH264690   1.251   3.206   6.677 -0.5167 -0.0317  0.0189
14400TIP3    H164691   1.330   3.220   6.626  1.4307 -3.3959  1.7855
14400TIP3    H264692   1.193   3.158   6.618 -1.0923  1.8576 -1.0548
14401TIP3   OH264693   2.221   2.488   4.358 -0.4310 -0.1586  0.0934
14401TIP3    H164694   2.276   2.566   4.364  0.1851 -0.6697  1.9389
14401TIP3    H264695   2.254   2.441   4.281  0.7020  0.3035  0.2742
14402TIP3   OH264696   4.651   1.089   3.208 -0.1095  0.2883 -0.0481
14402TIP3    H164697   4.573   1.041   3.181 -0.1293  0.8659 -1.0216
14402TIP3    H264698   4.622   1.179   3.219  0.3086  0.4048  0.1243
14403TIP3   OH264699   0.754   3.194  12.663 -0.3335  0.2058  0.0072
14403TIP3    H164700   0.823   3.214  12.726  1.0115 -1.3296 -0.8937
14403TIP3    H264701   0.702   3.274  12.657 -0.1131  0.6075  2.5362
14404TIP3   OH264702   3.723   5.457   0.365 -0.1476  0.0123 -0.6042
14404TIP3    H164703   3.643   5.481   0.319 -0.0201  1.4281 -0.1434
14404TIP3    H264704   3.703   5.474   0.457  0.3618 -0.5601 -0.3801
14405TIP3   OH264705   5.121   4.871  12.578 -0.4729 -0.4789 -0.1816
14405TIP3    H164706   5.055   4.923  12.532 -0.7095 -0.5379  0.0860
14405TIP3    H264707   5.070   4.810  12.631 -0.1989 -0.8005 -0.2853
14406TIP3   OH264708   4.697   2.940   0.385 -0.8054  0.0320  0.6163
14406TIP3    H164709   4.739   2.911   0.465 -0.4460  1.3610  0.9257
14406TIP3    H264710   4.642   3.014   0.411 -2.0629 -0.6263 -0.0657
14407TIP3   OH264711   1.392   2.377  16.700 -0.1740 -0.0079 -0.3551
14407TIP3    H164712   1.423   2.399  16.612  1.2759 -0.5044 -0.0042
14407TIP3    H264713   1.460   2.320  16.735 -0.4198  0.6645  1.3145
14408TIP3   OH264714   0.142   5.986   2.262 -0.4223  0.5146 -0.2868
14408TIP3    H164715   0.077   6.043   2.223 -1.5515 -0.5902 -0.0960
14408TIP3    H264716   0.162   5.922   2.194  0.1641  0.5990 -0.1988
14409TIP3   OH264717   5.136   5.915  12.516  0.2281 -0.3710 -0.1130
14409TIP3    H164718   5.129   5.979  12.445  0.1825  0.8062  0.9176
14409TIP3    H264719   5.050   5.872  12.518 -0.2192  0.5071  0.0638
14410TIP3   OH264720   5.130   5.235  13.374  0.0675 -0.3859  0.2828
14410TIP3    H164721   5.081   5.205  13.450 -0.2465  1.4501  0.8596
14410TIP3    H264722   5.066   5.279  13.319  0.5880 -0.2920 -0.2658
14411TIP3   OH264723   2.425   6.812  10.694  0.1042  0.0602  0.2757
14411TIP3    H164724   2.358   6.841  10.632  0.6115  0.9535  0.1228
14411TIP3    H264725   2.436   6.719  10.675 -0.7847 -0.0018  0.0153
14412TIP3   OH264726   0.146   5.256   5.186 -0.2783 -0.2065 -0.2740
14412TIP3    H164727   0.162   5.334   5.132 -0.2587  0.7901  1.1403
14412TIP3    H264728   0.224   5.248   5.240 -0.5786 -0.8233  0.0766
14413TIP3   OH264729   5.389   0.028  14.892 -0.6935 -0.3857  0.0700
14413TIP3    H164730   5.360  -0.002  14.805 -0.7067 -1.1819  0.3439
14413TIP3    H264731   5.318   0.004  14.951  0.7535 -3.1013  0.8996
14414TIP3   OH264732   6.618   2.937  17.005  0.5499 -0.0658  0.4152
14414TIP3    H164733   6.574   3.018  17.030  1.5387  0.7604 -0.4448
14414TIP3    H264734   6.567   2.868  17.048 -0.7750  0.9415  0.5327
14415TIP3   OH264735   0.142   3.917  16.993 -0.6512 -0.4697  0.3559
14415TIP3    H164736   0.061   3.945  16.950  0.7510  1.4046 -1.2565
14415TIP3    H264737   0.194   3.878  16.922  1.0093  1.0628  0.6595
14416TIP3   OH264738   3.602   5.874   0.766  0.5108 -0.6241  0.2726
14416TIP3    H164739   3.646   5.944   0.813  0.9586 -0.8987  0.2733
14416TIP3    H264740   3.646   5.794   0.796 -0.5923 -0.9984  0.9642
14417TIP3   OH264741   0.013   3.165  13.536 -0.0928 -0.7718  0.3135
14417TIP3    H164742  -0.057   3.144  13.473  2.0937 -0.4820 -2.3989
14417TIP3    H264743   0.093   3.166  13.483  1.7777  0.4974  2.9703
14418TIP3   OH264744   5.314   4.554  14.424  0.2308  0.3373 -0.0713
14418TIP3    H164745   5.374   4.480  14.439  0.0541  0.2013 -0.0323
14418TIP3    H264746   5.229   4.522  14.454 -0.2246 -0.0965 -1.6970
14419TIP3   OH264747   1.600   1.518   5.432 -0.4480  0.1000 -0.0363
14419TIP3    H164748   1.566   1.429   5.437 -0.9775  0.2203 -1.1159
14419TIP3    H264749   1.653   1.519   5.352 -0.1382  0.6582  0.1663
14420TIP3   OH264750   2.716   3.514   5.434  0.4005 -0.6403  0.1361
14420TIP3    H164751   2.630   3.554   5.416 -0.3737 -0.9440  2.6871
14420TIP3    H264752   2.766   3.527   5.354 -0.6585  3.1886 -0.1159
14421TIP3   OH264753   0.701   5.699   2.898  0.4400  0.0444 -0.2932
14421TIP3    H164754   0.726   5.792   2.892  3.5823 -0.7774 -2.0363
14421TIP3    H264755   0.715   5.677   2.990  0.6023  1.0419 -0.0592
14422TIP3   OH264756   3.696   2.478   2.709  0.2580 -0.5877 -0.3675
14422TIP3    H164757   3.682   2.546   2.776 -0.8462 -2.6624  1.6415
14422TIP3    H264758   3.684   2.524   2.626  1.4400  2.0666  0.8040
14423TIP3   OH264759   2.076   0.958   3.925  0.4276 -0.5654  0.3255
14423TIP3    H164760   2.117   1.042   3.945 -0.2018 -0.3553  0.7576
14423TIP3    H264761   2.049   0.966   3.833  0.1103 -0.1801  0.4482
14424TIP3   OH264762   3.361   5.813  12.102  0.2698 -0.3290 -0.4529
14424TIP3    H164763   3.367   5.908  12.093 -1.4992  0.2675  3.0911
14424TIP3    H264764   3.269   5.793  12.081  0.4979 -1.2278 -0.6613
14425TIP3   OH264765   1.741   1.549  13.669  0.1440  0.4264 -0.2377
14425TIP3    H164766   1.780   1.462  13.682  0.3979  0.3523 -1.3872
14425TIP3    H264767   1.816   1.607  13.655 -0.0394  0.7815  0.2399
14426TIP3   OH264768   2.694   2.621   4.474  0.3940  0.2840  0.5112
14426TIP3    H164769   2.711   2.606   4.381  1.2248 -1.4682  0.8885
14426TIP3    H264770   2.620   2.564   4.494 -0.4083  1.3917  0.7285
14427TIP3   OH264771   3.753   6.330  16.089  0.3477  0.0063 -0.2243
14427TIP3    H164772   3.703   6.264  16.042  0.2388 -1.1956  1.4931
14427TIP3    H264773   3.817   6.362  16.024  2.4466 -3.9181 -0.4192
14428TIP3   OH264774   1.810   2.307   1.214 -0.2635 -0.6436  0.6324
14428TIP3    H164775   1.838   2.390   1.254 -2.1746  1.3752 -1.8757
14428TIP3    H264776   1.888   2.274   1.170 -0.1182  1.4500 -0.8197
14429TIP3   OH264777   3.851   4.936   4.109  0.2799  0.6217  0.2446
14429TIP3    H164778   3.814   4.848   4.112  0.0101  0.7093 -0.3251
14429TIP3    H264779   3.842   4.962   4.018 -1.5579  2.0402  0.7635
14430TIP3   OH264780   3.185   4.524  13.002 -0.1505 -0.3872 -0.5360
14430TIP3    H164781   3.219   4.531  13.091  0.6109  0.8365 -0.8990
14430TIP3    H264782   3.112   4.462  13.009  0.4580 -1.0010  0.7597
14431TIP3   OH264783   5.267   1.497  10.892  0.5479  0.4413 -0.4784
14431TIP3    H164784   5.182   1.470  10.859  1.0947 -2.1037 -0.0160
14431TIP3    H264785   5.286   1.579  10.846 -2.8256  2.0081  0.6585
14432TIP3   OH264786   4.093   4.411  11.110 -0.3650 -0.2414 -0.2479
14432TIP3    H164787   4.038   4.461  11.049  0.7489  1.1712 -0.1488
14432TIP3    H264788   4.157   4.367  11.054  0.6891  1.0953 -0.1494
14433TIP3   OH264789   3.777   4.857  12.960  0.0359  0.3919 -0.6153
14433TIP3    H164790   3.842   4.787  12.950 -0.6658 -0.4121  0.3302
14433TIP3    H264791   3.829   4.938  12.957  0.7005 -0.0394 -3.2637
14434TIP3   OH264792   5.077   2.625  16.540  0.1307  0.1850  0.1218
14434TIP3    H164793   5.056   2.714  16.512  0.6983  0.4962  0.6534
14434TIP3    H264794   5.059   2.571  16.464 -1.9326  0.5140  0.3190
14435TIP3   OH264795   0.464   3.689   3.396  0.4386  0.2874  0.5719
14435TIP3    H164796   0.466   3.713   3.304 -0.9367 -0.9548  0.1845
14435TIP3    H264797   0.526   3.749   3.438  1.8701  0.1895 -1.2937
14436TIP3   OH264798   6.325   1.858   1.402 -0.3989 -0.1627  0.3936
14436TIP3    H164799   6.407   1.906   1.389 -2.4046  3.2416 -0.9971
14436TIP3    H264800   6.302   1.825   1.314 -0.6940 -0.8675  0.7232
14437TIP3   OH264801   6.428   1.612  15.333  0.0941  0.1306  0.4467
14437TIP3    H164802   6.344   1.603  15.288  0.4480  0.2156 -0.2475
14437TIP3    H264803   6.405   1.643  15.421 -0.7043 -1.2537  0.7657
14438TIP3   OH264804   4.541   4.119  12.486  0.3718  0.2068 -0.2270
14438TIP3    H164805   4.573   4.127  12.397  3.4335  0.5242  0.8045
14438TIP3    H264806   4.523   4.026  12.497 -1.0758  0.2989 -1.4182
14439TIP3   OH264807   5.705   2.666   3.198 -0.1528 -0.2367  0.4509
14439TIP3    H164808   5.640   2.732   3.222 -0.1962 -0.0772 -0.0863
14439TIP3    H264809   5.672   2.627   3.117  0.5894  0.1137 -0.0446
14440TIP3   OH264810   4.386   1.880   0.634 -0.0004  0.3632 -0.2123
14440TIP3    H164811   4.348   1.872   0.722  1.6354 -1.5262  0.3837
14440TIP3    H264812   4.402   1.974   0.623 -1.5189  0.7918  0.9131
14441TIP3   OH264813   1.441   4.596  15.618  0.1917 -0.3190 -0.2892
14441TIP3    H164814   1.454   4.591  15.523 -0.8183  0.0734 -0.4560
14441TIP3    H264815   1.395   4.515  15.639  1.8341 -1.2032  0.1448
14442TIP3   OH264816   0.773   0.495   0.013  0.5707  0.3651 -0.5223
14442TIP3    H164817   0.679   0.483   0.030  0.3779  1.8781 -0.4020
14442TIP3    H264818   0.807   0.406   0.003 -0.9828 -0.1935 -1.1481
14443TIP3   OH264819   0.847   4.878   3.550 -0.2009  0.0603  0.2337
14443TIP3    H164820   0.943   4.881   3.546 -0.2152  0.9322  0.4033
14443TIP3    H264821   0.818   4.941   3.484 -0.7025 -1.3987 -0.9932
14444TIP3   OH264822   1.613   3.952   5.971 -0.4437  0.3653 -0.1956
14444TIP3    H164823   1.580   3.940   5.882 -3.4471 -1.0757  0.9500
14444TIP3    H264824   1.541   3.996   6.017  0.2194 -0.6330  1.9262
14445TIP3   OH264825   2.055   2.240   1.134 -0.0563 -0.1897  0.1653
14445TIP3    H164826   2.130   2.262   1.189 -0.2422 -0.6257  0.6017
14445TIP3    H264827   2.077   2.155   1.096 -0.7044 -0.7444  0.9976
14446TIP3   OH264828   5.260   1.595  16.318 -0.6588 -0.2248  0.3035
14446TIP3    H164829   5.322   1.636  16.257  0.1094 -0.5853  0.8271
14446TIP3    H264830   5.202   1.543  16.263 -0.5119  0.1276 -0.1934
14447TIP3   OH264831   5.029   1.565  11.956 -0.5577  0.4865 -0.0801
14447TIP3    H164832   5.017   1.552  12.050  0.4808  0.0021  0.0011
14447TIP3    H264833   4.949   1.532  11.916 -0.2292 -1.0912  0.5096
14448TIP3   OH264834   5.321   3.506   0.825  0.3277 -0.6366  0.4742
14448TIP3    H164835   5.274   3.427   0.798 -0.4125  0.0780 -0.4068
14448TIP3    H264836   5.267   3.544   0.894 -0.9040  0.6012 -1.0636
14449TIP3   OH264837   0.851   6.573  14.423  0.8706  0.5144 -0.0593
14449TIP3    H164838   0.817   6.638  14.362 -0.9394  0.2427  0.6031
14449TIP3    H264839   0.943   6.562  14.398  0.4396  1.1354 -2.0669
14450TIP3   OH264840   0.893   3.163   2.745  0.3883 -0.2369  0.0186
14450TIP3    H164841   0.882   3.211   2.662 -2.2347 -0.7684 -0.0218
14450TIP3    H264842   0.852   3.219   2.811  0.9292 -0.5966  0.6668
14451TIP3   OH264843   0.253   4.795   6.413  0.4859  0.4316  0.2903
14451TIP3    H164844   0.164   4.801   6.378  0.8714  1.9732 -0.5258
14451TIP3    H264845   0.242   4.796   6.508 -0.3569  0.6800  0.1989
14452TIP3   OH264846   4.860   4.289   2.945  0.4795 -0.7091 -0.0678
14452TIP3    H164847   4.786   4.313   3.002  0.2943 -3.0060  0.7621
14452TIP3    H264848   4.828   4.214   2.896  1.3036  0.0892 -1.9005
14453TIP3   OH264849   1.372   4.778   5.596 -0.5383  0.3517 -0.0339
14453TIP3    H164850   1.432   4.846   5.565 -0.1083  0.0294  0.0960
14453TIP3    H264851   1.403   4.757   5.684 -0.3841 -0.3600 -0.2601
14454TIP3   OH264852   6.607   3.104  15.714 -0.1060 -0.4578 -0.6825
14454TIP3    H164853   6.581   3.050  15.640 -2.6359 -0.0285 -0.1919
14454TIP3    H264854   6.554   3.183  15.706 -0.1374 -0.2200  1.3461
14455TIP3   OH264855   1.971   4.352   1.424  0.2264 -0.6182  0.1614
14455TIP3    H164856   2.032   4.425   1.434  0.0564 -0.4424 -0.0697
14455TIP3    H264857   1.964   4.315   1.511  0.2032 -0.2658  0.3124
14456TIP3   OH264858   0.382   4.012   0.036 -0.0847  0.2926 -0.5028
14456TIP3    H164859   0.454   3.972   0.084 -0.8393  0.8324  1.1667
14456TIP3    H264860   0.412   4.015  -0.054  1.1664 -1.3194 -0.1948
14457TIP3   OH264861   6.341   2.971   3.374 -0.6503  0.5729  0.3156
14457TIP3    H164862   6.391   2.899   3.411  0.3865 -0.1449 -2.3201
14457TIP3    H264863   6.380   3.050   3.413 -0.0078 -0.1472  1.1693
14458TIP3   OH264864   4.629   5.812  12.597  0.1657 -0.2886 -0.5188
14458TIP3    H164865   4.600   5.739  12.543 -0.3850 -0.5646  0.1448
14458TIP3    H264866   4.614   5.890  12.543 -0.6318 -0.5352 -0.6603
14459TIP3   OH264867   4.554   5.127  12.361 -0.0222 -0.6523  0.0225
14459TIP3    H164868   4.532   5.034  12.355 -0.7839 -0.5048  0.4099
14459TIP3    H264869   4.562   5.144  12.455  0.1985 -0.3455 -0.0491
14460TIP3   OH264870   0.947   2.770  10.776 -0.0164 -0.3975 -0.0053
14460TIP3    H164871   0.961   2.864  10.773 -1.3377 -0.2082 -1.0402
14460TIP3    H264872   0.872   2.754  10.719  0.5986 -2.1592 -0.4138
14461TIP3   OH264873   6.677   3.855  15.368  0.0758  0.1840  0.6699
14461TIP3    H164874   6.759   3.805  15.376  1.1735  1.8177  0.0593
14461TIP3    H264875   6.638   3.822  15.287 -0.5774 -1.5337  1.6283
14462TIP3   OH264876   5.084   2.440   2.607  0.0613 -0.2685 -0.1195
14462TIP3    H164877   5.036   2.357   2.600  1.5773 -1.3342  1.4239
14462TIP3    H264878   5.166   2.425   2.561 -0.6621  1.2963 -2.0885
14463TIP3   OH264879   4.167   2.811   2.222  0.0822 -0.2372  0.0292
14463TIP3    H164880   4.139   2.899   2.197  0.5951 -0.4554 -1.3793
14463TIP3    H264881   4.209   2.822   2.308 -0.6522  0.7349  0.2729
14464TIP3   OH264882   1.815   3.511  15.344  0.0706  0.6404 -0.1819
14464TIP3    H164883   1.777   3.439  15.394  0.6650  0.9024  0.6828
14464TIP3    H264884   1.740   3.554  15.303 -0.5017  0.6985  0.8738
14465TIP3   OH264885   6.298   1.966  16.433  0.1821  0.5233 -0.2118
14465TIP3    H164886   6.362   1.976  16.362 -0.2576  0.4824 -0.6213
14465TIP3    H264887   6.234   2.036  16.417 -1.1491 -0.8511 -1.1817
14466TIP3   OH264888   2.211   6.775   5.118 -0.8713 -0.0689  0.4377
14466TIP3    H164889   2.208   6.710   5.188 -0.0627 -0.4912  0.0997
14466TIP3    H264890   2.122   6.779   5.085 -1.0584 -0.5692  0.8635
14467TIP3   OH264891   2.390   2.591  14.065  0.1717  0.6129  0.4033
14467TIP3    H164892   2.406   2.666  14.007  3.3530  0.4449  0.8744
14467TIP3    H264893   2.475   2.575  14.106 -0.9545 -1.9348  1.9289
14468TIP3   OH264894   2.708   0.442  13.295  0.4001  0.0458 -0.2155
14468TIP3    H164895   2.724   0.508  13.226  1.1683  0.4231  0.3012
14468TIP3    H264896   2.628   0.471  13.338  0.9780  0.9297  0.3078
14469TIP3   OH264897   2.822   5.818  11.889  0.2831 -0.6076  0.0919
14469TIP3    H164898   2.795   5.806  11.980  0.5038 -0.7687  0.1363
14469TIP3    H264899   2.908   5.777  11.883  1.7877  2.2445  0.6088
14470TIP3   OH264900   5.787   5.692   4.473  0.0573 -0.4683 -0.1628
14470TIP3    H164901   5.846   5.672   4.546  0.7858 -2.5824 -1.2668
14470TIP3    H264902   5.764   5.784   4.486  2.6616  0.1095  0.9816
14471TIP3   OH264903   0.822   1.590   1.465  0.2447 -0.3057  0.3340
14471TIP3    H164904   0.845   1.559   1.553  0.3369  0.2208  0.4987
14471TIP3    H264905   0.727   1.581   1.461  0.0827  0.9356  0.9883
14472TIP3   OH264906   5.509   5.163   1.985 -0.6036  0.0099 -0.4245
14472TIP3    H164907   5.423   5.138   2.019  0.2683 -1.4854  0.8314
14472TIP3    H264908   5.567   5.158   2.061  0.4036  2.2201 -0.9691
14473TIP3   OH264909   4.907   1.689  12.726  0.2621  0.0098 -0.7793
14473TIP3    H164910   5.000   1.703  12.742 -0.0595  0.4804  0.7912
14473TIP3    H264911   4.894   1.596  12.745 -0.3205  0.7416  3.2713
14474TIP3   OH264912   3.078   2.170   0.169  0.1303 -0.2754  0.4573
14474TIP3    H164913   3.170   2.196   0.177 -0.1306  0.5996  0.7606
14474TIP3    H264914   3.029   2.250   0.189 -0.6898 -0.4482 -0.7608
14475TIP3   OH264915   4.992   6.540  15.356 -0.0285 -0.2862 -0.4474
14475TIP3    H164916   5.058   6.476  15.328  0.3238 -0.4676  0.7612
14475TIP3    H264917   4.921   6.486  15.391 -0.0232 -0.0377 -0.0500
14476TIP3   OH264918   3.637   2.212  12.516 -0.1069 -0.2598  0.4555
14476TIP3    H164919   3.595   2.235  12.598 -0.4042  1.8286 -0.2112
14476TIP3    H264920   3.683   2.292  12.489  3.8918 -2.1518  0.8322
14477TIP3   OH264921   1.628   0.984  16.593 -0.1953 -0.4148 -0.1987
14477TIP3    H164922   1.604   1.073  16.569  2.6683  0.7196  0.7150
14477TIP3    H264923   1.720   0.977  16.569 -0.3365 -3.1828 -0.2732
14478TIP3   OH264924   2.524   6.026  13.820  0.6015 -0.8034  0.8630
14478TIP3    H164925   2.452   5.970  13.794  0.3245  0.1873 -0.6943
14478TIP3    H264926   2.489   6.115  13.814  1.3637 -0.3908  2.0937
14479TIP3   OH264927   0.183   1.984   5.489 -0.1384  0.2292 -0.1103
14479TIP3    H164928   0.154   1.996   5.399 -2.8265 -0.8720  0.5087
14479TIP3    H264929   0.218   1.895   5.491  0.6984  0.5448 -0.2138
14480TIP3   OH264930   4.609   4.766   3.486  0.0717  0.9850 -0.1843
14480TIP3    H164931   4.658   4.716   3.421 -0.7139  1.7690 -1.4010
14480TIP3    H264932   4.566   4.699   3.539  0.4136  0.3448 -0.6973
14481TIP3   OH264933   4.563   5.234  14.847 -0.1009 -0.5840  0.3833
14481TIP3    H164934   4.506   5.201  14.777 -1.2613  1.2498  0.3902
14481TIP3    H264935   4.591   5.156  14.894 -0.5499 -1.7400 -1.1827
14482TIP3   OH264936   4.555   1.963   2.822 -0.5711 -0.2339 -0.0980
14482TIP3    H164937   4.532   1.943   2.731 -0.7117  2.3916 -0.7163
14482TIP3    H264938   4.626   2.027   2.815  1.0516 -1.7193  1.7094
14483TIP3   OH264939   6.792   4.174   4.398  0.1945 -0.4250  0.3911
14483TIP3    H164940   6.722   4.111   4.416  1.0656 -1.2012  1.1139
14483TIP3    H264941   6.856   4.160   4.467  0.7387  0.7857  0.1599
14484TIP3   OH264942   1.872   0.358  16.556 -0.6691  0.1620 -0.0734
14484TIP3    H164943   1.901   0.449  16.549 -0.6033  0.1440 -0.0298
14484TIP3    H264944   1.951   0.306  16.540 -0.8961  0.0999 -1.0759
14485TIP3   OH264945   4.145   6.793   4.382  0.3221  0.4249  0.5334
14485TIP3    H164946   4.088   6.824   4.453  0.7411 -0.7808  1.4267
14485TIP3    H264947   4.148   6.866   4.321 -1.3506  0.9079  0.9696
14486TIP3   OH264948   4.701   0.933   3.411 -0.2081  0.4218  0.8637
14486TIP3    H164949   4.695   1.010   3.355  2.1890  0.9717  1.2463
14486TIP3    H264950   4.663   0.862   3.359  3.6645  0.4328 -2.5281
14487TIP3   OH264951   1.523   3.717  11.227  0.3130  0.3033  0.7220
14487TIP3    H164952   1.494   3.643  11.173  1.0171  0.3995  0.2009
14487TIP3    H264953   1.545   3.786  11.164 -0.3161  0.9564  1.2034
14488TIP3   OH264954   4.181   4.782  13.268  0.0576 -0.7071 -0.2380
14488TIP3    H164955   4.262   4.745  13.234  0.7014 -0.0684  0.5674
14488TIP3    H264956   4.174   4.747  13.356 -0.5238 -0.7276 -0.2898
14489TIP3   OH264957   3.234   4.008   3.430  0.3129 -0.7334  0.1167
14489TIP3    H164958   3.262   3.929   3.477  0.4873  0.1750  1.6049
14489TIP3    H264959   3.139   4.006   3.437  0.2402 -1.3415 -0.7922
14490TIP3   OH264960   4.254   3.838  15.596  0.2327 -0.0320  0.7417
14490TIP3    H164961   4.298   3.923  15.594  0.6085 -0.2466 -0.3774
14490TIP3    H264962   4.258   3.812  15.689  1.0118  0.6978  0.9291
14491TIP3   OH264963   3.096   4.107   5.995  0.6395  0.1268 -0.7743
14491TIP3    H164964   3.046   4.026   5.980  0.2415  0.2678 -0.2625
14491TIP3    H264965   3.031   4.169   6.029  1.3037  0.0703  0.6818
14492TIP3   OH264966   4.571   2.708  15.216 -1.1767  0.0054 -0.2461
14492TIP3    H164967   4.583   2.627  15.265  2.3867 -1.0978 -2.4995
14492TIP3    H264968   4.526   2.681  15.136 -0.1807  0.2477 -0.9049
14493TIP3   OH264969   5.166   0.740  17.045  0.7364  0.2118 -0.6055
14493TIP3    H164970   5.193   0.768  17.133 -1.1158 -0.5854  0.2817
14493TIP3    H264971   5.248   0.727  16.998  1.7458  2.7232  0.3013
14494TIP3   OH264972   1.177   2.558   2.752  0.4201  0.6406  0.4822
14494TIP3    H164973   1.095   2.608   2.753  0.5584  1.1518 -2.9422
14494TIP3    H264974   1.149   2.467   2.749  0.0407  0.7235  1.1768
14495TIP3   OH264975   1.996   1.312  11.904 -0.3807  1.1407 -0.3970
14495TIP3    H164976   2.024   1.321  11.995  0.2894 -4.0206  0.2011
14495TIP3    H264977   2.077   1.322  11.853  0.3278 -1.1857  0.1687
14496TIP3   OH264978   6.271   3.872   1.842  0.0645 -0.3663  0.6673
14496TIP3    H164979   6.235   3.841   1.759 -0.0840  1.9820 -0.2253
14496TIP3    H264980   6.360   3.900   1.821  0.1266 -0.0198  1.3728
14497TIP3   OH264981   0.964   5.435   1.541  0.7378 -0.0913 -0.1263
14497TIP3    H164982   0.971   5.370   1.611  0.3160 -0.8183 -0.7324
14497TIP3    H264983   0.903   5.500   1.575  0.2646 -0.6186  0.0687
14498TIP3   OH264984   6.689   4.125   1.871  0.3409  0.4571  0.2763
14498TIP3    H164985   6.662   4.074   1.794  1.8042  0.8664 -0.5556
14498TIP3    H264986   6.697   4.061   1.941  0.7348 -0.2416 -0.3860
14499TIP3   OH264987   6.409   6.819  12.633 -0.2177 -0.2075  0.3509
14499TIP3    H164988   6.427   6.825  12.539 -1.5774  1.4904  0.1452
14499TIP3    H264989   6.431   6.906  12.667 -0.9439 -0.4010  1.3770
14500TIP3   OH264990   3.686   0.588  11.836 -0.5718 -0.3380 -0.1902
14500TIP3    H164991   3.740   0.621  11.908  0.4325  0.4521 -1.2668
14500TIP3    H264992   3.748   0.551  11.774 -1.1279  1.3831 -1.8790
14501TIP3   OH264993   6.544   1.154   5.205 -0.3520 -0.1987 -0.0516
14501TIP3    H164994   6.489   1.081   5.175  0.5642 -0.7211 -0.5158
14501TIP3    H264995   6.598   1.176   5.129  0.8820 -0.4746  0.7145
14502TIP3   OH264996   5.102   3.820  13.207 -0.4320 -0.3839  0.5782
14502TIP3    H164997   5.098   3.845  13.299  0.4029 -0.6075  0.6838
14502TIP3    H264998   5.030   3.759  13.195  0.0245 -1.0844  1.3174
14503TIP3   OH264999   2.499   5.785  14.875 -0.1795 -0.1163 -0.6002
14503TIP3    H165000   2.447   5.729  14.934  0.1284  0.3753  0.1592
14503TIP3    H265001   2.561   5.829  14.933  0.8263 -0.3873 -1.4438
14504TIP3   OH265002   5.758   0.558   5.554  0.0105 -0.0522  0.1340
14504TIP3    H165003   5.809   0.639   5.542 -0.8328  0.4674 -0.0580
14504TIP3    H265004   5.680   0.587   5.601 -0.7333 -0.5873 -0.7349
14505TIP3   OH265005   5.912   3.970  11.693  0.2898  0.4271 -0.2575
14505TIP3    H165006   6.007   3.960  11.700  0.5432  0.0970 -3.2344
14505TIP3    H265007   5.877   3.885  11.719  1.1353 -0.9061 -3.0883
14506TIP3   OH265008   0.113   2.389   5.475 -0.0680  0.3167 -0.0018
14506TIP3    H165009   0.106   2.390   5.379 -0.3071  0.2978  0.0146
14506TIP3    H265010   0.201   2.421   5.493  0.0255  0.1929 -0.2338
14507TIP3   OH265011   1.896   4.553  16.189 -0.5464  0.2271 -0.3924
14507TIP3    H165012   1.802   4.568  16.203 -0.7105 -0.0690 -1.1376
14507TIP3    H265013   1.920   4.488  16.255 -1.5375 -1.9168 -2.0290
14508TIP3   OH265014   5.266   2.864  12.350 -0.2288 -0.0659  0.6090
14508TIP3    H165015   5.288   2.772  12.358 -1.1542 -0.4150 -0.5100
14508TIP3    H265016   5.216   2.884  12.429  0.8572 -0.2335  1.3539
14509TIP3   OH265017   6.154   3.113  14.880 -0.0058 -0.3087 -0.0013
14509TIP3    H165018   6.229   3.170  14.864  0.2593 -0.8576 -0.7331
14509TIP3    H265019   6.115   3.148  14.961 -0.1882  1.2686 -0.7194
14510TIP3   OH265020   1.238   2.481  14.439  0.1492 -0.1131 -0.1840
14510TIP3    H165021   1.221   2.418  14.508 -0.6527  0.1035 -0.1786
14510TIP3    H265022   1.315   2.447  14.393  0.6034 -0.3220  0.7232
14511TIP3   OH265023   6.504   3.679   4.272  0.2292 -0.4835  0.5114
14511TIP3    H165024   6.521   3.733   4.350  1.2918 -1.2873  0.8605
14511TIP3    H265025   6.584   3.628   4.260  1.2636  1.6119 -2.7955
14512TIP3   OH265026   1.709   3.037  11.871  0.0733  0.1551  1.2101
14512TIP3    H165027   1.617   3.019  11.853  0.8646 -0.9928 -2.8369
14512TIP3    H265028   1.717   3.132  11.865 -0.6901  0.1681  0.0551
14513TIP3   OH265029   3.044   6.182   1.507  0.5688  0.9923 -0.0350
14513TIP3    H165030   3.041   6.260   1.452  0.6202  0.9719 -0.0662
14513TIP3    H265031   3.086   6.211   1.588 -0.4988  1.2960  0.4301
14514TIP3   OH265032   3.120   4.442   5.532 -0.5368  0.1582 -0.3952
14514TIP3    H165033   3.090   4.364   5.484 -0.5263  0.2458 -0.5454
14514TIP3    H265034   3.179   4.486   5.471  1.1920 -0.8559  0.4699
14515TIP3   OH265035   6.238   0.456  14.460  0.4294  0.0891 -0.0658
14515TIP3    H165036   6.179   0.392  14.420  1.9369 -0.9480 -0.7021
14515TIP3    H265037   6.319   0.449  14.410  0.8806  2.0136  0.3023
14516TIP3   OH265038   3.346   3.794   0.523  0.3090 -0.4298  0.1536
14516TIP3    H165039   3.287   3.803   0.598  0.8033 -0.8638  0.6020
14516TIP3    H265040   3.322   3.867   0.466 -0.5849 -0.5320  0.3761
14517TIP3   OH265041   0.288   5.369   5.595 -0.3249 -0.4760  0.1372
14517TIP3    H165042   0.208   5.323   5.621 -1.1719 -0.0259 -1.5428
14517TIP3    H265043   0.272   5.397   5.505  2.4156 -1.9947 -0.9847
14518TIP3   OH265044   5.532   3.832  14.293 -0.0565 -0.4897 -0.4217
14518TIP3    H165045   5.566   3.791  14.214  0.2093  2.1998 -1.8103
14518TIP3    H265046   5.610   3.858  14.342 -0.2025 -0.6428 -0.1072
14519TIP3   OH265047   0.107   4.067   0.353  0.7172 -0.1284  0.0659
14519TIP3    H165048   0.066   4.106   0.431 -0.5435 -1.7253  0.2699
14519TIP3    H265049   0.200   4.087   0.362  0.3777  1.0972  1.1480
14520TIP3   OH265050   4.800   0.460  13.222  0.0250  0.6569  0.4155
14520TIP3    H165051   4.889   0.438  13.249 -0.2291  0.2487  0.9499
14520TIP3    H265052   4.807   0.548  13.184  0.2787  1.6917  2.6600
14521TIP3   OH265053   5.457   0.468   3.161  0.3323  0.3066 -0.1927
14521TIP3    H165054   5.477   0.434   3.074 -1.2885 -0.2654 -0.3618
14521TIP3    H265055   5.458   0.391   3.218 -0.8425  0.3378 -0.1188
14522TIP3   OH265056   4.939   0.109  11.743 -0.3167 -0.0172  0.0950
14522TIP3    H165057   4.973   0.070  11.663 -0.9695 -0.0328 -0.1849
14522TIP3    H265058   4.869   0.168  11.713  0.4622  1.1726  0.5212
14523TIP3   OH265059   0.379   5.102  14.274  0.4180 -0.9149  0.1511
14523TIP3    H165060   0.291   5.103  14.314  0.0053  0.9090 -0.7090
14523TIP3    H265061   0.367   5.140  14.188  2.0393 -0.8506 -0.0799
14524TIP3   OH265062   5.426   2.024   3.443  0.4714  0.2420  0.1852
14524TIP3    H165063   5.357   1.987   3.499  0.7382 -0.6673 -0.0820
14524TIP3    H265064   5.454   1.952   3.388  1.8126  0.5373  0.4531
14525TIP3   OH265065   4.230   0.505   6.222 -0.8623 -0.5455  0.4837
14525TIP3    H165066   4.248   0.451   6.300 -0.6104  0.6021  1.2469
14525TIP3    H265067   4.165   0.568   6.251 -0.6245  0.0155 -0.1819
14526TIP3   OH265068   4.503   0.925   5.308 -0.0116  0.2398 -0.1557
14526TIP3    H165069   4.487   0.975   5.389  0.6658  0.7442 -0.3279
14526TIP3    H265070   4.449   0.969   5.242  1.3846  1.4226 -0.5464
14527TIP3   OH265071   2.375   1.800   5.416  0.6082 -0.4026  0.0280
14527TIP3    H165072   2.460   1.758   5.429  1.2487  0.7172 -0.4068
14527TIP3    H265073   2.354   1.783   5.324  1.4399  1.1740 -0.4949
14528TIP3   OH265074   1.132   5.815   0.438 -0.1496 -0.1773 -0.2804
14528TIP3    H165075   1.174   5.878   0.380 -0.6687 -0.2389 -0.7310
14528TIP3    H265076   1.199   5.793   0.503 -0.4980  2.2317  1.0084
14529TIP3   OH265077   5.037   2.639   3.528 -0.3320  0.4453  0.6878
14529TIP3    H165078   5.031   2.683   3.613  0.1899 -1.2458  1.6397
14529TIP3    H265079   4.966   2.574   3.530  0.3501 -0.3279  0.2796
14530TIP3   OH265080   5.752   3.443  15.198 -0.2901 -0.0453 -0.3330
14530TIP3    H165081   5.790   3.397  15.123  1.1675 -1.7087  1.3031
14530TIP3    H265082   5.800   3.525  15.203  2.0876 -1.3818  0.6840
14531TIP3   OH265083   2.861   1.099   5.808 -0.2437 -0.7878  0.2076
14531TIP3    H165084   2.858   1.004   5.819  1.6360 -0.7647  1.2605
14531TIP3    H265085   2.770   1.127   5.816 -0.5283 -2.1735  3.4815
14532TIP3   OH265086   2.511   3.865   2.329 -0.3549 -0.0319 -0.1555
14532TIP3    H165087   2.438   3.918   2.361  0.8383  1.2890  0.4873
14532TIP3    H265088   2.531   3.806   2.401  1.1864  1.7392  0.9463
14533TIP3   OH265089   4.721   1.181  11.617 -0.1338 -0.7651 -0.3007
14533TIP3    H165090   4.661   1.193  11.543 -0.3264 -1.1312 -0.2043
14533TIP3    H265091   4.788   1.121  11.585 -0.4625 -1.2759 -0.0386
14534TIP3   OH265092   4.386   0.528  14.679  0.7474 -0.1729  0.2626
14534TIP3    H165093   4.346   0.614  14.682 -2.6384 -1.6140  0.5818
14534TIP3    H265094   4.373   0.492  14.766 -0.8731 -2.1377 -0.6991
14535TIP3   OH265095   2.417   3.172   2.134 -0.1582 -0.7691 -0.0991
14535TIP3    H165096   2.366   3.250   2.114 -1.7699 -1.9975 -1.0048
14535TIP3    H265097   2.506   3.194   2.105 -0.5289  0.7656 -0.1901
14536TIP3   OH265098   1.738   6.340   1.372 -0.1131 -0.2291  0.4010
14536TIP3    H165099   1.722   6.362   1.280  1.2027  1.0893  0.4556
14536TIP3    H265100   1.657   6.366   1.417 -0.7456 -0.8288 -0.3448
14537TIP3   OH265101   4.409   5.982  15.202  0.3797 -0.0759  0.2447
14537TIP3    H165102   4.314   5.975  15.215 -0.0186  1.4634 -1.3681
14537TIP3    H265103   4.428   5.919  15.133  0.2753  0.5184 -0.3411
14538TIP3   OH265104   3.879   2.213  12.223  0.0360  0.0667 -0.4375
14538TIP3    H165105   3.892   2.125  12.190  0.3785 -0.4657  1.0239
14538TIP3    H265106   3.799   2.244  12.180 -0.5944 -1.3036 -0.2914
14539TIP3   OH265107   1.195   1.607  16.548 -0.1648  0.0295 -0.0415
14539TIP3    H165108   1.279   1.635  16.511 -0.2015  0.8571  0.4749
14539TIP3    H265109   1.188   1.655  16.630 -1.4546  0.4961 -0.3986
14540TIP3   OH265110   6.042   5.756   1.656  0.3965 -0.3104  0.5861
14540TIP3    H165111   6.006   5.705   1.728  0.6477 -1.1210  0.1602
14540TIP3    H265112   6.089   5.828   1.698 -2.0673  1.0798  1.1511
14541TIP3   OH265113   0.522   3.948  14.964  0.2123  0.9328  0.8208
14541TIP3    H165114   0.527   3.887  14.890  0.0497  1.6221  0.2374
14541TIP3    H265115   0.455   3.910  15.021 -0.0463  0.6747  0.3517
14542TIP3   OH265116   6.282   2.957   1.521 -0.2432 -0.6499 -0.1196
14542TIP3    H165117   6.291   2.919   1.608 -0.1522  1.0949  0.6627
14542TIP3    H265118   6.351   2.915   1.469  0.7648 -0.5279  1.0765
14543TIP3   OH265119   3.056   1.535   3.498 -0.0307 -0.1662  0.3329
14543TIP3    H165120   3.020   1.520   3.585  1.2013 -0.4146  0.8299
14543TIP3    H265121   2.990   1.501   3.438  0.2670 -2.6065  1.2762
14544TIP3   OH265122   0.631   4.927   4.555  0.1804  0.3625  0.1668
14544TIP3    H165123   0.572   4.957   4.624  0.3555  1.1621 -0.0129
14544TIP3    H265124   0.573   4.893   4.486 -0.0640  0.8572  0.1220
14545TIP3   OH265125   4.149   4.917  11.747 -0.2592 -0.1314  0.0461
14545TIP3    H165126   4.145   4.895  11.654 -0.6075  0.7768 -0.1705
14545TIP3    H265127   4.242   4.919  11.767 -0.1897 -3.3626  0.5122
14546TIP3   OH265128   4.548   1.581  16.361 -0.3658  0.5229 -0.5017
14546TIP3    H165129   4.483   1.515  16.386  1.2825 -0.9214  0.2105
14546TIP3    H265130   4.564   1.564  16.268  2.1624 -2.1814  0.2794
14547TIP3   OH265131   3.856   5.272  10.834 -0.4758  0.6510 -0.2548
14547TIP3    H165132   3.918   5.318  10.776 -0.3437  1.6585  0.6524
14547TIP3    H265133   3.876   5.180  10.822  0.1740  0.8918 -1.1270
14548TIP3   OH265134   5.389   5.439  11.212  0.1120  0.4703  0.2708
14548TIP3    H165135   5.469   5.435  11.160  1.5028  0.4532  2.3069
14548TIP3    H265136   5.417   5.419  11.301 -2.1699  0.4872  1.0615
14549TIP3   OH265137   6.430   1.483   2.415 -0.7192 -0.1677  0.0029
14549TIP3    H165138   6.485   1.451   2.487  1.1622  2.6492 -0.0047
14549TIP3    H265139   6.437   1.579   2.422 -0.9668  0.2199 -3.5357
14550TIP3   OH265140   3.270   3.759   1.914  0.1861  0.1096  0.2708
14550TIP3    H165141   3.275   3.776   2.008 -0.5546 -1.0859  0.5611
14550TIP3    H265142   3.193   3.808   1.885  0.8213  1.0498  0.1283
14551TIP3   OH265143   1.018   3.082   4.787  0.7339  0.1157 -0.0038
14551TIP3    H165144   0.935   3.074   4.834 -0.8813 -1.8027 -2.8627
14551TIP3    H265145   1.041   3.174   4.795 -1.1353  0.5149  1.6951
14552TIP3   OH265146   0.381   2.753  16.092  0.5057  0.0917 -0.6676
14552TIP3    H165147   0.412   2.682  16.036  0.9677  1.3235 -2.0286
14552TIP3    H265148   0.355   2.709  16.174  1.5234 -1.5226 -1.1597
14553TIP3   OH265149   1.653   6.699   5.373 -0.3328 -0.0937 -0.0692
14553TIP3    H165150   1.683   6.753   5.301 -0.4334  0.3463  0.2110
14553TIP3    H265151   1.700   6.732   5.450 -1.2921  0.4102  0.3214
14554TIP3   OH265152   2.296   4.639   5.703  0.2159  0.4279 -0.2050
14554TIP3    H165153   2.339   4.683   5.630 -0.8445 -0.5254 -1.4536
14554TIP3    H265154   2.291   4.547   5.677 -0.3779  0.1023  0.9774
14555TIP3   OH265155   6.772   5.057  15.495  0.2713 -0.4640 -1.2267
14555TIP3    H165156   6.726   4.986  15.450  1.3391 -2.0213  0.0324
14555TIP3    H265157   6.755   5.135  15.441 -0.8670 -1.6785 -2.6949
14556TIP3   OH265158   1.569   0.183  15.134  0.1112  0.1968 -0.0720
14556TIP3    H165159   1.573   0.166  15.228 -0.5667  0.7189  0.0567
14556TIP3    H265160   1.505   0.121  15.101  1.3530 -0.9437 -0.4318
14557TIP3   OH265161   5.961   1.495  14.901 -0.8799  0.3802 -0.0300
14557TIP3    H165162   6.009   1.541  14.832 -0.4574 -1.5209 -1.0773
14557TIP3    H265163   5.874   1.478  14.863 -0.5869 -0.8317 -0.2081
14558TIP3   OH265164   1.575   0.102  15.692  0.2652 -0.0204  0.1154
14558TIP3    H165165   1.570   0.061  15.778  0.2914  1.3336  0.7832
14558TIP3    H265166   1.666   0.089  15.664  0.0410 -1.2342 -0.1344
14559TIP3   OH265167   4.800   6.267  12.069  0.7437 -0.6079 -0.3609
14559TIP3    H165168   4.751   6.191  12.099 -1.0623 -0.1525 -1.9607
14559TIP3    H265169   4.767   6.284  11.981  0.9451  2.1160 -0.0033
14560TIP3   OH265170   4.497   5.020   3.432  0.0493  0.1147 -0.1347
14560TIP3    H165171   4.519   4.929   3.450  1.7086  0.0573 -2.0767
14560TIP3    H265172   4.405   5.029   3.457  0.1436 -1.7896  1.0606
14561TIP3   OH265173   6.507   1.044  16.253  0.4769  0.0682  0.3909
14561TIP3    H165174   6.533   0.954  16.275  0.0699 -0.0792  0.2925
14561TIP3    H265175   6.589   1.093  16.249  0.9977 -0.8832 -2.2998
14562TIP3   OH265176   0.032   4.041   6.795  0.0014 -0.8180 -0.1127
14562TIP3    H165177  -0.007   4.112   6.846 -0.3548 -0.3133 -1.0394
14562TIP3    H265178   0.124   4.066   6.786  0.4415 -1.7173  1.5919
14563TIP3   OH265179   0.873   4.866   1.841  0.2484 -0.9754 -0.6752
14563TIP3    H165180   0.924   4.875   1.760  2.0689  0.4928  0.5513
14563TIP3    H265181   0.902   4.938   1.896 -3.1253 -0.1148  0.2132
14564TIP3   OH265182   0.025   3.621   1.709  0.6176  0.1866 -0.2557
14564TIP3    H165183  -0.069   3.628   1.725  0.6670  0.6448 -0.1593
14564TIP3    H265184   0.043   3.527   1.717  0.1965  0.1128 -0.1242
14565TIP3   OH265185   5.470   4.627  15.879 -0.1944 -0.0970  0.3419
14565TIP3    H165186   5.523   4.547  15.883  0.3655  0.2991  1.9679
14565TIP3    H265187   5.391   4.606  15.930 -1.0683 -0.2914 -1.0486
14566TIP3   OH265188   2.939   2.225  10.605  0.0014  0.2611 -0.2724
14566TIP3    H165189   3.002   2.290  10.634 -0.4993  1.6094 -2.0477
14566TIP3    H265190   2.938   2.233  10.509 -0.2139 -2.2482 -0.5537
14567TIP3   OH265191   3.902   5.113  16.124 -0.0433  0.2150 -0.1852
14567TIP3    H165192   3.886   5.207  16.112  0.6406  0.1579 -1.8249
14567TIP3    H265193   3.843   5.070  16.063  1.2771 -0.2930 -1.1592
14568TIP3   OH265194   1.846   2.255   6.328 -0.0201  0.0399 -0.6304
14568TIP3    H165195   1.859   2.343   6.295 -3.5103  0.7083 -0.5816
14568TIP3    H265196   1.782   2.265   6.398  0.4124 -2.4224  0.2230
14569TIP3   OH265197   4.005   0.852  17.148  0.3699  0.4504 -0.0152
14569TIP3    H165198   4.096   0.871  17.128  0.9668 -1.3021  0.8195
14569TIP3    H265199   3.967   0.937  17.173  1.5468  1.3273 -1.1115
14570TIP3   OH265200   5.326   5.252   4.713  0.5667 -0.3909 -0.3248
14570TIP3    H165201   5.333   5.325   4.775  1.1592 -1.2452  0.6362
14570TIP3    H265202   5.413   5.244   4.675 -0.3949  1.9030 -3.4318
14571TIP3   OH265203   3.343   1.430  12.389 -0.5176  0.1105 -0.0665
14571TIP3    H165204   3.328   1.519  12.357  0.3929 -0.6174 -2.7962
14571TIP3    H265205   3.256   1.391  12.391 -0.5587 -0.6242 -4.6938
14572TIP3   OH265206   1.805   4.085   5.809  0.4458  0.6047 -0.2142
14572TIP3    H165207   1.756   4.012   5.845  0.9014  0.5575  0.3164
14572TIP3    H265208   1.815   4.064   5.716  0.7079 -0.0829 -0.0338
14573TIP3   OH265209   0.969   2.014  15.737 -0.0320  0.5953  0.0864
14573TIP3    H165210   0.901   1.955  15.770  0.0772  0.7502  0.5980
14573TIP3    H265211   0.988   2.072  15.811  1.1185  0.1306  0.1659
14574TIP3   OH265212   0.490   3.914   2.115 -0.8145 -0.0856  0.3890
14574TIP3    H165213   0.457   3.955   2.195  0.9344 -1.4382  1.8831
14574TIP3    H265214   0.577   3.882   2.138 -0.9923 -2.1978 -1.4738
14575TIP3   OH265215   6.089   2.165   3.020  0.9502 -0.0627 -0.9621
14575TIP3    H165216   6.001   2.131   3.033  0.8680  0.9272  1.8942
14575TIP3    H265217   6.075   2.254   2.986  0.8211  0.1094 -0.4707
14576TIP3   OH265218   4.469   5.866  16.064  0.1461 -0.2869  0.1828
14576TIP3    H165219   4.545   5.830  16.111  1.9582  0.6470 -1.8412
14576TIP3    H265220   4.480   5.834  15.974 -1.6072  0.3056 -0.2748
14577TIP3   OH265221   5.817   5.513  12.605 -0.0758  0.1129  0.4425
14577TIP3    H165222   5.885   5.546  12.663 -1.0269  1.4336  0.8523
14577TIP3    H265223   5.774   5.592  12.571 -2.8565 -0.6169  1.9330
14578TIP3   OH265224   4.449   6.350   5.232  0.1539  0.0060  0.3084
14578TIP3    H165225   4.415   6.420   5.176 -1.0401 -1.3298 -0.6947
14578TIP3    H265226   4.379   6.285   5.234  2.1274 -2.2782 -0.7262
14579TIP3   OH265227   6.117   5.383  16.900 -0.3722  0.5160 -0.5387
14579TIP3    H165228   6.065   5.459  16.874  1.4618  1.6045 -1.1672
14579TIP3    H265229   6.066   5.342  16.970 -2.5938  0.8707 -1.8362
14580TIP3   OH265230   4.317   4.682   1.403 -0.1477 -0.1649  0.2378
14580TIP3    H165231   4.234   4.727   1.388 -1.0085 -1.1715  1.7897
14580TIP3    H265232   4.336   4.640   1.319 -0.7119  0.8224 -0.4115
14581TIP3   OH265233   2.385   0.952  11.764 -0.2557  0.5660  0.2485
14581TIP3    H165234   2.304   0.925  11.720  0.2982  0.0644 -0.4915
14581TIP3    H265235   2.413   1.030  11.718 -0.1948  0.6089  0.3584
14582TIP3   OH265236   3.476   3.176  11.024 -0.1235 -0.1703  0.0553
14582TIP3    H165237   3.443   3.132  11.102 -1.0902  0.1817 -0.1395
14582TIP3    H265238   3.499   3.106  10.963  1.0896 -0.4621  0.8201
14583TIP3   OH265239   6.195   1.750  16.269  0.8009  0.2750  0.3577
14583TIP3    H165240   6.133   1.811  16.229 -0.3367 -1.6013 -0.9180
14583TIP3    H265241   6.220   1.791  16.351  1.7133  3.3980 -1.3389
14584TIP3   OH265242   6.101   1.842   4.855  0.2930 -0.5276  0.0522
14584TIP3    H165243   6.142   1.759   4.833 -0.1605 -0.7480  0.0356
14584TIP3    H265244   6.124   1.856   4.947 -0.9023 -1.4300  0.5107
14585TIP3   OH265245   0.524   3.873  16.660 -1.1186 -0.1640  0.0152
14585TIP3    H165246   0.541   3.936  16.590 -2.3485 -0.1484 -0.2860
14585TIP3    H265247   0.543   3.788  16.621  2.7872  0.0005  1.0607
14586TIP3   OH265248   4.064   1.113  12.960  0.1257 -0.0815 -0.0387
14586TIP3    H165249   4.093   1.170  12.888 -0.5211  1.2339  0.7119
14586TIP3    H265250   4.004   1.051  12.919 -0.2245  0.6460 -0.6512
14587TIP3   OH265251   0.560   4.236   1.542  0.0793  0.1551  0.5300
14587TIP3    H165252   0.545   4.313   1.487  0.3561  0.4054  0.7987
14587TIP3    H265253   0.503   4.168   1.505  0.2250  0.3320 -0.0347
14588TIP3   OH265254   1.744   4.989  17.237 -0.2691  0.2893 -0.3015
14588TIP3    H165255   1.672   4.926  17.239 -0.7841  0.9030  1.1916
14588TIP3    H265256   1.729   5.040  17.157 -0.2846 -0.9272 -1.1149
14589TIP3   OH265257   0.806   5.767  13.842 -0.1576  0.0122 -0.1522
14589TIP3    H165258   0.883   5.778  13.898  2.4484 -0.3753 -3.3029
14589TIP3    H265259   0.826   5.820  13.764 -3.8819  1.1649 -0.5054
14590TIP3   OH265260   4.591   3.692   3.156  0.4123 -0.6566  0.2805
14590TIP3    H165261   4.524   3.756   3.131  1.0579 -0.3446 -0.6919
14590TIP3    H265262   4.667   3.744   3.180  0.2790 -1.0052  1.5345
14591TIP3   OH265263   6.475   4.031   5.047 -0.0280  0.1524 -0.2772
14591TIP3    H165264   6.462   3.984   4.965  0.5211 -1.3945  0.4811
14591TIP3    H265265   6.393   4.019   5.095 -0.4093  1.1938 -0.6501
14592TIP3   OH265266   2.165   1.879  11.707 -0.4293 -0.5172 -0.0623
14592TIP3    H165267   2.128   1.940  11.643  1.0369 -0.5107 -0.9505
14592TIP3    H265268   2.232   1.931  11.753 -0.6371 -0.8688  0.6578
14593TIP3   OH265269   3.998   2.587   1.355 -0.2853  0.0146  0.2605
14593TIP3    H165270   3.974   2.568   1.265 -0.7272  0.4426  0.2830
14593TIP3    H265271   3.949   2.523   1.407 -3.4433  2.3980  0.4925
14594TIP3   OH265272   1.861   5.446  15.120  0.0956  0.5128  0.3669
14594TIP3    H165273   1.917   5.372  15.144  0.4358  0.5618 -0.2579
14594TIP3    H265274   1.799   5.453  15.193 -0.8212 -1.2409 -0.1729
14595TIP3   OH265275   1.113   6.294   3.923  0.2494 -0.0991  0.4298
14595TIP3    H165276   1.115   6.247   4.006  1.8899  1.3198  1.2576
14595TIP3    H265277   1.026   6.278   3.888 -0.3291 -1.0884  2.2031
14596TIP3   OH265278   2.158   3.506  14.315 -0.4774  0.3912 -0.8935
14596TIP3    H165279   2.074   3.536  14.348 -1.5453  0.7262 -3.6055
14596TIP3    H265280   2.179   3.429  14.367 -0.8154  2.0871  1.9775
14597TIP3   OH265281   3.191   6.625  11.668 -0.4121  0.3490 -0.2520
14597TIP3    H165282   3.169   6.592  11.581  0.7833 -0.7114 -0.1822
14597TIP3    H265283   3.246   6.701  11.652 -0.8702  0.6536 -0.4110
14598TIP3   OH265284   5.064   5.479   4.830  0.2642  0.4531  0.0833
14598TIP3    H165285   4.990   5.444   4.780 -1.0533  1.1289  1.4863
14598TIP3    H265286   5.052   5.574   4.829  1.5259  0.6304 -0.2580
14599TIP3   OH265287   0.818   6.303  15.677  0.5925  0.7418  0.5492
14599TIP3    H165288   0.785   6.238  15.739  3.4173  0.1180  1.5212
14599TIP3    H265289   0.850   6.375  15.732  0.3654  1.5569 -0.3565
14600TIP3   OH265290   2.867   3.737   0.480 -0.6297 -0.0939 -0.3197
14600TIP3    H165291   2.854   3.823   0.519 -2.7064 -0.6682  0.3932
14600TIP3    H265292   2.779   3.701   0.470  0.1493 -2.0257 -0.8730
14601TIP3   OH265293   5.627   3.689   1.396 -0.3987 -0.6155  0.2167
14601TIP3    H165294   5.656   3.635   1.469  0.1577 -0.9332 -0.2288
14601TIP3    H265295   5.707   3.706   1.346 -0.8070 -0.5855 -0.4350
14602TIP3   OH265296   5.035   0.848  13.360 -0.5169 -0.1129  0.3292
14602TIP3    H165297   5.081   0.842  13.443  0.5224  1.7864 -0.0606
14602TIP3    H265298   5.095   0.807  13.296  0.6565  2.2056 -0.1478
14603TIP3   OH265299   4.818   0.989  13.393  0.0037 -0.5608  0.5354
14603TIP3    H165300   4.773   0.946  13.466 -1.8912 -3.6053 -2.1636
14603TIP3    H265301   4.899   0.940  13.382  1.0275  0.8513  1.4192
14604TIP3   OH265302   4.812   2.176  10.825 -0.2217  0.0880  0.5240
14604TIP3    H165303   4.853   2.252  10.784 -0.9305  1.1903  1.7582
14604TIP3    H265304   4.795   2.204  10.915 -1.8601 -0.9980  0.5973
14605TIP3   OH265305   1.193   4.695  14.078 -0.0108 -0.0472 -0.1230
14605TIP3    H165306   1.221   4.733  13.995 -1.5745  0.6191 -0.3807
14605TIP3    H265307   1.261   4.719  14.140  1.2712 -0.7030 -1.2329
14606TIP3   OH265308   0.413   1.986  12.850 -0.1200 -0.5147  0.8105
14606TIP3    H165309   0.437   1.995  12.758 -0.4322 -0.6479  0.7137
14606TIP3    H265310   0.353   2.058  12.867  1.4496  0.6942  1.4449
14607TIP3   OH265311   3.066   4.269  10.608  0.3201  0.2960 -0.3286
14607TIP3    H165312   3.000   4.199  10.601 -0.2259  0.8540 -0.8257
14607TIP3    H265313   3.033   4.326  10.677  1.5415 -0.7367  1.1868
14608TIP3   OH265314   6.743   4.235  16.208 -0.1107 -0.8900  0.0547
14608TIP3    H165315   6.716   4.297  16.276  0.9564 -0.7350  0.3535
14608TIP3    H265316   6.720   4.279  16.126  1.9075  0.5957  0.2087
14609TIP3   OH265317   5.187   2.830  13.904 -0.3337 -0.5296  0.7103
14609TIP3    H165318   5.145   2.745  13.890  1.3044 -1.2675  0.0422
14609TIP3    H265319   5.155   2.885  13.833 -2.5562 -0.0573  1.9615
14610TIP3   OH265320   5.919   3.673  16.915  0.3631 -0.4286 -0.0415
14610TIP3    H165321   5.832   3.637  16.936  0.9336 -0.7902  1.8809
14610TIP3    H265322   5.948   3.715  16.996  1.0804  1.6429 -1.3066
14611TIP3   OH265323   6.102   4.788  16.993  0.3229 -1.2544 -0.2868
14611TIP3    H165324   6.062   4.720  16.938  0.9325 -3.2160  1.5674
14611TIP3    H265325   6.028   4.840  17.024 -0.1085 -0.6366 -2.1824
14612TIP3   OH265326   1.852   2.168   3.706  0.0277  0.4308  0.1891
14612TIP3    H165327   1.807   2.250   3.727 -2.8654 -0.1735 -2.7934
14612TIP3    H265328   1.789   2.100   3.728  1.6129 -0.9236  0.7277
14613TIP3   OH265329   1.035   0.906   1.063 -0.6252  0.1264 -0.2055
14613TIP3    H165330   0.992   0.935   1.144  1.5755  0.5173  0.8921
14613TIP3    H265331   0.971   0.847   1.022 -1.3736 -1.0244  2.4084
14614TIP3   OH265332   6.012   3.421   2.594 -0.3682 -0.1022  0.1041
14614TIP3    H165333   6.012   3.512   2.626 -0.1769 -0.4181  1.0570
14614TIP3    H265334   6.051   3.426   2.507 -1.2687  0.8549 -0.2579
14615TIP3   OH265335   6.312   3.075   2.871 -0.3490  0.4061 -0.1649
14615TIP3    H165336   6.232   3.054   2.919  0.0711 -1.3207 -0.1719
14615TIP3    H265337   6.315   3.012   2.799  1.2294  0.1766  0.0766
14616TIP3   OH265338   3.935   5.473   6.427 -0.0502  0.1440  0.5655
14616TIP3    H165339   3.882   5.406   6.383  1.3672 -0.0704 -0.9208
14616TIP3    H265340   3.909   5.555   6.384  3.2732 -0.3571 -2.9260
14617TIP3   OH265341   5.203   2.549   4.756  0.7255 -0.1192 -0.1241
14617TIP3    H165342   5.263   2.613   4.796 -1.2981  0.4799  2.2439
14617TIP3    H265343   5.168   2.500   4.831 -2.2845  0.1333 -1.2181
14618TIP3   OH265344   6.311   3.511  12.739  0.2918  0.0636 -0.5578
14618TIP3    H165345   6.264   3.440  12.696  0.0285 -0.0391 -0.1131
14618TIP3    H265346   6.254   3.587  12.729 -0.1762 -0.1503  0.3281
14619TIP3   OH265347   1.192   0.162   5.109  0.4611 -0.2031  0.0750
14619TIP3    H165348   1.103   0.197   5.118  0.3959 -0.4939  0.5761
14619TIP3    H265349   1.231   0.172   5.195  0.6469 -0.7923  0.0668
14620TIP3   OH265350   3.377   3.634   2.528 -0.6732  0.5121 -0.1513
14620TIP3    H165351   3.408   3.675   2.609 -0.8713  0.1891  0.0920
14620TIP3    H265352   3.309   3.694   2.496 -1.5224 -0.0073  0.6217
14621TIP3   OH265353   1.016   0.773  11.110 -0.1221 -0.1580  0.4893
14621TIP3    H165354   1.042   0.860  11.139 -0.5226 -0.2860  1.2668
14621TIP3    H265355   0.923   0.767  11.131 -0.4568 -0.2270 -0.9438
14622TIP3   OH265356   6.168   5.983   1.787  0.0187 -0.7127  0.6248
14622TIP3    H165357   6.234   6.051   1.773 -0.5258  0.5695  3.5781
14622TIP3    H265358   6.085   6.026   1.771 -0.2550 -1.2295  0.6451
14623TIP3   OH265359   1.652   5.806   0.033 -0.4079 -0.0246 -0.3176
14623TIP3    H165360   1.665   5.745   0.106 -2.0471  0.4214  0.3969
14623TIP3    H265361   1.615   5.884   0.074 -1.9604  0.0070 -1.6649
14624TIP3   OH265362   6.465   0.792  16.948  0.2664  0.3434 -0.3555
14624TIP3    H165363   6.546   0.744  16.963 -0.1757 -0.8763 -1.7051
14624TIP3    H265364   6.494   0.879  16.918  1.1401 -0.5719 -2.3743
14625TIP3   OH265365   3.013   4.915   1.394  0.2469  0.0506 -0.1014
14625TIP3    H165366   3.055   4.830   1.406  0.1923  0.2014  1.3493
14625TIP3    H265367   3.073   4.977   1.435 -1.1407  0.3126  1.6694
14626TIP3   OH265368   0.323   1.908  13.289 -0.3526 -0.2280  0.0563
14626TIP3    H165369   0.325   2.000  13.313  0.7353 -0.3433  0.4762
14626TIP3    H265370   0.251   1.871  13.340 -0.9317  0.4163 -0.2749
14627TIP3   OH265371   2.544   1.564  14.556  0.1015 -0.0522 -0.3625
14627TIP3    H165372   2.572   1.476  14.583 -0.2922 -0.1394 -0.2378
14627TIP3    H265373   2.602   1.586  14.483 -0.7112 -0.9857 -1.3173
14628TIP3   OH265374   4.191   5.186  16.108  0.6920 -0.1785  0.0716
14628TIP3    H165375   4.106   5.222  16.135  0.7135 -1.1700  1.5531
14628TIP3    H265376   4.255   5.236  16.158  0.8581 -0.6602  0.3462
14629TIP3   OH265377   0.726   2.944  13.289 -0.1339  0.5596  0.6708
14629TIP3    H165378   0.675   2.984  13.218 -0.8131 -0.0660  0.7949
14629TIP3    H265379   0.729   2.851  13.267  0.5052  0.5117  0.9483
14630TIP3   OH265380   3.774   4.772   1.588 -0.6347  0.5075 -0.0936
14630TIP3    H165381   3.821   4.690   1.573  0.1284  0.9925 -0.4264
14630TIP3    H265382   3.744   4.766   1.679 -2.2207 -0.9257 -0.6649
14631TIP3   OH265383   1.908   0.556  13.421 -0.4875  0.3729  0.7409
14631TIP3    H165384   1.825   0.598  13.444 -0.6520  0.6131 -0.2391
14631TIP3    H265385   1.970   0.629  13.415 -0.2707  0.2271  1.1647
14632TIP3   OH265386   3.662   1.288   3.736 -0.3984 -0.0183 -0.2500
14632TIP3    H165387   3.737   1.304   3.680  0.3644  1.6855  1.1662
14632TIP3    H265388   3.661   1.362   3.797 -1.8714 -1.1706  1.2230
14633TIP3   OH265389   4.028   3.556   5.593 -0.3199  0.1016  0.5809
14633TIP3    H165390   4.115   3.582   5.624  0.2096  0.6153 -1.2151
14633TIP3    H265391   3.967   3.608   5.646  0.5292  0.8415  0.8600
14634TIP3   OH265392   2.466   1.935  16.110 -0.0140  0.4901 -0.0815
14634TIP3    H165393   2.516   1.886  16.176 -1.5001  0.0469  0.7560
14634TIP3    H265394   2.479   1.886  16.029  0.3673  0.0149  0.2588
14635TIP3   OH265395   6.668   6.560   1.611 -0.2455 -0.0360 -0.4063
14635TIP3    H165396   6.631   6.588   1.527 -0.0932 -3.1580 -1.6430
14635TIP3    H265397   6.752   6.520   1.588  1.0112  1.2464  1.6086
14636TIP3   OH265398   4.349   2.875   0.105  0.3512 -0.1246 -0.9919
14636TIP3    H165399   4.432   2.828   0.101  0.7979  0.5619 -0.0820
14636TIP3    H265400   4.290   2.814   0.149  1.2471  0.5514  1.2920
14637TIP3   OH265401   0.680   2.145  17.193 -0.1038  0.4480 -0.1973
14637TIP3    H165402   0.730   2.217  17.153  0.0809  0.7187  0.5119
14637TIP3    H265403   0.709   2.144  17.284  0.1395 -0.7414 -0.2735
14638TIP3   OH265404   1.418   2.547   6.058  0.0187  0.4805  0.4315
14638TIP3    H165405   1.511   2.555   6.074  0.2090 -0.4247 -0.1444
14638TIP3    H265406   1.379   2.536   6.144  0.6385 -0.9219  0.5460
14639TIP3   OH265407   4.393   4.995   5.458 -0.1733  0.1982  0.1767
14639TIP3    H165408   4.417   5.024   5.547 -0.3504  0.9733 -0.0173
14639TIP3    H265409   4.305   5.029   5.446  0.2775  1.0827 -0.7184
14640TIP3   OH265410   0.866   0.706   2.608 -0.1997  0.0010 -0.0367
14640TIP3    H165411   0.859   0.698   2.703  1.3811 -0.3642  0.0828
14640TIP3    H265412   0.885   0.617   2.577 -0.7458  0.1062 -0.7083
14641TIP3   OH265413   1.628   0.370  16.266 -0.8452 -0.0487 -0.0972
14641TIP3    H165414   1.538   0.357  16.237 -0.4161 -2.6754 -0.5140
14641TIP3    H265415   1.678   0.379  16.185 -0.4321 -1.2317  0.0079
14642TIP3   OH265416   4.329   3.644  13.552  0.3271  0.4097 -0.2132
14642TIP3    H165417   4.266   3.670  13.620  0.8063  1.6360 -0.2078
14642TIP3    H265418   4.412   3.635  13.599  0.5780  0.8718 -0.5539
14643TIP3   OH265419   5.803   6.028   2.078  0.3995 -0.0801 -0.4707
14643TIP3    H165420   5.739   5.957   2.082  0.9121 -0.5845 -1.0075
14643TIP3    H265421   5.784   6.081   2.155  1.1077 -1.7365  0.9178
14644TIP3   OH265422   1.554   5.180  14.781 -0.2737 -0.2799  0.1155
14644TIP3    H165423   1.609   5.255  14.802 -1.2214  0.3553  0.3689
14644TIP3    H265424   1.546   5.182  14.686  0.9120 -0.9497 -0.0277
14645TIP3   OH265425   4.547   5.492  14.677  0.7029  0.2857 -0.5699
14645TIP3    H165426   4.606   5.442  14.733  1.2571 -0.4809 -1.7934
14645TIP3    H265427   4.485   5.533  14.738  1.5990 -0.0741  0.6264
14646TIP3   OH265428   2.782   0.847   5.889 -0.6281 -0.1292 -0.1523
14646TIP3    H165429   2.703   0.794   5.899 -0.4160 -0.2853  0.8211
14646TIP3    H265430   2.853   0.788   5.913 -0.0917 -0.3245 -2.0943
14647TIP3   OH265431   1.277   4.536  13.671 -0.4770 -0.0340  0.3801
14647TIP3    H165432   1.216   4.605  13.698  0.1117  0.0933  1.4245
14647TIP3    H265433   1.363   4.577  13.673 -0.1459 -0.7308  0.7558
14648TIP3   OH265434   6.388   5.338  16.985  0.2833  0.4385  0.3447
14648TIP3    H165435   6.390   5.372  16.895 -0.2293 -4.0628 -1.6450
14648TIP3    H265436   6.301   5.359  17.017 -0.4643 -0.0255 -1.2816
14649TIP3   OH265437   5.500   3.886  15.062 -0.4484 -0.9346 -0.4387
14649TIP3    H165438   5.446   3.931  15.127 -2.0456 -2.1720 -0.8613
14649TIP3    H265439   5.590   3.913  15.082 -1.2357  1.7001 -0.1156
14650TIP3   OH265440   1.240   3.187  14.489  0.5540  0.7310 -0.2324
14650TIP3    H165441   1.209   3.102  14.458  0.4682  0.3378  0.8753
14650TIP3    H265442   1.282   3.227  14.413  1.8094 -0.8901 -0.4311
14651TIP3   OH265443   5.525   4.940   4.805  0.2313 -0.0096  0.2031
14651TIP3    H165444   5.586   4.969   4.872  2.2217 -1.5387 -0.8454
14651TIP3    H265445   5.544   4.847   4.794 -1.4015 -0.2333 -1.1032
14652TIP3   OH265446   1.349   4.992  13.713 -0.0476  0.6292  0.1345
14652TIP3    H165447   1.283   5.054  13.679  0.2649  1.5313  1.1334
14652TIP3    H265448   1.409   4.979  13.640 -0.6835  0.7005 -0.4164
14653TIP3   OH265449   0.514   3.399  12.727  0.0807 -0.0948  0.6590
14653TIP3    H165450   0.454   3.473  12.712 -1.2536 -1.4406 -1.1715
14653TIP3    H265451   0.580   3.434  12.787 -0.9267  2.3365  0.5023
14654TIP3   OH265452   6.367   1.898  15.491  0.3684  0.8170  0.3451
14654TIP3    H165453   6.332   1.883  15.403 -0.4727 -0.0918  0.8235
14654TIP3    H265454   6.289   1.910  15.546  0.4350 -4.4460  2.0609
14655TIP3   OH265455   4.088   2.644  10.559  0.5224 -0.5393 -0.0045
14655TIP3    H165456   4.090   2.550  10.578 -1.8210 -1.0885 -1.9350
14655TIP3    H265457   4.120   2.652  10.469 -0.1852  0.3880 -0.1918
14656TIP3   OH265458   3.308   0.442  12.512 -0.6860 -0.5458  0.3510
14656TIP3    H165459   3.363   0.517  12.533  0.4318 -1.3968  0.5731
14656TIP3    H265460   3.248   0.434  12.586  0.7811 -1.2944  1.4991
14657TIP3   OH265461   6.112   0.005  17.049  0.1590 -0.0098 -0.1207
14657TIP3    H165462   6.113   0.056  17.130  0.3607 -0.3968  0.1252
14657TIP3    H265463   6.034   0.035  17.002 -0.5520 -0.5303  0.7040
14658TIP3   OH265464   5.618   6.148  15.498 -0.7923 -0.8078 -0.0519
14658TIP3    H165465   5.531   6.125  15.530 -1.0489 -0.8759 -0.7767
14658TIP3    H265466   5.649   6.216  15.558 -0.4846 -2.2126  1.4544
14659TIP3   OH265467   0.092   5.043   3.291 -0.4678  0.0217  0.2747
14659TIP3    H165468   0.061   4.953   3.298  0.1604 -0.0826  2.4575
14659TIP3    H265469   0.182   5.035   3.261 -1.1569  0.1002 -1.9530
14660TIP3   OH265470   0.960   1.905   0.282  0.7963 -0.1905 -0.8220
14660TIP3    H165471   1.052   1.914   0.256  0.9951 -0.5830 -0.3034
14660TIP3    H265472   0.965   1.888   0.376  0.2081 -0.5265 -0.8513
14661TIP3   OH265473   3.847   6.641  13.945  0.3521  0.1788  0.6782
14661TIP3    H165474   3.911   6.582  13.905 -1.7507 -0.3104 -2.2763
14661TIP3    H265475   3.844   6.716  13.885 -2.0963 -0.0204  0.4712
14662TIP3   OH265476   6.070   0.545   5.891  0.1573  0.0467  0.0453
14662TIP3    H165477   6.087   0.558   5.798 -0.5660 -0.0372 -0.1077
14662TIP3    H265478   5.992   0.598   5.909  0.0127 -0.3093  0.4888
14663TIP3   OH265479   6.072   0.801   4.531 -0.5167 -0.0066  0.4602
14663TIP3    H165480   6.006   0.801   4.600 -2.1688 -1.0998 -1.0176
14663TIP3    H265481   6.058   0.883   4.484 -0.4110  0.0334  0.4971
14664TIP3   OH265482   1.838   2.780  16.889 -0.5939 -0.0286 -0.2003
14664TIP3    H165483   1.781   2.847  16.850 -1.1301 -0.0838  0.4553
14664TIP3    H265484   1.817   2.783  16.983 -1.4139 -1.8259 -0.2755
14665TIP3   OH265485   5.782   5.305  15.053 -0.2224 -0.7014  0.0893
14665TIP3    H165486   5.859   5.250  15.040  0.1362  0.0196 -1.0571
14665TIP3    H265487   5.791   5.374  14.986 -1.5741 -0.2935  0.3009
14666TIP3   OH265488   6.006   4.413   0.812  0.1689 -0.2131  0.0462
14666TIP3    H165489   5.990   4.393   0.904  3.6526 -1.7131  0.4705
14666TIP3    H265490   6.008   4.509   0.808  1.4709 -0.1125  1.8718
14667TIP3   OH265491   4.048   5.506   4.507  0.0831  0.7582  0.1521
14667TIP3    H165492   4.051   5.512   4.411 -0.9088  1.8953  0.1702
14667TIP3    H265493   4.022   5.416   4.525 -1.3872  0.9822 -0.7124
14668TIP3   OH265494   6.368   3.058  12.104  0.3724  0.1116 -0.7785
14668TIP3    H165495   6.406   3.079  12.189  1.6299 -0.7057 -1.1216
14668TIP3    H265496   6.280   3.025  12.125  0.1235  1.2489  0.0792
14669TIP3   OH265497   5.357   5.677  13.846  0.0796 -0.4599  0.0423
14669TIP3    H165498   5.308   5.715  13.774 -2.4249  0.4833  2.0953
14669TIP3    H265499   5.431   5.736  13.860  0.2060 -0.2885 -1.2630
14670TIP3   OH265500   6.136   1.228  12.419  0.3481  0.4178  0.1034
14670TIP3    H165501   6.141   1.140  12.455  0.0266 -0.4463 -1.8604
14670TIP3    H265502   6.064   1.270  12.467 -1.4369 -1.3623 -0.9028
14671TIP3   OH265503   6.476   5.631   1.949  0.4233 -0.2887 -0.1303
14671TIP3    H165504   6.481   5.710   1.896  1.5854 -0.3287 -0.1045
14671TIP3    H265505   6.400   5.644   2.005  1.6327  1.6200  1.1523
14672TIP3   OH265506   5.422   6.138   1.405  0.0466  0.4454 -0.5762
14672TIP3    H165507   5.367   6.070   1.366  1.2179  1.3213 -4.1293
14672TIP3    H265508   5.364   6.214   1.414 -0.4484 -0.0202  0.2544
14673TIP3   OH265509   3.452   2.120  15.268 -0.4616 -0.2308 -0.0683
14673TIP3    H165510   3.544   2.109  15.295 -0.4098 -0.6747 -0.4018
14673TIP3    H265511   3.417   2.186  15.327 -0.5422 -1.6524  1.5484
14674TIP3   OH265512   4.397   4.349  16.357 -0.1778  0.2795  0.1621
14674TIP3    H165513   4.442   4.317  16.279  0.2034  0.5502  0.2657
14674TIP3    H265514   4.307   4.318  16.348 -0.6561  1.9535 -1.3488
14675TIP3   OH265515   3.488   1.228  13.970  0.0243  0.1914  0.8090
14675TIP3    H165516   3.583   1.215  13.975  0.0627 -0.5228 -1.0213
14675TIP3    H265517   3.478   1.322  13.953  0.5228  0.0125 -0.6363
14676TIP3   OH265518   4.236   6.766  14.703  0.1395 -0.1477  0.3614
14676TIP3    H165519   4.240   6.748  14.797 -0.0327  0.5997  0.5158
14676TIP3    H265520   4.289   6.845  14.692 -0.0384 -0.0980 -0.1343
14677TIP3   OH265521   1.022   5.444  12.137  0.5129  0.8211  0.0273
14677TIP3    H165522   1.115   5.467  12.135  0.8437 -0.3558  0.4055
14677TIP3    H265523   1.003   5.413  12.049  0.4241  1.2532 -0.1065
14678TIP3   OH265524   2.842   1.264  11.888 -0.1432  0.1522  0.3762
14678TIP3    H165525   2.790   1.183  11.886 -0.9783  0.6990 -1.5619
14678TIP3    H265526   2.785   1.330  11.848  0.6146  1.6753  1.7056
14679TIP3   OH265527   4.558   4.754   2.223  0.1706  0.4343  0.1721
14679TIP3    H165528   4.613   4.781   2.149 -0.5783 -0.9839 -0.9538
14679TIP3    H265529   4.597   4.797   2.299  1.3675  1.4004 -0.9460
14680TIP3   OH265530   5.890   0.006   3.561 -0.1372  0.5917 -0.1186
14680TIP3    H165531   5.977   0.009   3.600 -0.2945  1.8570  0.1669
14680TIP3    H265532   5.858  -0.082   3.580  1.2705 -0.0628 -0.6615
14681TIP3   OH265533   2.595   3.746   4.523 -0.0787 -0.1622  0.0073
14681TIP3    H165534   2.566   3.767   4.434  0.0104 -0.5438 -0.1193
14681TIP3    H265535   2.555   3.812   4.579  2.2650  1.9658 -0.6453
14682TIP3   OH265536   4.745   4.075   0.964 -0.7108 -0.3191  0.1608
14682TIP3    H165537   4.788   3.998   0.927 -2.2661 -0.8097 -0.7182
14682TIP3    H265538   4.655   4.047   0.978 -1.0880  1.0884  0.6645
14683TIP3   OH265539   3.978   0.232  15.389  0.3543  0.2544 -0.0440
14683TIP3    H165540   4.009   0.319  15.416 -0.9188  0.8432 -0.3490
14683TIP3    H265541   3.972   0.182  15.470 -2.1091  1.5606  0.7094
14684TIP3   OH265542   5.688   2.549  13.595  0.3353  0.4551  0.2908
14684TIP3    H165543   5.608   2.601  13.601  1.5369  2.2676  1.6220
14684TIP3    H265544   5.695   2.526  13.502 -1.3472  0.8257  0.0371
14685TIP3   OH265545   2.010   3.148  14.370  0.1364  0.0005 -0.0694
14685TIP3    H165546   2.040   3.157  14.280 -0.9183 -1.2319 -0.5708
14685TIP3    H265547   1.945   3.218  14.380  1.4587  1.2268  0.3105
14686TIP3   OH265548   5.837   3.212   6.213  0.3135 -0.7294  0.0496
14686TIP3    H165549   5.911   3.159   6.241 -0.5554 -1.3350  1.2750
14686TIP3    H265550   5.760   3.167   6.247 -0.5018  0.9182  0.5201
14687TIP3   OH265551   1.500   0.912   1.501 -0.1822 -0.0767 -0.0649
14687TIP3    H165552   1.479   0.831   1.456 -0.0446  0.3312 -0.8752
14687TIP3    H265553   1.555   0.960   1.440  0.5085  0.2302  0.7721
14688TIP3   OH265554   2.368   5.078  14.548 -0.0272 -0.4082  0.6294
14688TIP3    H165555   2.313   5.091  14.625  0.3548  0.0142  0.8280
14688TIP3    H265556   2.456   5.065  14.583  0.2669  0.4645  0.2394
14689TIP3   OH265557   1.024   5.075   1.964  0.3651  0.0697 -0.4271
14689TIP3    H165558   1.102   5.083   1.909  0.7243 -0.3000  0.0297
14689TIP3    H265559   1.038   5.138   2.035  0.7630 -0.7837  0.2659
14690TIP3   OH265560   3.433   1.696   1.955  0.2403 -0.1793  0.4080
14690TIP3    H165561   3.477   1.615   1.929  1.4570  0.4816  0.2983
14690TIP3    H265562   3.471   1.717   2.040 -1.8203 -0.9528  1.5988
14691TIP3   OH265563   4.271   1.681   3.188  0.4797 -0.1765 -0.1325
14691TIP3    H165564   4.316   1.719   3.113  1.1632 -0.7847 -0.0366
14691TIP3    H265565   4.191   1.733   3.196 -0.3926 -1.0559 -2.2567
14692TIP3   OH265566   0.249   6.759  13.695  0.3046  0.8412 -0.2359
14692TIP3    H165567   0.331   6.711  13.683  1.0410  1.7326  1.0170
14692TIP3    H265568   0.181   6.695  13.676  1.2588 -0.5918  0.9977
14693TIP3   OH265569   3.831   1.444  16.114  0.2281  0.0401 -0.0381
14693TIP3    H165570   3.874   1.389  16.179  1.3445  1.5790  0.5822
14693TIP3    H265571   3.796   1.383  16.049 -1.5795 -1.6203  2.3371
14694TIP3   OH265572   4.346   3.049   3.083  0.0532 -0.3401  0.0046
14694TIP3    H165573   4.282   2.986   3.052  0.5445 -0.2956 -1.1766
14694TIP3    H265574   4.294   3.117   3.126 -0.5342 -1.1792  0.6371
14695TIP3   OH265575   3.904   0.101   4.162  0.8152 -0.2392 -0.7132
14695TIP3    H165576   3.837   0.158   4.124  1.5326  0.5056 -0.8854
14695TIP3    H265577   3.912   0.029   4.099  0.1819 -0.3431 -0.6876
14696TIP3   OH265578   2.452   3.336   5.523  0.0299 -0.3823 -0.2181
14696TIP3    H165579   2.456   3.281   5.601  1.1919 -0.5437 -0.3793
14696TIP3    H265580   2.502   3.414   5.547 -1.6812  0.7106  0.0490
14697TIP3   OH265581   4.044   4.630  16.123  0.0872 -0.6195  0.3281
14697TIP3    H165582   4.087   4.715  16.115  1.6612 -1.4804 -1.0971
14697TIP3    H265583   4.075   4.596  16.207 -0.4647  0.1388  0.8566
14698TIP3   OH265584   4.088   2.107  15.226  0.1354  0.6795  0.0036
14698TIP3    H165585   4.011   2.119  15.281 -0.4465  1.0641 -0.8573
14698TIP3    H265586   4.092   2.012  15.211  0.7029  0.4885  1.2355
14699TIP3   OH265587   3.261   0.637  14.316  0.1793  0.2831 -0.2015
14699TIP3    H165588   3.278   0.682  14.399  0.9621  0.8262 -0.6398
14699TIP3    H265589   3.346   0.602  14.291 -0.0682  0.0740 -0.7457
14700TIP3   OH265590   3.100   0.434   1.718 -0.3649 -0.4132 -0.4583
14700TIP3    H165591   3.028   0.473   1.667 -0.9982 -2.4668 -1.2356
14700TIP3    H265592   3.086   0.340   1.710  2.4533 -0.8844 -0.6315
14701TIP3   OH265593   0.589   6.766  12.091 -0.1310  0.0933 -0.5054
14701TIP3    H165594   0.681   6.772  12.116 -0.4027  1.4668  0.2247
14701TIP3    H265595   0.577   6.833  12.024 -0.0491 -1.7716 -2.5000
14702TIP3   OH265596   3.499   4.464   4.686  0.2559  0.2068  0.2763
14702TIP3    H165597   3.433   4.528   4.660  0.7121  1.0655  1.1447
14702TIP3    H265598   3.474   4.438   4.775 -0.5561 -1.6999 -0.4494
14703TIP3   OH265599   3.707   5.613   5.002  0.1055  0.7540  0.0206
14703TIP3    H165600   3.740   5.531   5.038  1.4595  0.3275 -1.9739
14703TIP3    H265601   3.718   5.677   5.072  0.2689 -0.4959  1.1677
14704TIP3   OH265602   2.003   0.418   0.157  0.2897  0.2244  0.0161
14704TIP3    H165603   1.938   0.349   0.172  0.8806 -0.8673 -2.0453
14704TIP3    H265604   1.951   0.497   0.142 -0.4243  0.0838  1.5506
14705TIP3   OH265605   4.913   2.809   1.933  0.5886  0.0223 -0.0254
14705TIP3    H165606   4.915   2.809   2.029 -1.9666  0.0035  0.0972
14705TIP3    H265607   4.939   2.720   1.909  1.6628  0.1513  0.6129
14706TIP3   OH265608   0.084   6.507   5.028 -0.2676  0.1601  0.3570
14706TIP3    H165609   0.034   6.458   4.963  0.6800 -0.4302  0.0565
14706TIP3    H265610   0.148   6.557   4.978  1.1170 -1.0416  0.8462
14707TIP3   OH265611   5.422   2.193  15.911 -0.6307  0.0184  0.0347
14707TIP3    H165612   5.358   2.244  15.861 -0.3320  0.8477  0.4897
14707TIP3    H265613   5.371   2.119  15.945 -1.0168 -0.1305 -0.8192
14708TIP3   OH265614   0.791   0.708  14.692  0.3529  0.0083  0.2811
14708TIP3    H165615   0.783   0.698  14.787 -0.9506  0.7261  0.2704
14708TIP3    H265616   0.867   0.765  14.680  0.0426  0.5671  0.9417
14709TIP3   OH265617   0.199   5.906  11.777 -0.2214  0.5461  0.2336
14709TIP3    H165618   0.242   5.903  11.691 -2.7594 -2.6565 -1.1169
14709TIP3    H265619   0.122   5.960  11.763 -0.9051 -0.3916  0.3215
14710TIP3   OH265620   0.117   1.013   3.180 -0.2376  0.0835  0.3349
14710TIP3    H165621   0.197   1.035   3.132 -0.1320 -1.4423 -0.2331
14710TIP3    H265622   0.049   1.067   3.140  0.8363  3.1335  2.3084
14711TIP3   OH265623   4.295   3.962  16.600  0.0210  0.1230  0.0238
14711TIP3    H165624   4.285   3.993  16.510  0.2031  1.4200  0.4190
14711TIP3    H265625   4.388   3.973  16.618 -0.2356  1.2149  0.7998
14712TIP3   OH265626   0.792   5.676   1.672  0.3868 -0.8940 -0.0318
14712TIP3    H165627   0.787   5.704   1.764 -0.3451  0.1110 -0.3583
14712TIP3    H265628   0.703   5.687   1.639  0.2779 -2.7644 -0.4592
14713TIP3   OH265629   2.060   0.297   1.701 -0.4061 -0.4350 -0.1244
14713TIP3    H165630   1.994   0.319   1.634 -1.0912 -1.3706  0.2178
14713TIP3    H265631   2.075   0.204   1.689 -0.5179 -0.6113  1.0006
14714TIP3   OH265632   3.903   5.341  12.774 -0.3800 -0.8114 -0.1457
14714TIP3    H165633   3.994   5.358  12.749 -0.4142 -1.0206 -0.4235
14714TIP3    H265634   3.877   5.418  12.823 -0.5801  0.0046 -1.4891
14715TIP3   OH265635   1.578   1.871   0.812 -0.3402  0.7239  0.1840
14715TIP3    H165636   1.597   1.909   0.897  0.1242 -0.6056  0.7021
14715TIP3    H265637   1.586   1.944   0.750  3.2488  0.9790  0.7439
14716TIP3   OH265638   1.572   2.655  11.186  0.1531 -0.4722  0.6826
14716TIP3    H165639   1.605   2.605  11.260 -0.8700  1.2774  2.3905
14716TIP3    H265640   1.526   2.730  11.225  0.5369  1.1331 -1.7125
14717TIP3   OH265641   6.418   2.131   1.532  0.4852 -0.2073  0.3848
14717TIP3    H165642   6.421   2.120   1.627 -0.4889 -0.0310  0.4542
14717TIP3    H265643   6.324   2.134   1.512  0.6835  0.5869 -0.4861
14718TIP3   OH265644   2.432   0.072  14.237  0.4418 -0.0338 -0.4819
14718TIP3    H165645   2.494   0.019  14.187 -0.0841 -2.4283  1.2482
14718TIP3    H265646   2.347   0.053  14.197  0.0688 -1.6633  1.0014
14719TIP3   OH265647   0.675   2.187  15.281  0.1910 -0.4653 -0.2941
14719TIP3    H165648   0.751   2.191  15.339  0.7322  0.2841 -1.0294
14719TIP3    H265649   0.617   2.256  15.313  0.3699 -0.2302 -0.4716
14720TIP3   OH265650   4.165   0.662  16.047 -0.4033  0.0928 -0.6610
14720TIP3    H165651   4.256   0.676  16.024  0.3071 -1.5568  0.8464
14720TIP3    H265652   4.150   0.718  16.123 -0.2582 -0.5192 -0.1697
14721TIP3   OH265653   3.346   0.560   0.622 -0.8071 -0.1917  0.1304
14721TIP3    H165654   3.381   0.588   0.706  0.7357  0.7359 -0.7733
14721TIP3    H265655   3.253   0.583   0.626 -0.2591  2.2798  0.6373
14722TIP3   OH265656   2.746   3.688  17.095  0.1311 -0.4260  0.3088
14722TIP3    H165657   2.691   3.611  17.112  0.7577 -0.4052  2.9859
14722TIP3    H265658   2.703   3.732  17.022 -1.9115 -1.7776  0.5822
14723TIP3   OH265659   3.511   0.134   5.306 -0.4135 -0.3748 -0.2000
14723TIP3    H165660   3.419   0.137   5.335 -0.4815  0.4031 -0.4678
14723TIP3    H265661   3.527   0.041   5.287 -0.8817 -0.6443  0.6641
14724TIP3   OH265662   6.502   3.041  16.599  0.5828 -0.2224 -0.3762
14724TIP3    H165663   6.469   2.987  16.528 -0.1242 -0.8413  0.4193
14724TIP3    H265664   6.432   3.104  16.617  1.2315  0.7202 -1.0168
14725TIP3   OH265665   0.926   0.464   2.524  0.5589 -0.0780 -0.0056
14725TIP3    H165666   1.015   0.440   2.499  0.2841 -0.2506 -0.8443
14725TIP3    H265667   0.884   0.380   2.544  0.2535 -0.1108 -0.7468
14726TIP3   OH265668   1.695   1.361   2.224 -0.0468 -0.4213 -0.2185
14726TIP3    H165669   1.730   1.296   2.163 -0.7519 -0.9503 -0.0756
14726TIP3    H265670   1.689   1.442   2.174 -1.2004 -0.9918 -1.0461
14727TIP3   OH265671   1.296   3.109  11.964  0.4089  0.3895 -0.7880
14727TIP3    H165672   1.261   3.020  11.961  0.5263  0.3494 -0.9635
14727TIP3    H265673   1.358   3.108  12.037 -2.2134  1.2872  1.6420
14728TIP3   OH265674   2.770   6.777   2.146 -0.0110  0.2895 -0.6802
14728TIP3    H165675   2.844   6.779   2.086  0.2061  1.8550 -0.3986
14728TIP3    H265676   2.702   6.727   2.100  0.9640 -0.5645 -1.2211
14729TIP3   OH265677   1.081   4.220   6.181 -0.1214 -0.0028  0.3697
14729TIP3    H165678   1.004   4.191   6.229 -0.6923  0.3354 -0.3333
14729TIP3    H265679   1.117   4.292   6.233  0.8229 -1.3663  1.6902
14730TIP3   OH265680   3.454   3.180  12.019  0.3380 -0.5870 -0.3802
14730TIP3    H165681   3.503   3.207  11.942  0.7720  0.8349  0.3642
14730TIP3    H265682   3.365   3.167  11.988  0.5867 -0.3745 -1.1936
14731TIP3   OH265683   3.232   0.203  14.576  0.3159  0.3514 -0.0747
14731TIP3    H165684   3.256   0.147  14.650  1.5631  0.0244 -0.6974
14731TIP3    H265685   3.314   0.245  14.551 -0.1272  0.5888 -1.1707
14732TIP3   OH265686   4.817   3.185   2.601  0.1086  0.3691  0.0194
14732TIP3    H165687   4.796   3.095   2.575 -0.7591  0.5113  0.1984
14732TIP3    H265688   4.765   3.240   2.543  0.0879  0.7388  0.3824
14733TIP3   OH265689   1.254   2.084   0.671  0.4450 -0.7589 -0.0323
14733TIP3    H165690   1.215   2.117   0.752  0.4062  0.9208 -0.6767
14733TIP3    H265691   1.344   2.118   0.673 -0.0177  0.7371 -1.3906
14734TIP3   OH265692   1.846   4.705   4.472 -0.0243 -0.0201  0.4633
14734TIP3    H165693   1.880   4.675   4.556 -1.1863 -1.4070  0.4788
14734TIP3    H265694   1.758   4.667   4.467 -0.2390  0.6032 -1.0812
14735TIP3   OH265695   0.471   2.992   1.212  0.4999  0.0293 -0.0196
14735TIP3    H165696   0.475   2.896   1.216  0.0950  0.0485  1.6578
14735TIP3    H265697   0.561   3.020   1.196  0.9016 -0.5891  1.1051
14736TIP3   OH265698   2.538   4.254  12.319 -0.0588  0.1012  0.0154
14736TIP3    H165699   2.450   4.261  12.357  0.0392  0.4305  0.1882
14736TIP3    H265700   2.529   4.287  12.230 -0.0828  0.2552  0.0752
14737TIP3   OH265701   4.554   0.519   0.950 -0.2294  0.0373  0.1755
14737TIP3    H165702   4.505   0.600   0.936 -0.2344  0.2394  1.2627
14737TIP3    H265703   4.613   0.540   1.023 -1.3221 -1.4062  1.5313
14738TIP3   OH265704   2.652   1.184   2.998 -0.3115  0.6263 -0.1496
14738TIP3    H165705   2.573   1.238   2.994  1.5532  3.6064  0.6387
14738TIP3    H265706   2.666   1.156   2.908 -2.1819  0.0428 -0.3142
14739TIP3   OH265707   5.096   3.438   0.984 -0.2462  0.1205 -0.5062
14739TIP3    H165708   5.166   3.399   1.037  1.4796  2.3615 -1.0222
14739TIP3    H265709   5.068   3.367   0.926 -0.7610 -1.7944  1.8782
14740TIP3   OH265710   4.838   3.259  14.008 -0.0847  0.0970 -0.1016
14740TIP3    H165711   4.855   3.165  14.018  1.4452  0.3451 -0.1609
14740TIP3    H265712   4.858   3.296  14.094 -1.4252  0.2874  0.1464
14741TIP3   OH265713   6.437   4.746  11.309  0.4370  0.2543 -0.1494
14741TIP3    H165714   6.352   4.791  11.316  0.1410 -0.2739 -0.2834
14741TIP3    H265715   6.482   4.792  11.238  0.0149  0.1488 -0.4904
14742TIP3   OH265716   3.882   1.205  10.967 -0.1810  0.0813 -0.2305
14742TIP3    H165717   3.861   1.143  10.897 -0.5891 -0.1763  0.1145
14742TIP3    H265718   3.974   1.190  10.986 -0.5407 -1.2161  0.6107
14743TIP3   OH265719   5.754   5.264   1.794 -0.0107  0.2405 -0.0237
14743TIP3    H165720   5.817   5.258   1.866 -0.0314  1.9579  0.1968
14743TIP3    H265721   5.807   5.256   1.715  0.4101  0.9322  0.1739
14744TIP3   OH265722   1.728   4.152  15.528  0.0367 -0.2075  0.9505
14744TIP3    H165723   1.739   4.183  15.618  1.7734  3.2015 -0.2403
14744TIP3    H265724   1.665   4.213  15.489  2.4244  1.1241 -1.1380
14745TIP3   OH265725   5.825   4.730  16.893 -0.9145 -0.1427 -0.4695
14745TIP3    H165726   5.851   4.645  16.927 -0.9194  0.3769  0.8822
14745TIP3    H265727   5.747   4.712  16.839 -1.9571 -0.8019  1.1782
14746TIP3   OH265728   6.287   4.754   5.741  0.8374 -0.0279  0.9754
14746TIP3    H165729   6.290   4.659   5.732  0.4391  0.0576 -0.3761
14746TIP3    H265730   6.200   4.773   5.777 -0.1116 -0.0723 -1.1299
14747TIP3   OH265731   4.049   4.076   0.299  0.2537  0.4261 -0.2500
14747TIP3    H165732   4.097   4.028   0.232  0.2071 -0.0927  0.0843
14747TIP3    H265733   3.980   4.016   0.327  0.8529  0.2634  0.9271
14748TIP3   OH265734   0.581   5.944  16.805 -0.3978  0.2943 -0.8743
14748TIP3    H165735   0.551   5.923  16.894  1.0973  0.7370 -0.2339
14748TIP3    H265736   0.507   5.920  16.749 -1.4181  0.1012  0.4887
14749TIP3   OH265737   6.818   6.279   2.631 -0.0794  1.0436 -0.4474
14749TIP3    H165738   6.746   6.320   2.583 -0.4650 -0.4681 -1.2496
14749TIP3    H265739   6.879   6.350   2.649 -1.6158  2.3052 -0.0296
14750TIP3   OH265740   2.774   3.918  16.955 -0.5192 -0.1053 -0.1682
14750TIP3    H165741   2.852   3.883  16.912  1.4984  1.3025  2.0730
14750TIP3    H265742   2.727   3.964  16.885  1.6981  0.6750 -1.2635
14751TIP3   OH265743   4.480   6.513  14.193  0.7197  0.0653  0.1889
14751TIP3    H165744   4.545   6.570  14.152  1.2345 -0.3869  0.3654
14751TIP3    H265745   4.401   6.526  14.140  0.8578  0.8571  0.1622
14752TIP3   OH265746   5.829   1.955  12.159  0.2626 -0.4221  0.5641
14752TIP3    H165747   5.779   1.881  12.193  0.0323  0.8874  3.4043
14752TIP3    H265748   5.919   1.937  12.185  0.4060 -0.3057  0.1488
14753TIP3   OH265749   4.850   4.658   2.773  0.4549 -0.2345 -0.3998
14753TIP3    H165750   4.889   4.718   2.709  0.6679  1.5443  1.2809
14753TIP3    H265751   4.889   4.573   2.754  2.5443  0.7894 -0.9573
14754TIP3   OH265752   5.334   0.119  17.189 -0.2169  0.6209  0.3083
14754TIP3    H165753   5.371   0.180  17.125  0.3873 -1.0211 -0.9729
14754TIP3    H265754   5.358   0.155  17.274  0.7024  1.7963 -0.4249
14755TIP3   OH265755   4.567   4.566  16.412  0.3051  0.2359 -0.8615
14755TIP3    H165756   4.636   4.523  16.462  1.6607  2.8676 -0.3133
14755TIP3    H265757   4.514   4.494  16.377  2.9510 -1.8703 -0.8131
14756TIP3   OH265758   1.901   0.881   1.050  0.1394  0.1965 -0.1724
14756TIP3    H165759   1.839   0.952   1.070 -0.9199 -1.3129  2.3740
14756TIP3    H265760   1.847   0.813   1.010  0.8143  0.0812 -0.9155
14757TIP3   OH265761   6.479   5.559  15.539 -0.7540 -0.1495 -0.3457
14757TIP3    H165762   6.484   5.654  15.524 -0.8337 -0.0430  0.2939
14757TIP3    H265763   6.512   5.547  15.628 -2.1093 -0.5605  0.1262
14758TIP3   OH265764   5.348   3.943   3.329  0.4097 -0.0237 -0.6781
14758TIP3    H165765   5.257   3.916   3.322  0.0192  1.1149 -0.2720
14758TIP3    H265766   5.379   3.907   3.412  0.3900 -0.5694 -0.9074
14759TIP3   OH265767   4.264   3.702   5.104 -0.3259  0.2723 -0.6391
14759TIP3    H165768   4.255   3.789   5.065 -0.7453  0.9350  0.8579
14759TIP3    H265769   4.218   3.708   5.188  0.8253 -0.9853  0.1308
14760TIP3   OH265770   3.750   1.089  14.053 -0.7690 -0.7345  0.2491
14760TIP3    H165771   3.783   1.066  14.140  0.6342  0.2222  0.0072
14760TIP3    H265772   3.824   1.133  14.011 -2.0402  0.4896 -0.7646
14761TIP3   OH265773   3.665   4.284  11.457 -0.4420 -0.4082 -0.2895
14761TIP3    H165774   3.759   4.286  11.441 -0.3349 -0.3355  0.2991
14761TIP3    H265775   3.629   4.350  11.398 -0.1671 -0.6778 -0.7643
14762TIP3   OH265776   4.129   3.639   0.858  0.0211  0.3727  0.3899
14762TIP3    H165777   4.162   3.683   0.779  0.6868  0.5174  0.7417
14762TIP3    H265778   4.149   3.547   0.844 -1.0062  0.2210 -0.1666
14763TIP3   OH265779   2.755   0.933   2.229  0.4296 -0.8192 -0.3270
14763TIP3    H165780   2.726   0.998   2.293  0.9294 -0.0075 -0.9002
14763TIP3    H265781   2.810   0.873   2.279  0.1430 -0.6710  0.1682
14764TIP3   OH265782   4.730   3.164   2.906 -0.2783 -0.4986 -0.7537
14764TIP3    H165783   4.718   3.216   2.827 -2.2319  0.9576  0.4048
14764TIP3    H265784   4.793   3.213   2.958  0.1261 -0.8449 -0.9170
14765TIP3   OH265785   3.731   5.957  13.231 -0.3127  1.0463  0.5225
14765TIP3    H165786   3.804   5.906  13.266  2.8242  3.3781 -2.0243
14765TIP3    H265787   3.687   5.992  13.308  2.0524  0.5582  2.1979
14766TIP3   OH265788   6.568   3.567  15.672 -0.0807  0.3356  0.1848
14766TIP3    H165789   6.570   3.483  15.627  0.7622  0.6667 -0.4396
14766TIP3    H265790   6.640   3.562  15.735 -1.0316  0.0102  1.2708
14767TIP3   OH265791   6.512   4.720  14.487 -0.0929 -0.3962  0.1748
14767TIP3    H165792   6.434   4.776  14.480  1.4530  1.6778 -2.1569
14767TIP3    H265793   6.501   4.674  14.570 -2.3650  2.0721  1.4048
14768TIP3   OH265794   1.131   6.026  12.296  0.6447  0.7711  0.4444
14768TIP3    H165795   1.090   6.088  12.356  1.2337  2.5222 -0.8717
14768TIP3    H265796   1.151   6.078  12.218  2.3229 -0.7848 -0.2323
14769TIP3   OH265797   2.198   1.618  15.314  0.3281  0.2309 -0.3142
14769TIP3    H165798   2.258   1.621  15.239 -1.3215 -1.7166 -1.8313
14769TIP3    H265799   2.182   1.525  15.328  0.4200  0.5580  2.3977
14770TIP3   OH265800   1.619   1.595  13.098 -0.0427  0.0051 -0.8336
14770TIP3    H165801   1.570   1.656  13.154 -0.2647  0.8645 -1.9214
14770TIP3    H265802   1.628   1.516  13.151 -0.6302  0.6287  0.2437
14771TIP3   OH265803   1.143   4.650  14.461 -0.0021  0.2573  0.0408
14771TIP3    H165804   1.216   4.634  14.521 -0.8802  1.3436  1.4657
14771TIP3    H265805   1.121   4.563  14.428  1.2012 -0.2313  0.4588
14772TIP3   OH265806   5.578   0.727   3.261 -0.8004  0.0544  0.3462
14772TIP3    H165807   5.594   0.793   3.194 -3.2663 -1.0799 -1.5437
14772TIP3    H265808   5.602   0.644   3.219 -1.6216 -0.6158  1.1353
14773TIP3   OH265809   0.588   0.446  11.194 -0.4009  0.6785  0.2233
14773TIP3    H165810   0.598   0.378  11.128 -0.2135  0.7691  0.1573
14773TIP3    H265811   0.677   0.461  11.227 -0.6636 -0.3598  1.5012
14774TIP3   OH265812   0.495   0.197  17.068  0.4229  0.0834  0.2952
14774TIP3    H165813   0.543   0.144  17.132 -0.4221 -0.2227  0.6956
14774TIP3    H265814   0.530   0.285  17.078  1.0130 -0.1631  0.4569
14775TIP3   OH265815   2.116   5.113   2.915 -0.1040 -0.4215  0.0578
14775TIP3    H165816   2.148   5.033   2.957  2.3327  0.5997  0.3026
14775TIP3    H265817   2.194   5.155   2.882 -1.2250  2.2292  0.5678
14776TIP3   OH265818   1.300   6.067   1.303 -0.6774  0.0556 -0.0771
14776TIP3    H165819   1.310   6.137   1.239  0.2431  0.5790  0.6082
14776TIP3    H265820   1.215   6.028   1.283 -2.0257  2.4735  0.6056
14777TIP3   OH265821   0.459   2.759  12.206  0.7176  0.4148  0.0765
14777TIP3    H165822   0.504   2.841  12.184  2.0383 -0.3262 -0.0948
14777TIP3    H265823   0.366   2.779  12.198  0.9215  2.4217  1.8307
14778TIP3   OH265824   3.829   5.960   2.916  0.1451 -0.5450  0.4618
14778TIP3    H165825   3.775   5.995   2.846  2.4066 -2.0001 -2.2616
14778TIP3    H265826   3.767   5.935   2.985 -2.1527  1.5023 -0.7133
14779TIP3   OH265827   6.746   3.243  11.078  0.4618  0.4358 -0.4852
14779TIP3    H165828   6.676   3.184  11.105  1.4984 -0.1515  1.0104
14779TIP3    H265829   6.789   3.198  11.005  1.1742 -0.6375  0.5691
14780TIP3   OH265830   3.961   1.298  16.349 -0.2077  0.0371 -0.0721
14780TIP3    H165831   3.914   1.216  16.334 -2.2432  1.1656 -0.2011
14780TIP3    H265832   3.953   1.313  16.443 -0.6003  0.5054 -0.1769
14781TIP3   OH265833   1.368   1.388   2.364 -0.1197 -0.4084  0.0642
14781TIP3    H165834   1.459   1.378   2.335  0.1193  0.0532  0.6235
14781TIP3    H265835   1.337   1.298   2.376  0.4145 -0.5652  0.3184
14782TIP3   OH265836   3.461   3.677  12.621  0.2426 -0.2229  0.5725
14782TIP3    H165837   3.448   3.583  12.610  2.8060 -0.6134  0.2451
14782TIP3    H265838   3.541   3.696  12.572 -1.7110  2.7002 -1.8406
14783TIP3   OH265839   4.366   0.833  16.879  0.6096 -0.0291 -0.5325
14783TIP3    H165840   4.445   0.886  16.873  1.4557 -1.1089  0.4125
14783TIP3    H265841   4.328   0.856  16.964 -0.3734  0.8132 -1.1710
14784TIP3   OH265842   0.405   5.683   4.212 -0.1482 -0.0493 -0.6903
14784TIP3    H165843   0.348   5.675   4.289  0.0349 -1.4357 -0.6774
14784TIP3    H265844   0.482   5.630   4.234  1.6642  2.4981 -0.2996
14785TIP3   OH265845   3.199   3.759  12.859 -0.6532  0.4495  0.6014
14785TIP3    H165846   3.177   3.712  12.778  0.7627 -0.7547  0.8825
14785TIP3    H265847   3.149   3.713  12.927 -1.4281  1.1298  0.5113
14786TIP3   OH265848   3.970   2.099   5.384 -0.1699 -0.2504  0.4202
14786TIP3    H165849   4.061   2.071   5.378 -0.2676 -0.2952 -1.3338
14786TIP3    H265850   3.942   2.109   5.294 -0.7544  3.5661  0.8350
14787TIP3   OH265851   4.409   1.279   2.807 -0.0261 -0.4328 -0.1600
14787TIP3    H165852   4.324   1.269   2.765 -0.9651 -0.5770  1.6906
14787TIP3    H265853   4.441   1.364   2.777 -2.0073  0.8232  1.0691
14788TIP3   OH265854   4.085   4.905  17.112 -0.0137  0.0131 -0.3230
14788TIP3    H165855   4.031   4.855  17.051 -1.4523  1.4157 -0.2584
14788TIP3    H265856   4.140   4.959  17.055  1.5991 -1.6032 -0.3965
14789TIP3   OH265857   4.156   1.349  13.115  0.1490  0.3601 -0.4894
14789TIP3    H165858   4.104   1.349  13.196 -0.3264 -0.6025 -0.7765
14789TIP3    H265859   4.127   1.270  13.069  0.5581  0.8003 -1.5112
14790TIP3   OH265860   4.282   0.156   4.732 -0.6547 -0.0720 -0.0676
14790TIP3    H165861   4.188   0.169   4.736 -0.6801  0.3467 -1.7165
14790TIP3    H265862   4.314   0.225   4.674  0.6493 -0.3036  0.3450
14791TIP3   OH265863   2.814   0.789  13.232  0.3163  0.4475  0.3829
14791TIP3    H165864   2.787   0.818  13.319  1.6491  2.2609  0.2678
14791TIP3    H265865   2.888   0.846  13.210  1.3892 -1.3738 -1.0587
14792TIP3   OH265866   5.357   0.120   5.217 -0.0574 -0.3100 -0.2051
14792TIP3    H165867   5.305   0.189   5.177  1.0306 -0.6199 -2.2651
14792TIP3    H265868   5.295   0.047   5.229 -1.4794  1.2069  2.9516
14793TIP3   OH265869   6.146   6.635   4.170 -0.0284 -0.0638 -0.3588
14793TIP3    H165870   6.148   6.694   4.244 -0.0654 -0.5847  0.0662
14793TIP3    H265871   6.082   6.674   4.110  1.0756  1.1263 -0.7923
14794TIP3   OH265872   5.709   4.609  14.960  0.2116  0.2549  0.3423
14794TIP3    H165873   5.631   4.609  14.905  1.1257 -0.5592 -1.0224
14794TIP3    H265874   5.678   4.638  15.046 -1.6265 -0.2563 -0.0980
14795TIP3   OH265875   5.783   6.346  14.176 -0.1318  0.3286 -0.2838
14795TIP3    H165876   5.847   6.286  14.214  0.7860  1.2405 -0.3171
14795TIP3    H265877   5.825   6.377  14.096 -1.2711 -0.1898 -1.1010
14796TIP3   OH265878   0.903   6.736   0.241 -0.6614 -0.1877  0.0531
14796TIP3    H165879   0.825   6.788   0.219 -1.3819 -1.2367  0.0527
14796TIP3    H265880   0.892   6.654   0.192  0.5354 -0.2846 -0.0769
14797TIP3   OH265881   0.264   6.787  14.381 -0.3028  0.6707 -0.2715
14797TIP3    H165882   0.180   6.750  14.408 -0.2903  0.8966  0.0861
14797TIP3    H265883   0.329   6.721  14.406 -0.2295  1.1329  0.8232
14798TIP3   OH265884   5.128   0.670   0.747 -0.2130  0.3015 -0.0919
14798TIP3    H165885   5.211   0.662   0.700 -0.1674 -1.2881  0.1856
14798TIP3    H265886   5.061   0.652   0.681 -0.2651  0.3461 -0.0507
14799TIP3   OH265887   1.598   3.415   1.156  0.2387 -0.4139  0.5963
14799TIP3    H165888   1.508   3.425   1.188  0.0274 -1.1244  0.2512
14799TIP3    H265889   1.653   3.441   1.230 -0.2359  1.6501  0.2830
14800TIP3   OH265890   3.574   4.022   4.256  0.3224 -0.0840  0.3269
14800TIP3    H165891   3.592   4.097   4.200  1.3651  0.3574  1.2128
14800TIP3    H265892   3.660   3.991   4.283 -0.0714 -1.9021 -0.3852
14801TIP3   OH265893   0.418   0.265   2.126  0.2224 -0.0368 -0.3837
14801TIP3    H165894   0.387   0.339   2.179 -1.1010 -1.1931  0.5205
14801TIP3    H265895   0.341   0.209   2.116 -0.2413  1.0220 -5.3178
14802TIP3   OH265896   2.084   4.912   4.940 -0.1779  0.5310 -0.1798
14802TIP3    H165897   2.138   4.944   5.013  1.1564 -0.7660 -0.5395
14802TIP3    H265898   2.093   4.817   4.944  0.0465  0.4339 -2.1186
14803TIP3   OH265899   4.761   0.197  10.883 -0.1060 -0.1686  0.4222
14803TIP3    H165900   4.809   0.200  10.801 -0.2523 -1.8165  0.2392
14803TIP3    H265901   4.692   0.262  10.873 -0.1028 -0.3282 -0.7562
14804TIP3   OH265902   4.749   3.623  12.223  0.0537  0.2031 -0.1084
14804TIP3    H165903   4.764   3.551  12.284 -0.0827 -0.0997 -0.4275
14804TIP3    H265904   4.826   3.679  12.234  0.8294 -0.6756 -0.7989
14805TIP3   OH265905   3.318   5.460  11.920 -0.5185  0.3019  0.5458
14805TIP3    H165906   3.235   5.426  11.952 -0.7137  0.4444  0.1946
14805TIP3    H265907   3.384   5.408  11.965 -0.8100 -1.0003 -0.4679
14806TIP3   OH265908   2.841   2.536   1.977 -0.0283 -0.1097 -0.0612
14806TIP3    H165909   2.860   2.596   2.049  1.4847 -0.6899  0.0627
14806TIP3    H265910   2.889   2.456   1.999 -2.7211 -1.7675  0.2328
14807TIP3   OH265911   5.895   4.258   5.756 -0.5568 -0.8475  0.0401
14807TIP3    H165912   5.929   4.276   5.668  0.0095 -2.4439 -0.0978
14807TIP3    H265913   5.800   4.254   5.744 -0.4082 -2.7961 -0.9011
14808TIP3   OH265914   1.759   6.052   2.691  0.2292 -0.1790 -0.1042
14808TIP3    H165915   1.818   6.026   2.621 -0.5489 -0.4057 -0.6897
14808TIP3    H265916   1.673   6.058   2.649 -0.1714  0.1047  0.7357
14809TIP3   OH265917   6.329   2.739  16.950  0.0558 -0.3044  0.1146
14809TIP3    H165918   6.255   2.688  16.916 -0.1206  0.6313 -0.9258
14809TIP3    H265919   6.298   2.829  16.950  0.9826  0.0206  0.2834
14810TIP3   OH265920   0.508   2.323   5.737  0.7574  0.3194 -0.5792
14810TIP3    H165921   0.520   2.363   5.823 -0.4217 -1.0809  0.2921
14810TIP3    H265922   0.468   2.391   5.683  0.7940  0.9781  0.2158
14811TIP3   OH265923   0.130   4.212  12.120 -0.1960  0.1763  0.0692
14811TIP3    H165924   0.176   4.238  12.200 -2.7038 -1.0805  2.0621
14811TIP3    H265925   0.200   4.179  12.062  1.6754  0.8859  1.8065
14812TIP3   OH265926   2.493   3.717   2.691 -0.0044 -0.6656 -0.0151
14812TIP3    H165927   2.484   3.709   2.786 -1.5587 -0.0838 -0.0701
14812TIP3    H265928   2.451   3.639   2.656  0.5768 -0.8860 -0.2330
14813TIP3   OH265929   4.675   3.972   0.332 -0.0910 -0.6142 -0.1466
14813TIP3    H165930   4.735   3.991   0.260  1.5146  0.9454  1.4914
14813TIP3    H265931   4.644   4.059   0.360 -2.2108 -1.3214 -0.1886
14814TIP3   OH265932   0.903   1.059   2.609 -0.0467  0.2111 -0.3060
14814TIP3    H165933   0.921   1.070   2.702  0.1538  1.8034 -0.5077
14814TIP3    H265934   0.964   0.991   2.580 -0.2038 -0.3892  0.7378
14815TIP3   OH265935   4.066   0.823  15.600  0.5625 -0.1776  0.6664
14815TIP3    H165936   3.994   0.871  15.641 -0.3816 -0.7890 -0.2235
14815TIP3    H265937   4.093   0.759  15.667  1.5717  1.2733  1.7130
14816TIP3   OH265938   1.958   0.829  12.332 -0.2674  0.3522  0.2237
14816TIP3    H165939   1.889   0.764  12.346 -1.1336  1.0133 -0.8232
14816TIP3    H265940   1.926   0.907  12.376 -0.4514  0.8255 -0.7368
14817TIP3   OH265941   1.632   4.145  12.175  0.1764 -0.0391  0.1240
14817TIP3    H165942   1.554   4.148  12.120  0.0205  0.2789  0.3605
14817TIP3    H265943   1.687   4.217  12.143 -0.4331  0.9091  1.1446
14818TIP3   OH265944   3.482   3.081   2.709 -0.2948  0.4931 -0.2596
14818TIP3    H165945   3.482   3.023   2.785  2.2224  0.4671 -0.1963
14818TIP3    H265946   3.407   3.139   2.723 -2.2576 -1.9770  0.2108
14819TIP3   OH265947   4.428   0.067  16.568  0.0716  0.3425 -0.0445
14819TIP3    H165948   4.337   0.094  16.583  0.7494  2.3038  0.8683
14819TIP3    H265949   4.436   0.061  16.473 -0.9073  0.5216 -0.1485
14820TIP3   OH265950   1.485   4.516   1.671  0.3121  0.2640  0.2610
14820TIP3    H165951   1.459   4.579   1.738 -0.2671  3.2237 -2.4885
14820TIP3    H265952   1.581   4.518   1.672  0.3113  0.2218  1.0150
14821TIP3   OH265953   6.202   3.202  15.315  0.3543 -0.8401 -0.5522
14821TIP3    H165954   6.275   3.264  15.323  0.1980 -0.7971  0.7473
14821TIP3    H265955   6.244   3.118  15.299  0.7331 -0.8681  0.4767
14822TIP3   OH265956   5.620   6.410   0.141  0.6438 -0.3301  0.0694
14822TIP3    H165957   5.577   6.338   0.094  1.7988 -0.4689 -0.8151
14822TIP3    H265958   5.653   6.467   0.072  1.4321  0.0399  0.7413
14823TIP3   OH265959   6.150   0.006   2.654 -0.1463  0.5506  0.2738
14823TIP3    H165960   6.222  -0.041   2.696  0.5892  0.6238 -0.8540
14823TIP3    H265961   6.153   0.094   2.693 -1.9785 -0.4386  2.9217
14824TIP3   OH265962   5.866   6.809  10.831 -0.0198  0.1134 -1.0741
14824TIP3    H165963   5.785   6.792  10.781 -0.0559  0.5806 -1.1873
14824TIP3    H265964   5.865   6.904  10.845  0.3502  0.0775 -0.7944
14825TIP3   OH265965   6.563   4.054   0.784  0.0985  0.6364 -0.6710
14825TIP3    H165966   6.509   4.069   0.707  0.4785 -0.8156 -1.2442
14825TIP3    H265967   6.532   3.970   0.820  0.8760  0.5938 -0.0673
14826TIP3   OH265968   6.256   3.452   1.277 -0.2226 -0.4630 -0.3379
14826TIP3    H165969   6.292   3.365   1.264  0.5849 -0.4961  1.7243
14826TIP3    H265970   6.162   3.437   1.290  0.0724 -1.2027  1.1886
14827TIP3   OH265971   4.297   1.935  12.466  0.3101 -0.0129  0.3935
14827TIP3    H165972   4.366   1.969  12.410  0.1094 -0.1780  0.0409
14827TIP3    H265973   4.233   1.896  12.405  0.4082 -0.7881  0.7691
14828TIP3   OH265974   4.564   0.270   2.971 -0.0821 -0.7637 -0.7142
14828TIP3    H165975   4.588   0.224   2.891  1.6644 -1.7247  0.2755
14828TIP3    H265976   4.520   0.204   3.025  0.2547 -0.6046 -0.2343
14829TIP3   OH265977   3.218   2.882   3.996  0.7450  0.0603 -0.2218
14829TIP3    H165978   3.139   2.894   4.048  0.7269 -0.5495 -0.1043
14829TIP3    H265979   3.267   2.963   4.007  1.2847 -0.4886  1.6735
14830TIP3   OH265980   1.668   5.540  11.303 -0.2096 -0.3118 -0.3220
14830TIP3    H165981   1.750   5.514  11.260  0.1784 -2.2449  1.4325
14830TIP3    H265982   1.626   5.458  11.327 -2.7752  0.6288 -1.2586
14831TIP3   OH265983   2.513   5.228   2.664  0.2287  0.1379 -0.0572
14831TIP3    H165984   2.573   5.178   2.609 -1.4927 -0.4589 -1.5295
14831TIP3    H265985   2.432   5.177   2.663 -1.4930  2.6843 -1.2757
14832TIP3   OH265986   0.913   6.209  16.483 -0.1167 -0.0920 -0.1527
14832TIP3    H165987   0.833   6.262  16.475 -0.1345  0.2282  1.7203
14832TIP3    H265988   0.894   6.149  16.555  1.2196 -0.2023  0.1289
14833TIP3   OH265989   5.860   5.883  12.515 -0.2815 -0.0381 -0.9311
14833TIP3    H165990   5.790   5.947  12.525  0.8425  1.3716 -1.7417
14833TIP3    H265991   5.839   5.837  12.434 -1.1424 -0.8012 -0.2983
14834TIP3   OH265992   2.447   1.186  11.669  0.8220 -0.6681  0.2521
14834TIP3    H165993   2.420   1.225  11.586 -0.3055 -0.4596  0.7003
14834TIP3    H265994   2.491   1.257  11.716 -0.4357 -0.1508  0.6955
14835TIP3   OH265995   5.942   4.904  10.726  0.3971 -0.0544 -0.0342
14835TIP3    H165996   5.899   4.857  10.798  1.0812 -1.0323 -0.2470
14835TIP3    H265997   5.969   4.987  10.765  1.8568 -1.0590  1.2245
14836TIP3   OH265998   2.822   4.875   6.397  0.0149  0.0886  0.1656
14836TIP3    H165999   2.809   4.812   6.468 -1.5156 -2.3573 -2.0796
14836TIP3    H266000   2.776   4.836   6.323 -0.8192  3.7975 -1.4851
14837TIP3   OH266001   6.073   5.921   2.786 -0.0834  0.6514 -0.6473
14837TIP3    H166002   6.167   5.936   2.801  0.4878 -1.6015 -1.5553
14837TIP3    H266003   6.041   5.883   2.867  0.1495  0.0862 -0.8111
14838TIP3   OH266004   3.283   2.066   1.803 -0.5010  0.1396  0.0336
14838TIP3    H166005   3.217   2.006   1.769  0.7305 -1.1644 -0.1545
14838TIP3    H266006   3.307   2.121   1.729  1.9043 -2.4421 -1.3143
14839TIP3   OH266007   5.853   0.153  13.484 -0.6033  0.0363  0.1891
14839TIP3    H166008   5.794   0.113  13.548 -0.5408 -0.9023 -0.3278
14839TIP3    H266009   5.886   0.232  13.528  0.0985 -1.0365  1.6642
14840TIP3   OH266010   1.109   3.610   3.486 -0.5622 -0.2869  0.9595
14840TIP3    H166011   1.152   3.688   3.521 -1.4869  0.2410  0.9645
14840TIP3    H266012   1.129   3.541   3.549  1.5091 -0.4507  0.2068
14841TIP3   OH266013   0.477   1.162   1.631 -0.0580  0.2121  0.2395
14841TIP3    H166014   0.526   1.210   1.698  2.9901  0.5449 -2.0222
14841TIP3    H266015   0.442   1.229   1.574 -2.4491 -0.0807  1.2549
14842TIP3   OH266016   0.309   6.181  11.638 -0.0369  0.1715 -0.2929
14842TIP3    H166017   0.314   6.197  11.732 -0.4947  1.5383 -0.4855
14842TIP3    H266018   0.229   6.128  11.628 -0.2546  0.4263  0.0411
14843TIP3   OH266019   3.458   2.961   0.264  0.0672 -0.0635 -0.4965
14843TIP3    H166020   3.481   2.982   0.173  0.2569 -1.1449 -0.7153
14843TIP3    H266021   3.469   2.866   0.269  1.4518  0.1460  1.0503
14844TIP3   OH266022   2.061   6.409  15.866  0.2709 -0.6795 -0.1126
14844TIP3    H166023   1.985   6.433  15.918 -0.0712 -0.1672 -0.8371
14844TIP3    H266024   2.119   6.485  15.872  0.5826 -0.9324  0.1553
14845TIP3   OH266025   1.253   3.058   5.435 -0.7528 -0.0814 -0.4401
14845TIP3    H166026   1.267   3.073   5.528 -1.8782 -1.3331 -0.0427
14845TIP3    H266027   1.224   3.143   5.401  1.4349  0.9026 -0.0773
14846TIP3   OH266028   0.107   1.373   4.025  0.0888  0.1090 -0.3528
14846TIP3    H166029   0.053   1.410   3.955 -1.1602 -0.4003  0.3027
14846TIP3    H266030   0.069   1.286   4.040 -0.1321  0.4926  1.4449
14847TIP3   OH266031   1.431   5.305   1.969 -0.0512  0.0291 -0.4479
14847TIP3    H166032   1.502   5.316   2.032 -0.7673 -1.7177  0.7386
14847TIP3    H266033   1.358   5.354   2.008 -0.3983 -0.7838 -0.0512
14848TIP3   OH266034   6.488   0.692   2.371 -0.2706 -0.5708 -0.0816
14848TIP3    H166035   6.511   0.610   2.414 -1.5570 -2.1243 -2.1581
14848TIP3    H266036   6.565   0.748   2.383  0.9235 -2.3024  0.8092
14849TIP3   OH266037   5.743   3.249  14.614  0.4132  0.0528  0.2357
14849TIP3    H166038   5.722   3.339  14.640  0.7193  0.0941  0.3481
14849TIP3    H266039   5.682   3.195  14.665  1.3543  0.1026  1.4654
14850TIP3   OH266040   2.906   0.070   6.551 -0.1840  0.2791 -0.1116
14850TIP3    H166041   2.990   0.096   6.513 -0.2137  0.0482 -0.3393
14850TIP3    H266042   2.927  -0.005   6.607 -0.4201 -0.5910 -1.1557
14851TIP3   OH266043   1.757   3.174   3.739 -0.3042 -0.1965 -0.8503
14851TIP3    H166044   1.833   3.223   3.771 -1.1413 -0.5928  2.0771
14851TIP3    H266045   1.768   3.086   3.776 -1.8901 -0.4078 -0.8098
14852TIP3   OH266046   6.783   1.368   4.584 -0.0164  0.2021  0.9600
14852TIP3    H166047   6.838   1.342   4.510  0.7023 -1.4882  2.0475
14852TIP3    H266048   6.784   1.293   4.643  0.6439  1.9883  3.4025
14853TIP3   OH266049   5.564   1.646   4.487  0.3357  1.1160 -0.3159
14853TIP3    H166050   5.606   1.681   4.409  3.3489  0.8451  1.0703
14853TIP3    H266051   5.526   1.723   4.530 -0.4953  1.3959 -1.4793
14854TIP3   OH266052   5.069   6.014   6.185  0.6248  0.4544  0.0620
14854TIP3    H166053   5.104   5.932   6.151 -0.3316 -0.6577  1.6299
14854TIP3    H266054   4.975   6.011   6.165  0.2144  0.2092  1.8526
14855TIP3   OH266055   4.240   4.560   1.103 -0.5550  0.1712 -0.1457
14855TIP3    H166056   4.163   4.539   1.050  0.3324 -3.2017 -0.3368
14855TIP3    H266057   4.234   4.502   1.179  0.8183  1.2524  0.8465
14856TIP3   OH266058   4.757   5.655   1.849 -0.0285  0.2587  0.9576
14856TIP3    H166059   4.676   5.706   1.857  0.4520  1.8319 -2.2992
14856TIP3    H266060   4.826   5.721   1.845  1.3050 -0.9940  2.2562
14857TIP3   OH266061   1.263   1.902   3.315 -0.1821 -0.3377  0.0730
14857TIP3    H166062   1.337   1.960   3.297  0.8846 -1.6561  0.0832
14857TIP3    H266063   1.240   1.919   3.406 -0.1056  0.2996 -0.0223
14858TIP3   OH266064   5.915   3.830   1.360  0.4076 -0.1856 -0.2148
14858TIP3    H166065   5.929   3.873   1.276  0.2416 -1.1986 -0.7769
14858TIP3    H266066   5.888   3.901   1.419  1.2537  0.6565 -0.8101
14859TIP3   OH266067   0.243   3.272   2.604  0.2744 -0.1519  0.0281
14859TIP3    H166068   0.197   3.190   2.623  0.0819 -0.2584 -0.8735
14859TIP3    H266069   0.187   3.318   2.541  0.5708  0.5006  0.2258
14860TIP3   OH266070   4.199   0.381  16.965  0.0032 -0.6141  0.4795
14860TIP3    H166071   4.248   0.355  16.887  0.8580  0.5289  0.6126
14860TIP3    H266072   4.138   0.309  16.980  1.6015 -2.0691  0.2752
14861TIP3   OH266073   1.292   2.601   5.122  0.1294 -0.2376  0.5204
14861TIP3    H166074   1.316   2.692   5.138 -0.0910 -0.5010  2.7069
14861TIP3    H266075   1.348   2.573   5.050  0.9020  1.3396  0.4769
14862TIP3   OH266076   1.140   2.837   3.927  0.5012 -0.3659  0.4650
14862TIP3    H166077   1.220   2.837   3.874 -0.0456  1.7882 -0.4459
14862TIP3    H266078   1.072   2.870   3.869 -0.8362 -1.0275  1.5846
14863TIP3   OH266079   5.912   4.357  13.965 -0.3336  0.6554  0.1807
14863TIP3    H166080   5.831   4.407  13.968  0.0047  1.4904 -2.2736
14863TIP3    H266081   5.885   4.268  13.943 -0.7535  0.2268  2.2413
14864TIP3   OH266082   5.855   3.531  15.775  0.3301  0.1017  0.1192
14864TIP3    H166083   5.764   3.524  15.746  0.0796  0.0116  0.9043
14864TIP3    H266084   5.906   3.524  15.695 -0.3151 -0.8249 -0.2341
14865TIP3   OH266085   2.292   5.337  11.140 -0.7008 -0.1443 -0.4449
14865TIP3    H166086   2.357   5.329  11.070  0.5712  2.2095  0.3675
14865TIP3    H266087   2.216   5.377  11.097  1.0635  4.0465 -0.1503
14866TIP3   OH266088   0.271   4.796  14.357  0.2523 -1.1841  0.2340
14866TIP3    H166089   0.219   4.850  14.297 -0.7661 -1.7806  0.5440
14866TIP3    H266090   0.353   4.780  14.311 -0.5408 -1.7146 -1.0476
14867TIP3   OH266091   3.139   0.926   4.025 -0.2156 -0.4191 -0.1266
14867TIP3    H166092   3.198   0.981   3.975  2.3347 -2.3202  0.6000
14867TIP3    H266093   3.096   0.871   3.960 -0.2983  0.1661 -0.5679
14868TIP3   OH266094   0.904   3.918  17.149 -0.5404  0.0603  0.1481
14868TIP3    H166095   0.816   3.954  17.167 -0.3166  0.2570  0.8713
14868TIP3    H266096   0.936   3.889  17.234  0.2559  0.3411 -0.0454
14869TIP3   OH266097   3.887   5.391   2.214  0.1287 -0.0727 -0.3233
14869TIP3    H166098   3.942   5.377   2.137  1.4421  0.3072  0.5158
14869TIP3    H266099   3.852   5.479   2.203  1.0035  0.3092 -0.0688
14870TIP3   OH266100   2.510   1.418   4.514 -0.0485  0.3788  0.2312
14870TIP3    H166101   2.605   1.427   4.517  0.0139  0.2716 -0.9217
14870TIP3    H266102   2.490   1.404   4.421 -1.1229 -0.3129  0.5461
14871TIP3   OH266103   1.706   0.292   2.156 -0.3035  0.0821 -0.9162
14871TIP3    H166104   1.714   0.253   2.243 -0.2747  0.2726 -0.8320
14871TIP3    H266105   1.685   0.384   2.173 -0.3156  0.1154 -1.1103
14872TIP3   OH266106   6.488   1.381   2.747 -0.0710 -0.0950 -0.6036
14872TIP3    H166107   6.550   1.430   2.801 -0.1875  1.3800 -1.7358
14872TIP3    H266108   6.532   1.371   2.662 -0.4052 -1.2331 -0.6657
14873TIP3   OH266109   5.635   5.299  13.464  0.7258  0.2336  0.0797
14873TIP3    H166110   5.549   5.333  13.440  1.7255  1.3033 -2.3570
14873TIP3    H266111   5.662   5.350  13.540 -1.8191 -1.9739  2.6867
14874TIP3   OH266112   2.991   3.451   1.658 -0.2262 -0.4477  0.5647
14874TIP3    H166113   3.046   3.463   1.580 -1.0318 -1.1861 -0.1318
14874TIP3    H266114   2.961   3.540   1.680  1.0016 -0.0773  0.7873
14875TIP3   OH266115   6.613   0.732   4.046 -0.1509  0.0035  0.1900
14875TIP3    H166116   6.707   0.714   4.038 -0.0589  0.5995 -0.1401
14875TIP3    H266117   6.608   0.826   4.065 -0.6439 -0.1942  1.1272
14876TIP3   OH266118   4.224   1.549  12.835  0.0699 -0.0647  0.1585
14876TIP3    H166119   4.248   1.626  12.887 -1.6852  0.6700 -0.0586
14876TIP3    H266120   4.269   1.476  12.877  3.3609  1.2654 -0.7156
14877TIP3   OH266121   3.019   0.459  14.491 -0.9030  0.2672  0.5128
14877TIP3    H166122   3.076   0.484  14.564 -1.7913  0.6054  1.1067
14877TIP3    H266123   3.065   0.488  14.413  0.2527 -0.4473  0.9089
14878TIP3   OH266124   4.214   2.053  16.966  0.6656  0.0993  0.3803
14878TIP3    H166125   4.307   2.034  16.972  0.6532 -1.1026 -2.0554
14878TIP3    H266126   4.171   1.975  17.002  0.6282 -0.3749 -0.6577
14879TIP3   OH266127   2.623   1.313  13.354 -1.3836 -0.0732  0.0799
14879TIP3    H166128   2.700   1.370  13.362  1.0511 -3.0492  0.0777
14879TIP3    H266129   2.630   1.277  13.265 -2.6351 -0.6001  0.1862
14880TIP3   OH266130   4.323   1.777  14.120 -0.0835 -0.5898 -0.3339
14880TIP3    H166131   4.358   1.843  14.180  0.0337  0.0308 -1.0807
14880TIP3    H266132   4.246   1.742  14.166  0.0738 -0.2153  0.2279
14881TIP3   OH266133   4.643   3.041  13.772 -0.4124  0.5999  0.1311
14881TIP3    H166134   4.713   3.062  13.833  2.1584  0.2024 -2.4521
14881TIP3    H266135   4.639   3.117  13.713  1.4651 -1.3637 -2.7652
14882TIP3   OH266136   5.943   2.074   4.958 -0.5121  0.6149 -0.6305
14882TIP3    H166137   5.904   2.155   4.991 -0.0251  1.4219 -1.9652
14882TIP3    H266138   5.944   2.085   4.863 -1.3467 -1.3873 -0.9233
14883TIP3   OH266139   5.762   3.940  16.125 -0.1164  0.1266  0.3889
14883TIP3    H166140   5.720   3.919  16.209  1.8936 -0.8427  1.2220
14883TIP3    H266141   5.766   3.856  16.079 -0.2390  0.4527 -0.2157
14884TIP3   OH266142   2.684   6.337   2.453  0.2009 -0.3818 -0.0414
14884TIP3    H166143   2.646   6.257   2.418  0.5417  0.7177 -3.2810
14884TIP3    H266144   2.778   6.325   2.444  0.2353  0.6088 -1.2556
14885TIP3   OH266145   0.562   1.533  13.115 -0.5150 -0.5595  0.3915
14885TIP3    H166146   0.548   1.569  13.028  0.9182 -1.3816 -0.2318
14885TIP3    H266147   0.573   1.609  13.172  0.3021  0.0037 -0.4866
14886TIP3   OH266148   3.664   3.277  13.034  0.1378  0.4878  0.3259
14886TIP3    H166149   3.668   3.368  13.063 -0.7077 -0.0111  2.1505
14886TIP3    H266150   3.573   3.252  13.050 -0.1291 -0.1690 -1.8859
14887TIP3   OH266151   4.016   3.038   5.384 -0.0378  0.3569  0.5361
14887TIP3    H166152   4.064   2.960   5.355 -1.8134 -0.4307 -0.4614
14887TIP3    H266153   4.059   3.110   5.337 -0.5701 -0.4746 -1.3411
14888TIP3   OH266154   5.026   5.677  11.159  0.9495  0.2081  0.4511
14888TIP3    H166155   5.070   5.604  11.116 -0.4024 -0.1255 -0.4314
14888TIP3    H266156   5.021   5.745  11.091 -0.8699 -0.1865  0.1398
14889TIP3   OH266157   5.898   5.119  12.644 -0.3090 -0.0142 -0.2361
14889TIP3    H166158   5.919   5.057  12.573 -1.3362 -0.7575  0.0885
14889TIP3    H266159   5.915   5.070  12.724  1.1506  0.9259  0.0764
14890TIP3   OH266160   3.052   5.362   6.087  0.0756 -1.0256  0.0190
14890TIP3    H166161   2.987   5.308   6.131 -0.0410  0.5643  1.9907
14890TIP3    H266162   3.119   5.377   6.154  3.3722 -3.8192 -2.3239
14891TIP3   OH266163   1.273   6.223   0.899 -0.4170 -0.5940  0.6637
14891TIP3    H166164   1.357   6.230   0.944 -0.8325 -2.9966  1.9955
14891TIP3    H266165   1.245   6.313   0.886  2.0449  0.2739  0.7288
14892TIP3   OH266166   5.952   6.631   4.969 -0.0850  0.0476  0.0710
14892TIP3    H166167   6.027   6.648   5.027 -0.2830  1.8906 -0.1355
14892TIP3    H266168   5.981   6.559   4.912  0.7873 -0.5664  1.2551
14893TIP3   OH266169   1.509   2.075   2.230  0.0469 -0.2382 -0.3088
14893TIP3    H166170   1.460   2.154   2.210  0.0785  0.6896  2.6973
14893TIP3    H266171   1.600   2.100   2.218  0.0882  0.4282  1.1382
14894TIP3   OH266172   1.765   6.383  15.563  0.2432 -0.7371 -0.5980
14894TIP3    H166173   1.717   6.397  15.644 -1.4031  0.1414 -1.6842
14894TIP3    H266174   1.765   6.468  15.519  1.8599 -0.9805 -1.1509
14895TIP3   OH266175   4.708   4.483  13.022  0.0307  0.5660  0.4340
14895TIP3    H166176   4.733   4.575  13.022 -2.6487  1.4100 -0.2512
14895TIP3    H266177   4.641   4.477  13.090 -1.7530 -0.1682 -1.2511
14896TIP3   OH266178   0.479   3.591  17.199  0.4785 -0.1596 -0.6021
14896TIP3    H166179   0.466   3.583  17.294  0.8513 -2.3155 -0.6897
14896TIP3    H266180   0.391   3.601  17.163  0.2295 -0.5672 -0.1181
14897TIP3   OH266181   4.410   0.765  14.979  0.3328  0.2140 -0.4331
14897TIP3    H166182   4.357   0.769  15.059  0.4795  0.9285 -0.3670
14897TIP3    H266183   4.488   0.716  15.005  0.2385  0.1707 -0.2241
14898TIP3   OH266184   5.582   6.716  12.250  0.0552 -0.1375  0.3959
14898TIP3    H166185   5.509   6.675  12.296  0.6511  0.6177  2.1164
14898TIP3    H266186   5.541   6.776  12.188 -0.7944  0.2378  1.3000
14899TIP3   OH266187   2.881   5.451   2.564  0.2354 -0.2589 -0.2914
14899TIP3    H166188   2.929   5.480   2.487  1.0581 -1.4796 -0.2785
14899TIP3    H266189   2.918   5.502   2.636 -0.1563  0.4942 -0.6097
14900TIP3   OH266190   3.647   1.237   4.833 -0.4353  0.6771  0.1413
14900TIP3    H166191   3.707   1.231   4.759 -0.6603 -2.2196  0.0790
14900TIP3    H266192   3.566   1.196   4.802 -0.8270  0.2184  1.6772
14901TIP3   OH266193   0.150   5.177  13.518  0.0014 -0.8697  0.3334
14901TIP3    H166194   0.157   5.136  13.432  0.5920 -0.8414  0.3604
14901TIP3    H266195   0.213   5.129  13.572 -0.7642 -1.2632  0.9021
14902TIP3   OH266196   6.262   1.453  13.383  0.9281 -0.6789  0.5462
14902TIP3    H166197   6.169   1.472  13.391  0.8965  0.2697 -1.4533
14902TIP3    H266198   6.277   1.379  13.443 -0.5157  0.8199  2.9110
14903TIP3   OH266199   4.264   3.575   0.080  0.3388 -0.0819 -0.1776
14903TIP3    H166200   4.228   3.601  -0.004  1.5053  0.2647 -0.5971
14903TIP3    H266201   4.193   3.530   0.125 -0.5168  0.3776 -1.0501
14904TIP3   OH266202   4.146   2.144  14.719 -0.1597  0.2130  0.2502
14904TIP3    H166203   4.138   2.222  14.664  2.4781  1.7181  1.7846
14904TIP3    H266204   4.205   2.086  14.670  2.6388  1.7844  1.5138
14905TIP3   OH266205   2.064   5.452  14.717 -0.2817 -0.4301  0.2685
14905TIP3    H166206   2.092   5.371  14.759 -0.6768 -0.0577  1.2795
14905TIP3    H266207   2.076   5.436  14.624  3.0994 -0.3768  0.5900
14906TIP3   OH266208   6.442   2.487   5.847  0.2451 -0.0972 -0.0197
14906TIP3    H166209   6.454   2.474   5.753  1.5955  0.0418  0.1186
14906TIP3    H266210   6.530   2.493   5.882 -0.2464  0.2288  1.2145
14907TIP3   OH266211   4.194   1.834  12.846  0.6804 -0.2389 -0.6398
14907TIP3    H166212   4.136   1.860  12.774  0.3006  0.0559 -0.2318
14907TIP3    H266213   4.281   1.861  12.818  0.6652 -0.9097 -1.3718
14908TIP3   OH266214   6.036   3.764  16.122  0.4548 -0.4760  0.1702
14908TIP3    H166215   6.107   3.824  16.142 -1.1497  1.1778  1.3299
14908TIP3    H266216   6.036   3.701  16.195  1.1781 -0.9451 -0.2311
14909TIP3   OH266217   1.462   1.236   1.035 -0.5352 -0.1401 -0.0438
14909TIP3    H166218   1.518   1.313   1.024  0.0479 -0.5580 -0.0181
14909TIP3    H266219   1.413   1.253   1.115 -0.9193  0.5190 -0.4077
14910TIP3   OH266220   1.455   3.295  14.656 -0.0239 -0.1691  0.5940
14910TIP3    H166221   1.456   3.237  14.732 -1.4545 -1.7824 -0.5451
14910TIP3    H266222   1.387   3.260  14.599  1.3704  0.6215 -1.7232
14911TIP3   OH266223   6.402   6.613   3.303 -0.4337  0.5437  0.3207
14911TIP3    H166224   6.393   6.653   3.390 -0.9914  0.7185  0.1841
14911TIP3    H266225   6.490   6.574   3.304 -0.3890  0.6491  0.9170
14912TIP3   OH266226   6.361   1.919  14.015  0.0964 -0.2022  0.4952
14912TIP3    H166227   6.432   1.855  14.005  0.0916 -0.0982 -0.2631
14912TIP3    H266228   6.289   1.881  13.964 -0.7851 -0.8676  2.1662
14913TIP3   OH266229   6.572   6.068   4.249 -0.3534 -0.3279 -0.2816
14913TIP3    H166230   6.551   6.073   4.156 -0.8755 -0.0417 -0.1536
14913TIP3    H266231   6.546   6.153   4.284  1.6837  0.3357 -0.2288
14914TIP3   OH266232   6.016   4.007  15.168  0.0275 -0.3575  0.5474
14914TIP3    H166233   6.025   4.039  15.078 -1.0308 -1.3213  0.0738
14914TIP3    H266234   6.106   3.989  15.196  0.3719 -0.0099 -0.2944
14915TIP3   OH266235   4.842   4.437  15.392 -0.0136 -0.0985 -0.2270
14915TIP3    H166236   4.897   4.386  15.332  0.3218  0.4727 -0.4131
14915TIP3    H266237   4.760   4.449  15.344  1.2268  2.8056 -1.8371
14916TIP3   OH266238   0.251   2.754   3.773 -0.1519 -0.0877  0.0433
14916TIP3    H166239   0.219   2.733   3.860  0.2634  0.0392  0.2327
14916TIP3    H266240   0.295   2.674   3.744  1.4119  0.4738  0.7565
14917TIP3   OH266241   6.336   0.776  12.204 -0.5369 -0.1801 -0.0579
14917TIP3    H166242   6.353   0.870  12.190  1.8623 -0.5516 -0.0762
14917TIP3    H266243   6.297   0.747  12.121  1.4014  0.2929 -1.2299
14918TIP3   OH266244   2.460   2.977  14.093  0.1244 -0.3432 -0.6978
14918TIP3    H166245   2.448   2.901  14.036  1.6075 -0.5282 -0.7964
14918TIP3    H266246   2.540   2.958  14.142 -0.9522 -0.0750  1.2799
14919TIP3   OH266247   6.654   0.137   4.741 -0.0539  0.1261 -0.3218
14919TIP3    H166248   6.563   0.126   4.769  0.7739 -0.6592  2.4042
14919TIP3    H266249   6.669   0.232   4.745 -0.5062  0.1821  0.1033
14920TIP3   OH266250   2.846   3.797  10.699 -0.3946  0.1079  0.2442
14920TIP3    H166251   2.834   3.702  10.698  1.1945 -0.1328  1.2563
14920TIP3    H266252   2.767   3.831  10.742 -0.0737 -0.9253  1.7241
14921TIP3   OH266253   4.271   0.301  15.701  0.2418 -0.4972  0.4345
14921TIP3    H166254   4.333   0.297  15.774  0.5259  1.2329  0.3285
14921TIP3    H266255   4.325   0.308  15.623 -0.0745  0.3505  0.2844
14922TIP3   OH266256   3.426   2.257  13.978  0.3984 -0.4201 -0.1046
14922TIP3    H166257   3.341   2.294  13.953 -0.1602 -2.8061 -2.0818
14922TIP3    H266258   3.437   2.284  14.069 -2.5569 -0.1336  0.2868
14923TIP3   OH266259   4.914   2.842  16.253  0.2783  0.2661 -0.8006
14923TIP3    H166260   4.898   2.916  16.194  0.3343  1.7406  0.9531
14923TIP3    H266261   5.007   2.848  16.274  0.0405  0.4320  0.2575
14924TIP3   OH266262   4.451   5.095  12.059 -0.6365 -0.2997  0.5306
14924TIP3    H166263   4.529   5.046  12.032 -0.3204  1.0407 -1.1541
14924TIP3    H266264   4.472   5.126  12.147  1.4808  1.3792 -0.4788
14925TIP3   OH266265   6.644   1.038   0.994  0.0277  0.1169 -0.4650
14925TIP3    H166266   6.616   1.115   0.944  0.1370 -0.4658 -1.4593
14925TIP3    H266267   6.734   1.022   0.965 -0.1930 -0.7332 -0.7289
14926TIP3   OH266268   2.664   3.253  17.119  0.2683  0.1109 -0.0147
14926TIP3    H166269   2.607   3.325  17.092  1.4148  1.2775  0.5478
14926TIP3    H266270   2.671   3.197  17.041 -1.6505 -0.1052 -0.0782
14927TIP3   OH266271   4.071   3.123  16.213  0.3496  0.9932 -0.5177
14927TIP3    H166272   4.095   3.083  16.297 -1.1150  0.8675 -0.1220
14927TIP3    H266273   4.154   3.135  16.167  0.9714 -1.3170 -0.1219
14928TIP3   OH266274   1.188   6.330  13.451 -0.2488  0.2625 -0.4488
14928TIP3    H166275   1.234   6.253  13.484 -0.2554  0.8868  1.0960
14928TIP3    H266276   1.254   6.377  13.400 -0.1821 -0.6289 -1.2080
14929TIP3   OH266277   4.342   4.416   2.221 -0.5814 -0.2375  0.0212
14929TIP3    H166278   4.419   4.448   2.175 -1.4462 -0.8395 -1.9544
14929TIP3    H266279   4.344   4.461   2.306  2.5226 -1.1172  0.5316
14930TIP3   OH266280   1.104   0.125  16.513 -0.2284 -0.3184 -0.1379
14930TIP3    H166281   1.078   0.196  16.454 -1.2837  0.5533  1.3040
14930TIP3    H266282   1.042   0.054  16.493 -1.0122  0.2124  0.3562
14931TIP3   OH266283   2.397   1.015   5.978 -0.2696 -0.1417  0.2369
14931TIP3    H166284   2.428   0.925   5.989 -0.1556 -0.1259  0.0350
14931TIP3    H266285   2.312   1.005   5.934 -0.5393 -0.1825  0.7541
14932TIP3   OH266286   0.126   2.925   0.407  0.4584 -0.3530 -0.5768
14932TIP3    H166287   0.219   2.946   0.395  0.2528  0.4629 -0.7952
14932TIP3    H266288   0.125   2.860   0.477  1.3539 -2.0229 -2.0170
14933TIP3   OH266289   0.854   2.345  13.149 -0.1263  0.1438 -0.0329
14933TIP3    H166290   0.917   2.333  13.220 -0.0462  2.7061  0.4469
14933TIP3    H266291   0.892   2.299  13.075  0.9218 -0.6947  0.9842
14934TIP3   OH266292   6.449   5.167  11.942 -0.2063  0.0510 -0.1197
14934TIP3    H166293   6.369   5.201  11.903 -1.4358  0.4897  2.5794
14934TIP3    H266294   6.503   5.245  11.957  0.7721 -0.2284 -1.7967
14935TIP3   OH266295   6.261   0.726  17.121  0.1655 -0.1170  0.6227
14935TIP3    H166296   6.327   0.758  17.060  0.7358 -0.8446  0.8551
14935TIP3    H266297   6.194   0.795  17.122 -1.1847 -1.1583 -2.8093
14936TIP3   OH266298   5.141   2.395   0.628 -0.4106  0.2330  0.1566
14936TIP3    H166299   5.139   2.447   0.547  0.2235 -1.5533 -1.0839
14936TIP3    H266300   5.214   2.335   0.615  0.0420  0.2469  2.3264
14937TIP3   OH266301   1.278   3.597  11.517  0.0972 -0.0436  0.4861
14937TIP3    H166302   1.314   3.685  11.521  0.5262 -0.2196  0.4820
14937TIP3    H266303   1.265   3.581  11.423 -0.1717  0.0895  0.4980
14938TIP3   OH266304   1.933   5.274  12.084  0.0193  0.0399  0.5768
14938TIP3    H166305   1.881   5.343  12.126  0.1925  1.1893 -1.0149
14938TIP3    H266306   1.892   5.192  12.113  0.0882  0.7473  2.8743
14939TIP3   OH266307   5.002   3.737   4.721  0.1052 -0.0044  0.4382
14939TIP3    H166308   5.059   3.743   4.644  1.3872 -0.2582  1.3269
14939TIP3    H266309   5.028   3.655   4.763 -1.1744 -0.2902  0.7007
14940TIP3   OH266310   4.411   2.559   6.383 -0.4153  0.0715  0.1978
14940TIP3    H166311   4.494   2.607   6.386 -1.3335  1.6642  2.0847
14940TIP3    H266312   4.421   2.490   6.449  0.2262 -1.2633 -1.2359
14941TIP3   OH266313   2.439   5.246   1.444  0.0737  0.0771 -0.4517
14941TIP3    H166314   2.395   5.315   1.494 -0.2550 -1.0243  0.8383
14941TIP3    H266315   2.435   5.276   1.353 -2.6351  0.4187 -0.3036
14942TIP3   OH266316   3.865   2.352  15.346 -0.5281 -0.3116 -0.2706
14942TIP3    H166317   3.806   2.350  15.270 -0.6179 -0.2866 -0.2028
14942TIP3    H266318   3.836   2.429  15.396  1.4577  1.5253 -1.7508
14943TIP3   OH266319   1.782   5.971   6.536  0.2062  0.9541 -0.5429
14943TIP3    H166320   1.812   5.919   6.611  0.7422  0.5149 -1.0436
14943TIP3    H266321   1.714   6.028   6.571  1.4126  1.7708  0.5969
14944TIP3   OH266322   0.200   3.678  14.236  0.5060 -0.0960 -0.2410
14944TIP3    H166323   0.228   3.587  14.233  0.4875 -0.1098  0.0141
14944TIP3    H266324   0.275   3.728  14.204  0.7955 -0.1395  0.3666
14945TIP3   OH266325   0.260   0.795  14.130  0.0054  0.0621  0.0361
14945TIP3    H166326   0.224   0.852  14.199  0.1791 -1.7780  1.7531
14945TIP3    H266327   0.327   0.744  14.175  0.4820 -0.8473 -1.6598
14946TIP3   OH266328   1.235   3.270  13.390  0.1568  0.5255 -0.6306
14946TIP3    H166329   1.158   3.220  13.418 -0.3914  2.1926  1.0641
14946TIP3    H266330   1.235   3.348  13.447  3.2801  0.4369 -0.3392
14947TIP3   OH266331   3.448   6.334   4.047  0.4370 -0.1780 -0.8887
14947TIP3    H166332   3.409   6.247   4.049  0.0745 -0.0178  1.3169
14947TIP3    H266333   3.420   6.375   4.129  0.4072  2.1128 -1.9669
14948TIP3   OH266334   5.797   1.191  12.100 -0.4951  0.5483  0.3012
14948TIP3    H166335   5.798   1.203  12.005  0.8821  0.4049  0.2762
14948TIP3    H266336   5.755   1.106  12.113 -3.4546  1.8142  0.0493
14949TIP3   OH266337   0.056   1.888  11.262  0.2163 -0.4845  0.2578
14949TIP3    H166338   0.034   1.949  11.333  0.3738  1.7939 -1.5308
14949TIP3    H266339  -0.027   1.873  11.217  0.3314 -0.9649  0.2006
14950TIP3   OH266340   6.550   6.088  16.445 -0.1635 -0.8921 -0.3802
14950TIP3    H166341   6.481   6.105  16.510  0.0004 -0.2002 -0.3843
14950TIP3    H266342   6.586   6.174  16.425  0.7442 -1.2568 -0.3476
14951TIP3   OH266343   0.317   4.695  11.679  0.5540 -0.3908  0.2508
14951TIP3    H166344   0.333   4.785  11.708  2.2906 -0.8566  0.8950
14951TIP3    H266345   0.233   4.699  11.633  1.3384  1.8586 -1.1358
14952TIP3   OH266346   4.059   0.017   2.194  0.2848 -0.8566  0.5412
14952TIP3    H166347   4.094  -0.063   2.235  0.9122  0.0948  1.9573
14952TIP3    H266348   4.035   0.073   2.268 -1.0405 -0.0935 -0.4258
14953TIP3   OH266349   3.472   0.905   2.248  0.4344 -0.3780  0.2155
14953TIP3    H166350   3.565   0.918   2.263  0.4293 -1.4859  1.3673
14953TIP3    H266351   3.429   0.959   2.314  0.2354  0.3733 -0.5106
14954TIP3   OH266352   1.057   3.856   3.789  0.1302 -0.5881  0.0017
14954TIP3    H166353   1.045   3.895   3.875  1.4737 -0.9814  0.3931
14954TIP3    H266354   1.090   3.768   3.807  1.4447 -0.3115 -0.9041
14955TIP3   OH266355   6.116   3.096   3.076 -0.3949  0.0986 -0.2633
14955TIP3    H166356   6.125   3.062   3.165 -0.4065  2.9244  0.9013
14955TIP3    H266357   6.025   3.078   3.052 -0.4629 -0.4304  0.3683
14956TIP3   OH266358   1.036   5.196   2.346 -0.4190  0.1051  0.1312
14956TIP3    H166359   1.040   5.236   2.260 -1.2401  0.7442  0.3791
14956TIP3    H266360   0.963   5.134   2.341 -0.3158 -0.0314  0.2974
14957TIP3   OH266361   0.819   2.282  12.792  0.3737 -0.2504  0.4531
14957TIP3    H166362   0.784   2.344  12.728 -0.0693 -1.0426 -0.0855
14957TIP3    H266363   0.907   2.263  12.762  0.3171 -0.2935  0.3158
14958TIP3   OH266364   3.554   5.100  12.927 -0.1265 -0.0595 -0.3135
14958TIP3    H166365   3.606   5.021  12.942 -1.4122 -1.0685 -0.9328
14958TIP3    H266366   3.600   5.145  12.856  0.7532 -0.1040  0.2088
14959TIP3   OH266367   2.224   3.708   3.427  0.1561 -0.1338 -0.0517
14959TIP3    H166368   2.195   3.684   3.515 -3.1307 -1.3457 -1.2965
14959TIP3    H266369   2.282   3.637   3.400  1.3828  0.3663  1.1409
14960TIP3   OH266370   3.887   2.243   5.941 -0.1113 -0.1761  0.0256
14960TIP3    H166371   3.976   2.208   5.942 -0.4153 -0.9662  0.2421
14960TIP3    H266372   3.890   2.316   5.880  0.9651  0.5718  0.9522
14961TIP3   OH266373   1.263   0.953  12.712  0.0395  0.2791 -0.3100
14961TIP3    H166374   1.268   0.861  12.740 -0.3886  0.6540  1.0499
14961TIP3    H266375   1.261   0.948  12.616  0.4275 -1.1071 -0.2771
14962TIP3   OH266376   6.413   3.049   3.905 -0.3154  0.6204  0.5991
14962TIP3    H166377   6.413   2.973   3.846 -1.8322  0.1364  1.1827
14962TIP3    H266378   6.414   3.125   3.847 -0.5784  0.1491 -0.0269
14963TIP3   OH266379   0.241   3.876  11.493 -0.2548 -0.1864  0.2315
14963TIP3    H166380   0.257   3.803  11.553 -0.2583 -0.1551  0.2707
14963TIP3    H266381   0.316   3.935  11.507 -0.6256  0.1807  0.7500
14964TIP3   OH266382   2.350   1.600  13.782  0.0435  0.4562 -0.3799
14964TIP3    H166383   2.311   1.684  13.803 -1.7043 -0.5346  0.5625
14964TIP3    H266384   2.276   1.542  13.764  1.1117 -1.1740  0.1747
14965TIP3   OH266385   0.009   3.222  15.828 -0.0260 -0.2959  0.1083
14965TIP3    H166386  -0.038   3.297  15.864  0.5349 -0.7108  1.8397
14965TIP3    H266387  -0.060   3.161  15.801 -0.5183 -0.2113  1.1023
14966TIP3   OH266388   3.001   2.067  17.124 -0.0594 -0.2487  0.0252
14966TIP3    H166389   3.042   2.029  17.201 -0.7123 -1.5976 -0.2810
14966TIP3    H266390   3.049   2.149  17.110  4.1093 -2.6124 -1.5184
14967TIP3   OH266391   0.112   0.915  14.401 -0.7297 -0.2956 -0.4944
14967TIP3    H166392   0.144   0.867  14.477 -1.7933  1.3926  1.1176
14967TIP3    H266393   0.021   0.887  14.392 -1.5444  1.6776  0.8250
14968TIP3   OH266394   0.508   2.815   6.416 -0.4950  0.0439 -0.0896
14968TIP3    H166395   0.518   2.833   6.509  3.1584 -1.3068 -0.0415
14968TIP3    H266396   0.478   2.724   6.412 -2.1556  0.5778 -0.2806
14969TIP3   OH266397   2.712   0.845   1.977 -0.0053 -0.6072 -0.6920
14969TIP3    H166398   2.738   0.754   1.996  0.1819 -0.3638  0.2579
14969TIP3    H266399   2.724   0.891   2.060 -0.7967  0.1317 -0.9789
14970TIP3   OH266400   1.655   2.073  14.819  0.0134  0.3988 -0.5557
14970TIP3    H166401   1.607   2.141  14.867 -0.1983  0.8655 -1.4115
14970TIP3    H266402   1.727   2.049  14.878  0.7021  2.1062 -0.6372
14971TIP3   OH266403   4.020   0.559   0.572  0.4244  0.5760  0.3789
14971TIP3    H166404   3.956   0.628   0.589 -0.0274  0.0458  0.8631
14971TIP3    H266405   3.970   0.491   0.525  0.5506  0.0347  1.0151
14972TIP3   OH266406   1.185   5.775  12.901 -0.3681  0.5456  0.5018
14972TIP3    H166407   1.138   5.747  12.822 -0.3266 -1.8846  1.2347
14972TIP3    H266408   1.259   5.826  12.869 -1.4466  1.3235 -0.8797
14973TIP3   OH266409   0.003   0.408  14.939 -0.2320  0.1354  0.4163
14973TIP3    H166410   0.090   0.373  14.919 -0.4211 -0.4804  0.6251
14973TIP3    H266411  -0.057   0.349  14.893 -0.5887 -0.2409  1.3412
14974TIP3   OH266412   6.419   1.564  14.292 -0.1781 -0.3935  0.2655
14974TIP3    H166413   6.489   1.521  14.341  1.0145  1.5754  0.4389
14974TIP3    H266414   6.388   1.633  14.351 -0.3413  0.5099 -0.8400
14975TIP3   OH266415   1.200   3.994  12.880  0.5445 -0.2030  0.1443
14975TIP3    H166416   1.229   3.970  12.968  0.6235  0.4881  0.3177
14975TIP3    H266417   1.105   3.992  12.884  0.5438 -1.1291 -0.0387
14976TIP3   OH266418   0.724   1.002   1.539  0.0476 -1.1188  0.6598
14976TIP3    H166419   0.769   0.989   1.622 -0.1798 -0.5432  0.8807
14976TIP3    H266420   0.652   1.061   1.560  1.3878  1.0159 -0.3532
14977TIP3   OH266421   6.638   5.063  14.356 -0.3365  0.0269 -0.0050
14977TIP3    H166422   6.603   5.058  14.267  2.7430  0.1720 -1.3560
14977TIP3    H266423   6.564   5.091  14.410 -1.5854  3.3190 -3.0550
14978TIP3   OH266424   6.005   5.508  14.656  0.3663 -0.2017  0.0393
14978TIP3    H166425   5.968   5.498  14.568 -0.2721  1.4047  0.0918
14978TIP3    H266426   6.032   5.600  14.661 -0.0099 -0.1452  1.6697
14979TIP3   OH266427   2.983   4.122  13.933 -0.3596 -0.2374 -0.1954
14979TIP3    H166428   3.047   4.081  13.992 -0.8061 -1.2731 -0.3977
14979TIP3    H266429   3.008   4.214  13.931  1.5250 -0.7025 -0.7514
14980TIP3   OH266430   5.576   1.424  11.833 -0.0045 -0.1157 -0.9873
14980TIP3    H166431   5.560   1.470  11.751 -2.2591 -1.9282 -1.6905
14980TIP3    H266432   5.590   1.333  11.807  0.7185 -0.4760  0.5522
14981TIP3   OH266433   4.804   2.647   1.469  0.4416 -0.2316  0.0140
14981TIP3    H166434   4.865   2.589   1.515  0.1401  0.0904  0.8317
14981TIP3    H266435   4.729   2.655   1.527 -0.8286 -1.3829 -1.3849
14982TIP3   OH266436   3.228   6.676   6.793 -0.4525 -0.3495 -0.3352
14982TIP3    H166437   3.261   6.595   6.754 -2.6642 -1.3843 -0.2193
14982TIP3    H266438   3.285   6.692   6.868 -0.5144 -2.3293  0.1739
14983TIP3   OH266439   5.588   6.482  11.788  0.1199  0.7092  0.2994
14983TIP3    H166440   5.503   6.456  11.824  0.1323  0.1146 -0.1017
14983TIP3    H266441   5.639   6.509  11.865  1.0007 -2.8752  1.1280
14984TIP3   OH266442   5.326   1.394   2.494 -0.0615 -0.7633 -0.4662
14984TIP3    H166443   5.333   1.428   2.583 -0.2418 -1.3487 -0.2233
14984TIP3    H266444   5.359   1.465   2.439 -0.9961  0.0311 -0.0201
14985TIP3   OH266445   1.788   4.610  16.796  0.1353 -0.3983  0.4772
14985TIP3    H166446   1.881   4.604  16.775  0.4375 -2.5991  1.9992
14985TIP3    H266447   1.783   4.677  16.864  0.4940  0.2226 -0.1034
14986TIP3   OH266448   1.057   5.383   5.539  0.5181  0.6263  0.2221
14986TIP3    H166449   1.099   5.354   5.458  0.4100  0.3074  0.2772
14986TIP3    H266450   0.968   5.347   5.535  0.6099  0.3342  0.6199
14987TIP3   OH266451   1.136   1.177   1.938  0.7728  0.0782 -0.4476
14987TIP3    H166452   1.229   1.185   1.961  0.9110  1.3284 -1.3778
14987TIP3    H266453   1.104   1.267   1.933 -0.9405 -0.3514  1.5002
14988TIP3   OH266454   2.711   0.449  15.632 -0.3647  0.5666 -0.2331
14988TIP3    H166455   2.664   0.480  15.709 -1.8835  1.7085 -1.5364
14988TIP3    H266456   2.803   0.447  15.659 -0.9302  0.0730  1.8348
14989TIP3   OH266457   1.842   5.655   3.117 -0.1703 -0.4504  0.5147
14989TIP3    H166458   1.888   5.644   3.200  1.0738 -1.9949 -0.3159
14989TIP3    H266459   1.881   5.734   3.078  0.6465 -0.8267  0.5447
14990TIP3   OH266460   3.804   1.427   5.560 -0.1844 -0.5039  0.0840
14990TIP3    H166461   3.714   1.413   5.529 -0.6634  1.9460  0.1972
14990TIP3    H266462   3.843   1.339   5.558 -1.3602 -1.1142 -3.6372
14991TIP3   OH266463   0.802   6.738  11.428  0.8750 -0.2476 -0.3231
14991TIP3    H166464   0.826   6.826  11.399  3.5215 -0.6554  0.3661
14991TIP3    H266465   0.732   6.753  11.491  0.3907  1.2426 -1.1476
14992TIP3   OH266466   5.359   6.183   6.186  0.3018  0.2224 -0.1606
14992TIP3    H166467   5.379   6.177   6.092 -2.3700 -1.1302 -0.7710
14992TIP3    H266468   5.264   6.177   6.190  0.2382  1.5061  2.6177
14993TIP3   OH266469   6.510   1.679  13.382 -0.3245 -0.0936 -0.3249
14993TIP3    H166470   6.494   1.753  13.441  1.0757  0.2584 -0.3474
14993TIP3    H266471   6.588   1.636  13.418 -0.9166 -1.3729 -0.5045
14994TIP3   OH266472   0.156   1.305  12.986 -0.2916  0.4072 -0.2680
14994TIP3    H166473   0.235   1.303  13.039  0.6099 -0.1927 -1.5782
14994TIP3    H266474   0.162   1.387  12.936 -0.8106  0.6538  0.0600
14995TIP3   OH266475   4.882   4.996   1.845  0.6438  0.2289 -0.5523
14995TIP3    H166476   4.873   5.063   1.778  2.4633  1.4917  0.3925
14995TIP3    H266477   4.940   5.035   1.911 -3.8028  0.5933  3.7124
14996TIP3   OH266478   2.903   6.561   4.104  0.4040  0.4617 -0.2413
14996TIP3    H166479   2.986   6.604   4.082  0.2795  0.6301 -0.3914
14996TIP3    H266480   2.885   6.503   4.030  0.9198 -0.3797  0.2776
14997TIP3   OH266481   4.455   5.649   2.219 -0.1842  0.6275  0.0373
14997TIP3    H166482   4.458   5.582   2.152 -2.7588  0.2247  0.2340
14997TIP3    H266483   4.521   5.623   2.283 -2.0363 -2.5840  0.8330
14998TIP3   OH266484   6.113   3.759   1.645  0.2758 -0.0914 -0.1908
14998TIP3    H166485   6.104   3.665   1.658  0.2848 -0.1013 -0.2545
14998TIP3    H266486   6.133   3.768   1.552 -0.6253  0.0398 -0.3811
14999TIP3   OH266487   2.369   4.572   0.208  0.5979  0.4796  0.2930
14999TIP3    H166488   2.446   4.532   0.248  0.1095  1.2411  2.1122
14999TIP3    H266489   2.319   4.607   0.282 -1.6264 -0.1915 -0.7888
15000TIP3   OH266490   3.317   2.518  10.517 -0.9022 -0.3359 -1.0163
15000TIP3    H166491   3.272   2.434  10.508 -1.4750 -0.1121 -0.3570
15000TIP3    H266492   3.246   2.581  10.532 -0.3375 -0.0847  0.7975
15001TIP3   OH266493   0.557   2.833  16.856  0.2612 -0.6144 -0.0230
15001TIP3    H166494   0.522   2.886  16.927  0.5847 -1.9668  1.1957
15001TIP3    H266495   0.646   2.864  16.844 -0.2319  0.5645 -0.8318
15002TIP3   OH266496   0.702   2.568  15.955 -0.2805 -0.4631  0.0978
15002TIP3    H166497   0.664   2.638  15.901 -1.8758  0.1598  1.9268
15002TIP3    H266498   0.665   2.582  16.042  1.5153 -1.9748  1.1762
15003TIP3   OH266499   6.790   2.189  12.984 -0.6177  0.3428  0.0610
15003TIP3    H166500   6.774   2.197  13.078 -1.4319  3.0318 -0.2465
15003TIP3    H266501   6.706   2.161  12.947 -0.3549 -0.5010  0.0639
15004TIP3   OH266502   4.769   6.197   3.056  0.9022  0.2765 -0.1655
15004TIP3    H166503   4.830   6.201   3.129 -0.0263  1.2938  0.6070
15004TIP3    H266504   4.782   6.111   3.018  1.1673 -0.4417  1.4432
15005TIP3   OH266505   5.762   5.523  11.470 -0.2204 -0.2584 -0.0321
15005TIP3    H166506   5.751   5.436  11.432  1.1330 -0.9172  1.0000
15005TIP3    H266507   5.672   5.551  11.489 -0.7505 -0.9543 -1.3552
15006TIP3   OH266508   1.910   4.112   0.200  0.4802 -0.0017  0.4576
15006TIP3    H166509   1.849   4.185   0.201  1.3411  0.7670 -0.4754
15006TIP3    H266510   1.860   4.038   0.234 -1.1329  0.4533 -0.8156
15007TIP3   OH266511   1.395   1.157   1.641 -0.4951  0.1211 -0.6890
15007TIP3    H166512   1.434   1.083   1.595 -0.8434 -0.0323 -0.7398
15007TIP3    H266513   1.465   1.190   1.697 -0.4255 -0.4328 -0.4434
15008TIP3   OH266514   1.557   6.525   3.247 -0.3633  1.0598  0.3223
15008TIP3    H166515   1.536   6.580   3.323 -1.0126  0.8139  0.3218
15008TIP3    H266516   1.650   6.504   3.259 -0.7574 -0.0283  1.7241
15009TIP3   OH266517   1.584   4.018  11.876  1.1048  0.0168  0.4571
15009TIP3    H166518   1.517   4.085  11.887  0.4564 -0.5734  0.1814
15009TIP3    H266519   1.554   3.945  11.928  1.1690 -0.5095 -0.2284
15010TIP3   OH266520   6.078   2.928   3.290 -1.0480 -0.5650  0.5965
15010TIP3    H166521   6.169   2.929   3.320 -1.4095  1.0382  1.7460
15010TIP3    H266522   6.038   3.004   3.332 -2.4448 -0.1323 -1.4171
15011TIP3   OH266523   6.733   3.075  11.523 -0.4050 -0.1230  0.2983
15011TIP3    H166524   6.715   3.003  11.584  0.0217 -0.7766 -0.3290
15011TIP3    H266525   6.812   3.117  11.557  1.2665 -1.9649 -1.0325
15012TIP3   OH266526   0.874   0.404  11.250 -0.2851 -0.0016 -0.6150
15012TIP3    H166527   0.954   0.457  11.242 -0.9232  1.0768 -0.0228
15012TIP3    H266528   0.905   0.319  11.280  0.4634  1.1749  2.2696
15013TIP3   OH266529   1.391   6.759  14.675 -0.5165  0.2781  0.4526
15013TIP3    H166530   1.300   6.746  14.649 -0.6929  1.3628  0.4757
15013TIP3    H266531   1.428   6.814  14.606  0.3579 -0.8042  0.0329
15014TIP3   OH266532   5.924   4.749  12.129  0.1926  0.2760 -0.2434
15014TIP3    H166533   5.966   4.728  12.212  2.1765  2.4850 -0.5968
15014TIP3    H266534   5.924   4.667  12.081  0.5380 -0.6578  1.2834
15015TIP3   OH266535   5.526   5.453  16.136  0.6291  0.3262  0.3706
15015TIP3    H166536   5.483   5.409  16.064  0.4960  1.5896 -0.3451
15015TIP3    H266537   5.616   5.469  16.105  0.8257  0.1146  0.8166
15016TIP3   OH266538   0.208   5.453  14.694  0.1576  0.0085 -0.1692
15016TIP3    H166539   0.301   5.454  14.717 -0.1151 -1.6194  1.1390
15016TIP3    H266540   0.205   5.413  14.607  0.5606 -1.5037  0.4948
15017TIP3   OH266541   1.305   6.535  15.278 -0.1662  0.5411 -0.3455
15017TIP3    H166542   1.315   6.447  15.315 -4.1157  0.2735  0.5775
15017TIP3    H266543   1.280   6.520  15.187 -0.4444  0.6929 -0.2965
15018TIP3   OH266544   3.859   5.842   1.107 -0.0724 -0.3352 -0.0356
15018TIP3    H166545   3.895   5.885   1.185  0.9253 -0.9847 -0.1132
15018TIP3    H266546   3.870   5.906   1.037  0.7348 -0.4275 -0.0056
15019TIP3   OH266547   3.698   5.298  15.292  0.0300  0.4037  0.1809
15019TIP3    H166548   3.682   5.385  15.257 -0.9962 -0.5648 -1.9720
15019TIP3    H266549   3.753   5.256  15.225  0.5929 -0.5702  1.2269
15020TIP3   OH266550   3.706   0.411   3.067 -0.0702 -0.4300  0.1049
15020TIP3    H166551   3.644   0.379   3.001 -0.7232  0.8042  0.1025
15020TIP3    H266552   3.669   0.384   3.150 -2.0945  2.5385  0.3095
15021TIP3   OH266553   2.198   2.317   4.610  0.5482  0.0307 -0.1282
15021TIP3    H166554   2.283   2.299   4.649 -0.5370 -0.4436  2.1474
15021TIP3    H266555   2.216   2.385   4.545  2.5947  0.1980  0.5328
15022TIP3   OH266556   0.239   4.036   5.723 -0.2442  0.0708  0.3444
15022TIP3    H166557   0.204   4.119   5.691  0.5375  0.1021 -0.4832
15022TIP3    H266558   0.215   4.034   5.816  0.8442  1.8452  0.7188
15023TIP3   OH266559   3.469   4.161  12.651  0.6013  0.2391 -0.5600
15023TIP3    H166560   3.423   4.080  12.627 -0.6596  1.2519 -1.6495
15023TIP3    H266561   3.401   4.228  12.652  1.7133  1.3901 -0.1313
15024TIP3   OH266562   4.449   1.887  12.871  0.2379  0.6580 -0.2092
15024TIP3    H166563   4.427   1.838  12.950  0.3797  1.6329  0.4520
15024TIP3    H266564   4.523   1.839  12.833  0.2902  0.2846  0.3527
15025TIP3   OH266565   3.566   5.786  10.902 -0.4963  0.3766 -0.6234
15025TIP3    H166566   3.636   5.851  10.908 -1.2142  1.3171 -1.9688
15025TIP3    H266567   3.590   5.731  10.828  0.6331 -1.6319  1.1167
15026TIP3   OH266568   0.908   4.714   1.505  0.1030 -0.2351  0.1780
15026TIP3    H166569   0.954   4.674   1.431 -0.8181 -0.5345 -0.2462
15026TIP3    H266570   0.967   4.783   1.535  0.8069 -0.5759 -0.3777
15027TIP3   OH266571   5.565   0.851  13.267  0.4214 -0.3203  0.7772
15027TIP3    H166572   5.488   0.881  13.315  0.7432 -0.2944  1.2817
15027TIP3    H266573   5.595   0.928  13.219 -0.8136 -0.7308 -0.7133
15028TIP3   OH266574   0.269   3.793  15.821  0.3174  0.0065 -0.1288
15028TIP3    H166575   0.323   3.868  15.843 -1.2082  1.5749 -1.4691
15028TIP3    H266576   0.291   3.773  15.730 -0.5533 -0.0359 -0.3393
15029TIP3   OH266577   5.451   6.587   1.328  0.2344  0.4607  0.2974
15029TIP3    H166578   5.427   6.526   1.259  2.4849  2.0728 -2.1485
15029TIP3    H266579   5.416   6.671   1.298 -0.7140  0.8640  2.3584
15030TIP3   OH266580   1.434   0.494  14.476 -0.0835 -0.2994 -0.3684
15030TIP3    H166581   1.351   0.460  14.444  0.3089 -0.9800 -0.6863
15030TIP3    H266582   1.493   0.419  14.473  0.6356  0.2646 -0.4896
15031TIP3   OH266583   1.657   6.297   6.457 -0.0963  0.1594 -0.0748
15031TIP3    H166584   1.636   6.210   6.491  0.1844 -0.6943 -1.9992
15031TIP3    H266585   1.741   6.319   6.498 -0.9178  0.2660  1.6635
15032TIP3   OH266586   1.462   6.085  14.056  0.0828  0.0413 -0.4263
15032TIP3    H166587   1.453   5.990  14.062  0.6544  0.0848  1.8484
15032TIP3    H266588   1.555   6.102  14.071  0.2214  0.9376 -1.9862
15033TIP3   OH266589   3.210   4.510   4.190  0.5109 -0.2029 -0.2050
15033TIP3    H166590   3.162   4.580   4.235  0.4612 -0.9491  0.9454
15033TIP3    H266591   3.249   4.553   4.114  0.1583  0.9842  0.2563
15034TIP3   OH266592   3.304   6.230   5.287 -0.0779 -0.1263 -0.3468
15034TIP3    H166593   3.338   6.307   5.333  0.8363 -1.0216  0.5331
15034TIP3    H266594   3.216   6.256   5.258  1.3911  2.4079 -3.0249
15035TIP3   OH266595   0.479   6.659   3.445  0.1536 -0.0497 -0.3027
15035TIP3    H166596   0.464   6.752   3.464  1.9762  0.0124  1.2303
15035TIP3    H266597   0.549   6.658   3.381  0.6615 -0.3555  0.2455
15036TIP3   OH266598   1.115   2.193   3.820 -0.1320 -0.0524 -0.5629
15036TIP3    H166599   1.201   2.231   3.802  0.4996 -0.8875  0.6463
15036TIP3    H266600   1.098   2.135   3.745 -0.0879  0.8249 -1.2746
15037TIP3   OH266601   3.385   6.451   1.339 -0.5769  0.4309  0.3105
15037TIP3    H166602   3.326   6.376   1.334  0.6347 -0.5405  0.2465
15037TIP3    H266603   3.399   6.464   1.433 -0.9702  0.7372  0.3301
15038TIP3   OH266604   2.566   1.322   1.232 -0.1827  0.0973  0.1362
15038TIP3    H166605   2.586   1.328   1.138  2.0146 -1.1415  0.4641
15038TIP3    H266606   2.536   1.410   1.255  1.0070  0.9621 -1.3622
15039TIP3   OH266607   2.117   1.893   3.989 -0.2219 -0.3958  0.4975
15039TIP3    H166608   2.078   1.981   3.984  0.7390  0.0026 -0.3881
15039TIP3    H266609   2.062   1.839   3.932 -0.6570 -0.3037  0.8292
15040TIP3   OH266610   3.236   3.230   0.823  0.5680  0.0259 -0.3870
15040TIP3    H166611   3.242   3.214   0.918  2.6766 -0.2801 -0.5073
15040TIP3    H266612   3.193   3.152   0.788  0.6235 -0.2883  0.2245
15041TIP3   OH266613   6.504   6.677  13.043 -0.1255 -0.5370  0.1038
15041TIP3    H166614   6.469   6.751  12.994 -2.5413 -0.1482  2.1897
15041TIP3    H266615   6.519   6.712  13.131 -0.5237 -2.3156  0.9164
15042TIP3   OH266616   2.088   5.465   5.431  0.0679 -0.5130 -0.3982
15042TIP3    H166617   2.136   5.531   5.481 -2.0478  0.2004  0.8219
15042TIP3    H266618   2.144   5.387   5.434  2.4032  1.0009 -1.4533
15043TIP3   OH266619   2.971   0.440   4.867  0.1272  0.0934 -0.4865
15043TIP3    H166620   2.894   0.468   4.817 -0.3953 -0.0759  0.2148
15043TIP3    H266621   3.002   0.362   4.821 -0.6316 -0.3399 -0.2720
15044TIP3   OH266622   1.451   4.168  13.779 -0.2197  0.2188 -0.6179
15044TIP3    H166623   1.423   4.109  13.709 -0.2439 -0.3231 -0.1603
15044TIP3    H266624   1.543   4.147  13.793 -0.1782  0.4231 -0.5831
15045TIP3   OH266625   1.829   2.243  10.912  0.5645 -0.0396 -0.1086
15045TIP3    H166626   1.901   2.181  10.926  0.0217 -0.5261  0.6173
15045TIP3    H266627   1.778   2.239  10.993 -1.1851 -0.9013 -1.1902
15046TIP3   OH266628   6.099   2.933  13.014 -0.1634 -0.3096  0.0600
15046TIP3    H166629   6.010   2.911  13.042 -0.4814  1.5271  0.6194
15046TIP3    H266630   6.104   2.899  12.924 -1.9454  0.7586 -0.4977
15047TIP3   OH266631   3.373   0.540  11.675  0.0650  0.5438  0.4837
15047TIP3    H166632   3.345   0.477  11.609  2.0516  0.4820 -0.3754
15047TIP3    H266633   3.305   0.536  11.742 -2.9974  1.8738 -2.2648
15048TIP3   OH266634   6.802   2.361  14.518 -0.0042  0.0212 -0.0797
15048TIP3    H166635   6.720   2.318  14.544 -0.1320  1.5574  2.4562
15048TIP3    H266636   6.777   2.420  14.447 -0.8020 -0.5376 -0.2720
15049TIP3   OH266637   0.964   4.223  17.170  0.3286 -0.2018 -0.3677
15049TIP3    H166638   0.874   4.238  17.142 -0.1709  1.0407  1.6693
15049TIP3    H266639   0.987   4.138  17.132 -2.4406 -1.5737  0.7160
15050TIP3   OH266640   3.392   3.725  14.394  0.3139 -0.4556  0.1839
15050TIP3    H166641   3.432   3.806  14.362  1.0706 -0.8631  0.0695
15050TIP3    H266642   3.334   3.698  14.323 -0.7843  0.5411  0.6583
15051TIP3   OH266643   1.904   6.454  11.734 -0.0487 -0.0668  0.3702
15051TIP3    H166644   1.913   6.379  11.676  1.5183  0.3349  0.0566
15051TIP3    H266645   1.847   6.514  11.686 -1.9608 -1.3190  0.9473
15052TIP3   OH266646   1.165   6.607  12.072  0.5844 -0.3538 -0.2562
15052TIP3    H166647   1.135   6.532  12.020 -2.2426  1.0020 -0.8249
15052TIP3    H266648   1.181   6.676  12.008  3.0664 -0.3582  0.2660
15053TIP3   OH266649   1.240   1.062   6.236 -0.3237 -0.1639 -0.3093
15053TIP3    H166650   1.184   1.129   6.198  0.4290  1.2478  0.9463
15053TIP3    H266651   1.187   1.024   6.307 -0.1902  0.2517  0.0211
15054TIP3   OH266652   0.996   3.847  15.897 -0.2512 -0.1717 -0.3359
15054TIP3    H166653   1.080   3.885  15.872 -1.4401  2.0743 -1.1812
15054TIP3    H266654   0.976   3.785  15.827  0.7759 -0.9130 -0.0011
15055TIP3   OH266655   4.888   4.809   0.077  0.0483  0.7137 -0.1907
15055TIP3    H166656   4.822   4.879   0.077  1.2307  1.8906  1.0206
15055TIP3    H266657   4.859   4.748   0.145 -0.3482  0.6524 -0.4132
15056TIP3   OH266658   3.455   1.115   0.385 -0.5547  0.1427 -0.2756
15056TIP3    H166659   3.468   1.132   0.478 -0.6095 -0.8453 -0.0825
15056TIP3    H266660   3.543   1.105   0.350 -0.5760 -1.7414  0.1173
15057TIP3   OH266661   2.426   0.653   2.232  0.2936 -0.3222 -0.0624
15057TIP3    H166662   2.344   0.696   2.259  0.2516 -1.5934  2.0495
15057TIP3    H266663   2.454   0.702   2.155 -0.8648  2.1256  0.9543
15058TIP3   OH266664   2.045   3.565  14.776  0.5510 -0.1353  0.5312
15058TIP3    H166665   1.956   3.556  14.742  0.2529 -0.1140  1.2685
15058TIP3    H266666   2.079   3.644  14.735  0.0956  0.0550  0.5135
15059TIP3   OH266667   6.507   0.262  13.513  0.2217  0.5710 -0.2924
15059TIP3    H166668   6.545   0.275  13.426 -1.5426  0.4992 -1.1018
15059TIP3    H266669   6.428   0.316  13.514  1.1530  2.0837  1.9767
15060TIP3   OH266670   4.388   6.035   2.970  0.5058 -0.3859 -0.7046
15060TIP3    H166671   4.380   6.057   2.877  0.5461  1.3576 -0.3237
15060TIP3    H266672   4.408   5.941   2.970  1.6020 -0.2102 -2.5108
15061TIP3   OH266673   2.472   2.590  16.793  0.3566  0.0463  0.4479
15061TIP3    H166674   2.403   2.571  16.857  0.1395  0.3665  0.3107
15061TIP3    H266675   2.426   2.595  16.709  0.1859  2.3311  0.6018
15062TIP3   OH266676   6.180   3.692   3.093 -0.2708  0.3871  0.1768
15062TIP3    H166677   6.129   3.628   3.043  0.6653  0.0642 -0.3856
15062TIP3    H266678   6.177   3.771   3.040  1.5137 -0.2177 -0.9452
15063TIP3   OH266679   1.195   4.078  10.789  0.1144 -0.0329 -0.2431
15063TIP3    H166680   1.222   4.168  10.808 -0.6982  0.7961 -2.7129
15063TIP3    H266681   1.266   4.043  10.734  0.3091 -0.8445  0.5065
15064TIP3   OH266682   1.733   4.877  10.857  0.0342  0.4912 -0.5083
15064TIP3    H166683   1.743   4.897  10.950  1.4116 -2.4728  0.1145
15064TIP3    H266684   1.649   4.832  10.851  0.5232 -0.4668 -0.4112
15065TIP3   OH266685   2.609   4.711  12.802 -0.3774 -0.1424  0.3585
15065TIP3    H166686   2.594   4.792  12.755 -1.5972  0.1029  1.1235
15065TIP3    H266687   2.576   4.642  12.744 -0.6906  0.0393  0.3237
15066TIP3   OH266688   3.249   3.407  13.092 -0.0463  0.0104 -0.3534
15066TIP3    H166689   3.313   3.430  13.160 -1.0080 -1.6427  1.2092
15066TIP3    H266690   3.299   3.355  13.030  0.2215 -1.0827  0.7358
15067TIP3   OH266691   0.250   1.313  16.774  0.1244 -0.3196  0.3081
15067TIP3    H166692   0.166   1.314  16.820 -0.1144  1.3513 -0.0945
15067TIP3    H266693   0.309   1.360  16.832  0.2252  0.3858 -0.3512
15068TIP3   OH266694   1.444   0.034   1.982  0.2554 -0.1254 -0.3708
15068TIP3    H166695   1.414   0.041   1.891  0.9756 -1.7618 -0.7785
15068TIP3    H266696   1.529   0.078   1.982 -0.9687  2.4223  0.2361
15069TIP3   OH266697   3.105   5.026  14.321  0.3944  0.3501 -0.0948
15069TIP3    H166698   3.166   4.988  14.385 -1.4351 -2.1730  0.2817
15069TIP3    H266699   3.079   4.952  14.266 -2.3361  1.3122 -0.2195
15070TIP3   OH266700   3.206   4.731  11.259 -0.3026 -0.4841 -0.7819
15070TIP3    H166701   3.256   4.667  11.208 -0.1431  0.1433 -1.4314
15070TIP3    H266702   3.120   4.733  11.218 -0.7625 -1.2938  0.1093
15071TIP3   OH266703   4.589   2.341   1.983 -0.3082 -0.1297 -0.3709
15071TIP3    H166704   4.497   2.318   2.001 -0.4581  0.7886  0.0760
15071TIP3    H266705   4.588   2.436   1.972  0.7617  0.0096  0.6231
15072TIP3   OH266706   1.023   2.262  13.345  0.4550  0.0280 -0.0634
15072TIP3    H166707   1.086   2.325  13.380 -0.4378  0.6102  0.5177
15072TIP3    H266708   1.014   2.196  13.414 -0.2720  0.4508  0.2608
15073TIP3   OH266709   4.933   1.282  14.419 -0.6389 -0.1014  0.1908
15073TIP3    H166710   4.901   1.194  14.437  3.5417 -1.3505  2.5172
15073TIP3    H266711   4.927   1.328  14.502  0.0553  0.8181 -0.2471
15074TIP3   OH266712   3.978   1.771   3.187 -0.6447  0.5801 -0.1376
15074TIP3    H166713   4.024   1.842   3.233  0.3192 -0.5840  0.7427
15074TIP3    H266714   3.978   1.799   3.095  0.6369  1.2529  0.0406
15075TIP3   OH266715   2.433   2.573   4.086 -0.3512  0.1600 -0.3079
15075TIP3    H166716   2.342   2.544   4.080  0.3712 -2.7059  0.8247
15075TIP3    H266717   2.449   2.580   4.180  0.6149  0.6181 -0.5003
15076TIP3   OH266718   5.436   6.651  14.518 -0.2846 -0.3476 -0.2062
15076TIP3    H166719   5.384   6.712  14.570  2.2864  2.1628 -0.3162
15076TIP3    H266720   5.399   6.656  14.430 -0.2925  0.9018 -0.1491
15077TIP3   OH266721   1.014   4.380  11.914 -0.3838 -0.1232 -0.4955
15077TIP3    H166722   1.015   4.466  11.872  0.4484  1.0547  1.7562
15077TIP3    H266723   0.932   4.378  11.962  0.2335  0.0344  0.5949
15078TIP3   OH266724   2.388   2.974  13.766 -0.7083 -0.2448  0.5319
15078TIP3    H166725   2.293   2.966  13.773 -0.8599  0.4158 -0.5783
15078TIP3    H266726   2.405   3.068  13.767 -0.1272 -0.3389  0.0329
15079TIP3   OH266727   4.197   6.483  14.644 -0.0691 -0.7491  0.6442
15079TIP3    H166728   4.202   6.578  14.647 -1.0521 -0.6467 -0.4065
15079TIP3    H266729   4.265   6.453  14.705  1.4603  0.5890 -0.3484
15080TIP3   OH266730   4.283   0.196   0.499 -0.2715 -0.3669 -0.2131
15080TIP3    H166731   4.213   0.148   0.456 -0.3172 -2.2389  1.7562
15080TIP3    H266732   4.253   0.208   0.589  1.4331 -0.1963  0.3817
15081TIP3   OH266733   5.364   5.851  11.767  0.1004  0.1011  0.5157
15081TIP3    H166734   5.335   5.761  11.752  1.3074 -0.1150 -0.7179
15081TIP3    H266735   5.298   5.905  11.723  1.3973 -0.3817 -2.2706
15082TIP3   OH266736   5.829   1.393  10.811  0.6789  0.3753 -0.5934
15082TIP3    H166737   5.892   1.460  10.837  0.5834  1.2323 -2.4500
15082TIP3    H266738   5.755   1.443  10.775 -0.1614 -0.6829 -0.3815
15083TIP3   OH266739   0.721   3.083  11.164  0.4063 -0.6568  0.2591
15083TIP3    H166740   0.713   3.088  11.260  1.0458 -0.0093  0.2917
15083TIP3    H266741   0.632   3.067  11.134 -0.0732  0.6025  0.8926
15084TIP3   OH266742   1.999   6.125  14.219 -0.2544  0.1803 -0.5701
15084TIP3    H166743   1.945   6.161  14.290  0.8553  0.1008  0.3501
15084TIP3    H266744   2.003   6.196  14.154  1.7634  1.7784  1.1426
15085TIP3   OH266745   6.006   2.516  16.262 -0.6149 -0.1582 -0.6011
15085TIP3    H166746   6.090   2.472  16.273 -0.7510 -0.3650 -0.3730
15085TIP3    H266747   5.992   2.517  16.167  0.4580  1.4405 -0.7592
15086TIP3   OH266748   2.903   6.097   2.829  0.4903 -0.5901  0.1088
15086TIP3    H166749   2.900   6.017   2.880  1.9275  0.5809  2.1716
15086TIP3    H266750   2.819   6.140   2.845  0.6552 -0.5681  0.9504
15087TIP3   OH266751   5.246   4.150  13.016 -0.3563  0.6346  0.7453
15087TIP3    H166752   5.276   4.238  12.995  4.0417 -0.9567 -1.0447
15087TIP3    H266753   5.255   4.142  13.111  0.5249  1.7402  0.7667
15088TIP3   OH266754   5.137   4.466   1.818 -0.3251  0.3941  0.5038
15088TIP3    H166755   5.050   4.490   1.786 -1.2140 -0.4611  2.1255
15088TIP3    H266756   5.181   4.427   1.743 -1.5473  0.3451 -0.2052
15089TIP3   OH266757   3.868   4.598   2.127 -0.5040 -0.2188  0.1582
15089TIP3    H166758   3.817   4.604   2.208  0.6611  0.3570  0.8737
15089TIP3    H266759   3.959   4.600   2.156 -0.0433 -1.7423 -1.0610
15090TIP3   OH266760   5.782   3.265   4.664  0.0066  0.3289  0.2478
15090TIP3    H166761   5.828   3.349   4.671 -0.1748  0.4176  0.3741
15090TIP3    H266762   5.844   3.202   4.700  0.0686  0.4351  0.3309
15091TIP3   OH266763   0.549   2.951  13.072  0.0790 -0.1510  0.0955
15091TIP3    H166764   0.509   3.031  13.106 -0.6807 -0.5312  0.1165
15091TIP3    H266765   0.573   2.973  12.982 -3.3601 -0.9265 -1.1458
15092TIP3   OH266766   0.792   2.516  14.495 -0.2821  0.1152 -0.5441
15092TIP3    H166767   0.845   2.513  14.415 -0.0138 -1.5887 -0.3480
15092TIP3    H266768   0.767   2.425  14.510 -0.0615  0.3482  1.4849
15093TIP3   OH266769   5.604   6.520   3.428 -0.0959  0.0856  0.8718
15093TIP3    H166770   5.581   6.432   3.458 -0.2669 -0.1709  0.0181
15093TIP3    H266771   5.679   6.545   3.483 -0.0285 -0.6044  1.1026
15094TIP3   OH266772   6.450   3.163   5.722  0.0244 -0.3967  0.1279
15094TIP3    H166773   6.540   3.168   5.755 -0.2961 -0.3127  1.0015
15094TIP3    H266774   6.438   3.071   5.702  0.4036 -0.3628 -0.2816
15095TIP3   OH266775   3.697   0.963  11.883  0.1333 -0.3302 -0.1609
15095TIP3    H166776   3.632   0.892  11.883 -0.1379 -0.2892  3.6332
15095TIP3    H266777   3.780   0.920  11.862 -0.6834 -0.8385 -2.5943
15096TIP3   OH266778   1.392   3.786  16.986 -0.4415 -0.6096 -0.1110
15096TIP3    H166779   1.446   3.822  17.056 -0.2767  1.1975 -1.1101
15096TIP3    H266780   1.443   3.712  16.952  1.3605  0.8809 -0.8430
15097TIP3   OH266781   1.159   4.112   5.231 -0.2034 -0.1955 -0.2428
15097TIP3    H166782   1.113   4.172   5.172  1.5453 -0.4052 -1.8969
15097TIP3    H266783   1.093   4.089   5.297 -1.8310  1.1054 -1.3264
15098TIP3   OH266784   5.800   1.238   4.966 -0.7066  0.1991  0.1711
15098TIP3    H166785   5.810   1.176   5.039  0.6372  0.1663 -0.0206
15098TIP3    H266786   5.866   1.212   4.903 -0.2471  1.7119 -0.0051
15099TIP3   OH266787   2.932   5.175  12.015  0.3438  0.7591  0.4656
15099TIP3    H166788   2.890   5.092  11.989  1.4094 -0.2087  1.6660
15099TIP3    H266789   2.861   5.226  12.053  0.2413 -1.0869  3.0316
15100TIP3   OH266790   6.450   3.191  13.124 -0.6575  0.3047  0.3158
15100TIP3    H166791   6.409   3.105  13.115 -1.6568  0.7442  0.5404
15100TIP3    H266792   6.418   3.241  13.049  0.1906  0.3832 -0.0045
15101TIP3   OH266793   6.383   3.918  13.693  0.1326 -0.0100  0.3779
15101TIP3    H166794   6.334   3.983  13.642  2.2145  1.3263 -0.0944
15101TIP3    H266795   6.396   3.960  13.778  0.7615 -0.1606  0.3606
15102TIP3   OH266796   0.511   0.830   3.679 -0.2606  0.1871  0.4464
15102TIP3    H166797   0.556   0.912   3.699  0.8619 -0.4919  0.8106
15102TIP3    H266798   0.422   0.857   3.656 -0.2052  1.4277  1.5101
15103TIP3   OH266799   4.964   6.644   5.928  0.1935  0.2288 -0.1307
15103TIP3    H166800   4.881   6.691   5.938  1.0341  1.7162  0.1709
15103TIP3    H266801   4.994   6.666   5.840 -0.7374 -2.0912 -1.1214
15104TIP3   OH266802   2.314   6.256   1.065 -0.1669 -0.2341  0.2994
15104TIP3    H166803   2.253   6.329   1.074 -0.6940 -0.7608  1.1167
15104TIP3    H266804   2.357   6.271   0.981  0.0785  1.2730  0.6595
15105TIP3   OH266805   1.491   6.807   2.419  0.2374  0.1429 -0.3181
15105TIP3    H166806   1.409   6.810   2.469 -0.7596 -0.0363 -1.8907
15105TIP3    H266807   1.467   6.769   2.335  1.6640  1.3568 -1.3323
15106TIP3   OH266808   0.090   6.171  13.241 -0.0914  0.3667 -0.1287
15106TIP3    H166809   0.152   6.210  13.302 -0.9013  0.8906  0.3871
15106TIP3    H266810   0.016   6.146  13.296 -0.4630  0.0306 -0.7743
15107TIP3   OH266811   3.801   0.462  14.780 -0.2534  0.0830 -0.0020
15107TIP3    H166812   3.851   0.404  14.723  1.2629 -1.0706  2.3516
15107TIP3    H266813   3.867   0.512  14.827 -1.3657 -0.1384  1.8820
15108TIP3   OH266814   1.496   1.334   4.058 -0.1439 -0.0459 -0.0034
15108TIP3    H166815   1.402   1.328   4.074  0.0775 -1.7685  0.8681
15108TIP3    H266816   1.509   1.286   3.976 -0.0539  0.4895 -0.3070
15109TIP3   OH266817   1.141   3.010  15.942 -0.2465  0.2162 -0.2182
15109TIP3    H166818   1.181   3.037  15.859  1.3264 -0.4321  0.2981
15109TIP3    H266819   1.192   3.055  16.009  0.0449 -1.1603  0.4956
15110TIP3   OH266820   4.506   0.306   5.545  0.3879 -0.4838  0.0564
15110TIP3    H166821   4.535   0.219   5.521 -0.1226 -0.6305 -0.0378
15110TIP3    H266822   4.552   0.365   5.485  0.7809 -0.6808  0.1644
15111TIP3   OH266823   1.063   2.340  12.020  0.1067  0.1579 -0.0571
15111TIP3    H166824   1.020   2.297  11.946  0.9604  0.9026 -1.0211
15111TIP3    H266825   1.148   2.296  12.027  0.1470  0.2891  0.2896
15112TIP3   OH266826   3.503   0.264  14.556 -0.3858 -0.3568  0.3181
15112TIP3    H166827   3.532   0.334  14.615 -0.9113 -0.1671  0.3585
15112TIP3    H266828   3.508   0.303  14.468 -1.9916  0.2270  0.4396
15113TIP3   OH266829   6.118   0.099   3.119 -0.1809  0.4675 -0.2633
15113TIP3    H166830   6.202   0.056   3.102  1.4609  3.2358  0.2327
15113TIP3    H266831   6.053   0.030   3.105  2.0927 -1.6387 -1.3196
15114TIP3   OH266832   1.183   0.071   2.315  0.2224 -0.3051 -0.2539
15114TIP3    H166833   1.198   0.053   2.408  0.1833 -2.0823 -0.5717
15114TIP3    H266834   1.087   0.072   2.307  0.2248 -1.1342 -0.4434
15115TIP3   OH266835   4.091   6.431  14.032 -0.3742  0.0509 -0.4124
15115TIP3    H166836   4.142   6.413  13.953  1.9283 -0.2171  1.0219
15115TIP3    H266837   4.093   6.349  14.081  0.5787  0.9436  1.1152
15116TIP3   OH266838   2.926   4.743  17.087 -0.9975  0.8546 -0.1911
15116TIP3    H166839   2.995   4.687  17.050 -1.0629  2.1889 -2.5773
15116TIP3    H266840   2.972   4.797  17.152 -0.0181  0.8987 -0.8880
15117TIP3   OH266841   4.696   2.568  14.407 -0.1543  0.0912 -0.7771
15117TIP3    H166842   4.777   2.606  14.440  1.2034 -3.1293 -0.0615
15117TIP3    H266843   4.627   2.621  14.447  1.4545 -0.8310  3.8481
15118TIP3   OH266844   6.654   3.539   4.532  0.2616  0.0570 -0.0872
15118TIP3    H166845   6.569   3.508   4.500  0.5703 -0.7140 -0.2051
15118TIP3    H266846   6.715   3.514   4.463  0.6006  0.4825  0.0610
15119TIP3   OH266847   1.193   0.180  11.217  0.3537  0.1116 -0.1156
15119TIP3    H166848   1.240   0.115  11.270 -0.2467  0.7682  1.2796
15119TIP3    H266849   1.257   0.207  11.151  1.4194 -0.1719  0.7511
15120TIP3   OH266850   6.659   4.696  14.106 -0.5127 -0.0359 -0.1725
15120TIP3    H166851   6.702   4.683  14.191  2.6046 -1.4389 -1.8050
15120TIP3    H266852   6.609   4.616  14.092  0.8770 -0.8804 -0.5879
15121TIP3   OH266853   5.958   6.284   5.288  0.4703 -0.0567 -0.4039
15121TIP3    H166854   5.970   6.200   5.244 -2.1007 -0.1643 -1.0869
15121TIP3    H266855   5.866   6.306   5.273  0.6206  2.0615  1.2296
15122TIP3   OH266856   6.496   4.344   1.930  0.0511  0.5658  0.0513
15122TIP3    H166857   6.412   4.306   1.902 -0.0901  0.0326  1.1426
15122TIP3    H266858   6.560   4.308   1.868 -0.5643  1.3438 -1.0836
15123TIP3   OH266859   4.492   6.178   1.878 -0.4937 -0.0256 -0.1624
15123TIP3    H166860   4.570   6.145   1.922 -0.5836  0.9307  0.7461
15123TIP3    H266861   4.492   6.272   1.895 -1.7012  0.0322 -0.3769
15124TIP3   OH266862   1.167   2.922   1.910 -0.0801 -0.2226  0.3802
15124TIP3    H166863   1.145   2.830   1.895  0.7773 -0.4927  0.6950
15124TIP3    H266864   1.107   2.971   1.854 -1.9122 -0.8673  1.7077
15125TIP3   OH266865   5.133   6.605   4.175 -0.0350 -0.4894 -0.6608
15125TIP3    H166866   5.181   6.657   4.110 -0.4111 -1.2595 -1.5768
15125TIP3    H266867   5.051   6.584   4.132 -0.0664 -1.4804 -0.1371
15126TIP3   OH266868   0.636   2.249  11.247 -0.0606  0.5646  0.3650
15126TIP3    H166869   0.639   2.258  11.152 -1.1534 -0.2581  0.2355
15126TIP3    H266870   0.596   2.330  11.278 -1.2357  0.1580 -0.0295
15127TIP3   OH266871   1.512   3.343  14.108 -0.5010 -0.1999  0.5276
15127TIP3    H166872   1.459   3.335  14.187  0.8620 -1.2874  1.3665
15127TIP3    H266873   1.572   3.268  14.111  1.2709  1.1070 -0.2236
15128TIP3   OH266874   6.591   5.122  15.988 -0.3785 -0.0851  0.1804
15128TIP3    H166875   6.644   5.077  16.054 -2.3608 -1.7778  0.7464
15128TIP3    H266876   6.600   5.069  15.909  1.8155  1.8162 -0.9455
15129TIP3   OH266877   5.026   6.620  14.069 -0.5141 -0.0139 -0.1109
15129TIP3    H166878   5.092   6.639  14.003 -1.4882 -0.7715 -1.3457
15129TIP3    H266879   5.075   6.589  14.145  0.5888  0.3727 -0.6506
15130TIP3   OH266880   3.234   1.090   5.144  0.5898  0.2842 -0.3260
15130TIP3    H166881   3.183   1.043   5.078  0.0734 -0.6790  0.7172
15130TIP3    H266882   3.322   1.096   5.106  0.3615 -0.4467 -1.0080
15131TIP3   OH266883   6.194   3.535   3.690  0.4773 -0.2039  0.6204
15131TIP3    H166884   6.170   3.543   3.598 -0.3768  0.3838  0.8851
15131TIP3    H266885   6.278   3.582   3.697  2.1348 -2.7886 -0.4242
15132TIP3   OH266886   1.572   5.658  16.087 -0.3032 -0.5806  0.8128
15132TIP3    H166887   1.543   5.745  16.058  0.6612 -0.5057  0.0253
15132TIP3    H266888   1.557   5.658  16.182 -0.2126  0.4811  0.8372
15133TIP3   OH266889   5.461   6.696  17.199 -0.0003  0.0797 -0.2759
15133TIP3    H166890   5.408   6.774  17.217  0.7199  0.4724  0.2269
15133TIP3    H266891   5.406   6.623  17.226 -0.4334  0.4582 -0.1157
15134TIP3   OH266892   5.689   0.241   2.476 -0.4531 -0.0965 -0.1545
15134TIP3    H166893   5.665   0.334   2.486  0.0374  0.2096 -1.6496
15134TIP3    H266894   5.661   0.219   2.387 -2.1812 -1.9067  0.7661
15135TIP3   OH266895   1.911   6.303   1.617  0.3787  0.5807  0.0998
15135TIP3    H166896   1.819   6.308   1.591  0.7379  1.0798 -1.1770
15135TIP3    H266897   1.926   6.383   1.668 -0.0593  0.1564  0.9033
15136TIP3   OH266898   0.969   3.997  12.670 -0.0485 -0.2458  0.1271
15136TIP3    H166899   0.883   4.036  12.653 -0.5783 -1.0987  0.7464
15136TIP3    H266900   0.951   3.923  12.728  1.3280  0.7778  1.9765
15137TIP3   OH266901   2.470   3.425  10.812 -0.4456 -0.4155  0.1157
15137TIP3    H166902   2.441   3.483  10.742 -0.0882 -1.6672 -1.1061
15137TIP3    H266903   2.564   3.443  10.820 -0.6967  0.5887  1.1476
15138TIP3   OH266904   0.936   0.689  14.960 -0.1236 -0.4207  0.0574
15138TIP3    H166905   0.898   0.602  14.948  1.5760 -1.1149 -0.5534
15138TIP3    H266906   0.951   0.696  15.054 -0.3406 -0.7482  0.1175
15139TIP3   OH266907   4.608   6.621   4.856  0.3445 -0.5002 -0.0625
15139TIP3    H166908   4.542   6.656   4.795 -0.2005 -2.5832 -0.7417
15139TIP3    H266909   4.593   6.527   4.856  2.3627 -0.8704  0.9554
15140TIP3   OH266910   0.855   1.366  13.144 -0.6512 -0.0595 -0.0665
15140TIP3    H166911   0.794   1.417  13.198  0.9518 -0.1649  1.9742
15140TIP3    H266912   0.928   1.425  13.127 -0.3775 -0.5696 -0.7162
15141TIP3   OH266913   3.969   6.601  16.895 -0.0138  0.6998  0.2146
15141TIP3    H166914   3.923   6.516  16.892 -0.0772  0.5851  2.6674
15141TIP3    H266915   4.062   6.578  16.886 -0.1898  0.8201 -3.3872
15142TIP3   OH266916   0.889   4.763   4.060 -0.3182  0.3198  0.2429
15142TIP3    H166917   0.973   4.730   4.029  0.5546  1.1672  1.5785
15142TIP3    H266918   0.824   4.723   4.003  0.8579 -1.7134  0.2561
15143TIP3   OH266919   2.346   1.862   3.330 -0.0857 -0.5416 -0.1735
15143TIP3    H166920   2.300   1.927   3.277 -0.4559  0.1823  1.0013
15143TIP3    H266921   2.436   1.894   3.333  0.3082 -1.4207 -1.6311
15144TIP3   OH266922   6.263   5.767   3.033 -0.2873 -0.0851 -0.1452
15144TIP3    H166923   6.182   5.720   3.010 -1.0742  0.8898  0.5200
15144TIP3    H266924   6.305   5.713   3.098 -0.7310 -0.3082 -0.0389
15145TIP3   OH266925   2.941   1.892   0.966  0.7080 -0.1674  0.1001
15145TIP3    H166926   2.927   1.801   0.940 -2.2163  0.1085  0.4073
15145TIP3    H266927   2.968   1.886   1.058  0.1644 -0.7027  0.2299
15146TIP3   OH266928   4.803   1.319  15.583 -0.5979 -0.1548 -0.1806
15146TIP3    H166929   4.839   1.231  15.595  1.3340  0.6440  0.1607
15146TIP3    H266930   4.711   1.311  15.609 -0.5055 -2.0951 -0.3097
15147TIP3   OH266931   2.512   4.108   4.471 -0.5570  0.0178 -0.0434
15147TIP3    H166932   2.591   4.111   4.417 -0.8649  0.9189 -0.4561
15147TIP3    H266933   2.459   4.039   4.431  0.6004 -1.6228  1.0940
15148TIP3   OH266934   1.972   5.717  13.862  0.5093 -0.2686 -0.0573
15148TIP3    H166935   1.915   5.751  13.931  0.8510  3.1038 -1.2243
15148TIP3    H266936   2.060   5.728  13.898  0.6116 -1.7208  0.2023
15149TIP3   OH266937   2.498   1.687  17.116  0.2213 -0.5268  0.6404
15149TIP3    H166938   2.468   1.615  17.171 -0.9700 -1.7978 -1.4966
15149TIP3    H266939   2.442   1.682  17.038  2.9999 -0.0539 -1.5353
15150TIP3   OH266940   3.210   2.175  11.848  0.2089  0.3308  0.0536
15150TIP3    H166941   3.152   2.237  11.892 -2.2751 -1.5414 -0.3746
15150TIP3    H266942   3.230   2.215  11.764  0.5658  1.5228  0.6780
15151TIP3   OH266943   4.527   0.756  12.486 -0.1183 -0.5970  0.4093
15151TIP3    H166944   4.482   0.739  12.569  0.3844 -1.5419  0.4981
15151TIP3    H266945   4.615   0.722  12.499 -0.0934 -0.9364 -0.5832
15152TIP3   OH266946   4.694   2.273  15.678  0.3037 -0.5539  0.7656
15152TIP3    H166947   4.641   2.351  15.696  0.9068 -0.1519  0.8406
15152TIP3    H266948   4.657   2.205  15.734  1.0888  0.2308  2.3009
15153TIP3   OH266949   3.473   3.985  13.227 -0.1930  0.4465 -0.3588
15153TIP3    H166950   3.461   3.918  13.161  0.5781 -0.3679  0.3001
15153TIP3    H266951   3.552   3.958  13.275 -2.6159 -1.0767  3.2479
15154TIP3   OH266952   5.583   5.885   2.169  0.4188 -0.0939 -0.4172
15154TIP3    H166953   5.577   5.955   2.234 -0.0759  0.6674 -1.2544
15154TIP3    H266954   5.505   5.832   2.183 -0.0621  0.4833 -0.8284
15155TIP3   OH266955   3.375   6.543  13.542 -0.0898 -0.6521  0.4569
15155TIP3    H166956   3.356   6.500  13.459  0.6957  1.0049 -0.6542
15155TIP3    H266957   3.315   6.617  13.546 -0.4460 -0.9764  1.6221
15156TIP3   OH266958   5.776   1.711  12.254  0.1919 -0.0854  0.0397
15156TIP3    H166959   5.756   1.618  12.259 -1.7775  0.3446  1.3252
15156TIP3    H266960   5.780   1.739  12.346 -1.9794  1.5849 -0.3088
15157TIP3   OH266961   0.854   6.494  11.282  0.0948 -0.3165  0.1008
15157TIP3    H166962   0.856   6.588  11.301  1.0949  0.0055 -1.4134
15157TIP3    H266963   0.864   6.452  11.368  2.6401  1.0004  0.5435
15158TIP3   OH266964   2.027   2.937  14.547 -0.3936 -0.0039 -0.5685
15158TIP3    H166965   2.017   3.013  14.490  1.3339  0.7609  0.0596
15158TIP3    H266966   2.095   2.963  14.610 -1.2410 -1.3156  0.9765
15159TIP3   OH266967   1.422   4.087  15.733  0.1446  0.4601 -0.1337
15159TIP3    H166968   1.336   4.049  15.752  0.1685  0.0314 -0.8374
15159TIP3    H266969   1.468   4.018  15.685 -0.2864  1.8114 -2.6439
15160TIP3   OH266970   6.600   6.410  14.184  0.3494 -0.1708 -0.0115
15160TIP3    H166971   6.512   6.377  14.167 -0.1174  0.1003  1.6500
15160TIP3    H266972   6.620   6.468  14.111 -1.3710  0.7325  0.1960
15161TIP3   OH266973   1.724   0.668   6.534  0.6034  0.1170 -0.6185
15161TIP3    H166974   1.742   0.761   6.522  1.7234 -0.0181 -0.1637
15161TIP3    H266975   1.673   0.664   6.615 -0.9014  0.4523 -1.5218
15162TIP3   OH266976   0.766   0.637   5.200 -0.1085 -0.0085 -0.2424
15162TIP3    H166977   0.824   0.572   5.240  0.3325 -0.0787 -0.9738
15162TIP3    H266978   0.824   0.711   5.180 -0.5466  0.4946  0.3048
15163TIP3   OH266979   1.818   5.433  14.554 -0.0402  0.1574  0.1215
15163TIP3    H166980   1.800   5.387  14.636 -1.4866 -1.0893 -0.8472
15163TIP3    H266981   1.914   5.435  14.549  0.0681 -0.2984  1.5289
15164TIP3   OH266982   1.938   4.770   0.893 -1.0859  0.2008 -0.5002
15164TIP3    H166983   2.012   4.816   0.931 -1.3032  0.2594 -0.1495
15164TIP3    H266984   1.893   4.731   0.967 -1.8573  0.8236 -0.6283
15165TIP3   OH266985   4.462   4.269  13.351 -0.4208 -0.2162 -0.2012
15165TIP3    H166986   4.421   4.252  13.436 -2.3853  0.1458 -1.0197
15165TIP3    H266987   4.392   4.309  13.299  1.0538  0.5733 -1.6525
15166TIP3   OH266988   4.733   2.517   2.415 -0.2576 -0.4358 -0.1764
15166TIP3    H166989   4.763   2.427   2.406  0.8301 -0.1674  0.5742
15166TIP3    H266990   4.805   2.562   2.457 -1.6475  0.2873  1.5479
15167TIP3   OH266991   4.782   4.748  14.145  0.0725  0.8197 -0.0232
15167TIP3    H166992   4.709   4.811  14.145  0.7590  1.6691  1.5226
15167TIP3    H266993   4.860   4.803  14.148  0.7299 -0.0984 -0.1794
15168TIP3   OH266994   1.594   4.660   0.348  0.4397 -0.4860  0.2787
15168TIP3    H166995   1.558   4.682   0.434  0.2093 -2.4876  0.7309
15168TIP3    H266996   1.525   4.611   0.304  1.0432 -0.6221 -0.5495
15169TIP3   OH266997   5.396   2.308  17.021 -0.0052 -0.0741  0.4516
15169TIP3    H166998   5.423   2.235  16.965 -0.6956  0.6671 -0.8796
15169TIP3    H266999   5.321   2.274  17.069  0.9031 -0.8834  1.3684
15170TIP3   OH267000   0.430   6.034  11.901 -0.2303  0.0927 -0.0277
15170TIP3    H167001   0.352   5.983  11.880 -0.0936  0.4772 -1.5586
15170TIP3    H267002   0.401   6.125  11.896 -0.3269  0.2243  2.1112
15171TIP3   OH267003   5.643   0.845  11.361  0.1939  0.3916  0.8702
15171TIP3    H167004   5.596   0.923  11.334  0.1515  0.3161  0.7235
15171TIP3    H267005   5.709   0.831  11.293 -1.8677 -1.5427 -0.8866
15172TIP3   OH267006   1.485   1.869  16.607  0.1850 -0.0459 -0.0629
15172TIP3    H167007   1.480   1.787  16.559 -0.7368  0.3870 -0.7302
15172TIP3    H267008   1.452   1.935  16.547 -0.2597  0.6302  0.8872
15173TIP3   OH267009   3.382   0.570   1.963 -0.4220 -0.0555  0.1354
15173TIP3    H167010   3.436   0.529   1.896 -0.0758  0.6658 -0.0328
15173TIP3    H267011   3.335   0.640   1.918 -0.3630  0.2863  0.5928
15174TIP3   OH267012   2.265   6.671  16.149 -0.0261 -0.1065  0.5097
15174TIP3    H167013   2.270   6.618  16.229  1.4218  1.2426  1.3831
15174TIP3    H267014   2.356   6.682  16.121 -0.3711  0.9311 -0.2954
15175TIP3   OH267015   0.499   5.059   2.473  0.0387  0.3087  0.7253
15175TIP3    H167016   0.457   5.100   2.397  0.0645  0.0842  0.5892
15175TIP3    H267017   0.565   5.123   2.501 -1.6190  1.5151  2.0893
15176TIP3   OH267018   0.331   1.320   3.066 -0.7009  0.4430  0.5116
15176TIP3    H167019   0.261   1.386   3.070 -1.6331 -0.5593  1.4474
15176TIP3    H267020   0.398   1.353   3.125 -1.2031  0.5245  1.0454
15177TIP3   OH267021   3.676   1.985  15.357  0.1212  0.0798 -0.2965
15177TIP3    H167022   3.741   2.020  15.418  0.1925  1.8168 -1.3190
15177TIP3    H267023   3.657   1.897  15.391  2.6589 -0.3289  0.2856
15178TIP3   OH267024   3.224   1.262   4.611 -0.1336 -0.3556 -0.0356
15178TIP3    H167025   3.317   1.254   4.633 -0.5445 -0.7568  1.6561
15178TIP3    H267026   3.192   1.172   4.609 -0.3028 -0.3021 -1.6736
15179TIP3   OH267027   5.367   1.296  11.187 -0.1021 -0.9878  0.3188
15179TIP3    H167028   5.434   1.344  11.139  0.3071 -0.6412  1.2364
15179TIP3    H267029   5.294   1.358  11.193 -0.7035 -1.5065 -1.0505
15180TIP3   OH267030   3.739   5.327   2.919  0.1220  0.3324 -0.0905
15180TIP3    H167031   3.767   5.400   2.973  1.2487 -0.0297 -0.1541
15180TIP3    H267032   3.686   5.366   2.851  0.1589  1.0085  0.2615
15181TIP3   OH267033   3.774   3.323  14.721 -0.3313 -0.0195 -0.1382
15181TIP3    H167034   3.816   3.347  14.804 -0.8814  0.7624 -0.0776
15181TIP3    H267035   3.694   3.375  14.718 -0.2808  0.0280 -1.1962
15182TIP3   OH267036   0.959   3.196   4.504 -0.3988  0.5205 -0.2735
15182TIP3    H167037   1.010   3.174   4.427 -0.2065 -1.9460  0.4752
15182TIP3    H267038   1.024   3.217   4.571 -0.5513  2.1427 -0.6016
15183TIP3   OH267039   0.527   2.005   4.797  0.2724 -1.2805 -0.7848
15183TIP3    H167040   0.448   1.975   4.842 -0.1816 -0.0483 -0.7266
15183TIP3    H267041   0.597   1.954   4.837 -0.3374 -1.4763  0.0731
15184TIP3   OH267042   5.919   4.444  16.970  0.1055  0.1764 -0.3588
15184TIP3    H167043   6.013   4.460  16.981  0.2319 -0.4092 -0.5263
15184TIP3    H267044   5.890   4.411  17.055 -0.0091  0.6408 -0.2183
15185TIP3   OH267045   6.796   5.358   4.822  0.1928 -0.6453  0.1568
15185TIP3    H167046   6.737   5.376   4.750  2.0670 -0.1128 -1.3265
15185TIP3    H267047   6.795   5.263   4.832 -0.5007 -0.6730 -0.1809
15186TIP3   OH267048   1.494   0.264   5.609 -0.0479 -0.6233  0.2641
15186TIP3    H167049   1.439   0.288   5.684  1.7457  0.5119  1.3047
15186TIP3    H267050   1.533   0.180   5.634  0.1859 -0.4746  0.4042
15187TIP3   OH267051   0.053   5.850   3.106  0.1774  0.9588 -0.0858
15187TIP3    H167052   0.041   5.944   3.091  0.1721  1.0256  0.3053
15187TIP3    H267053  -0.020   5.826   3.164 -0.4677  0.4719 -1.0705
15188TIP3   OH267054   2.765   3.784  15.403 -0.8066 -0.5793  0.2452
15188TIP3    H167055   2.710   3.735  15.342 -1.4690  0.4132  0.0098
15188TIP3    H267056   2.703   3.838  15.452 -0.0381  0.8091 -0.2493
15189TIP3   OH267057   4.256   1.886  11.982  0.1114 -0.4313 -0.3645
15189TIP3    H167058   4.174   1.838  11.994 -0.0277 -0.1086 -0.0019
15189TIP3    H267059   4.233   1.957  11.922  0.4738 -1.1989 -1.4521
15190TIP3   OH267060   2.372   1.115   4.394 -0.5245 -0.0655  0.0728
15190TIP3    H167061   2.279   1.134   4.399 -0.5119 -0.3663  2.4688
15190TIP3    H267062   2.376   1.021   4.377 -0.6681 -0.1201  0.3355
15191TIP3   OH267063   1.519   6.421   0.241  0.0996 -0.2289 -0.6789
15191TIP3    H167064   1.565   6.505   0.250  0.2274 -0.1946 -1.6309
15191TIP3    H267065   1.446   6.429   0.302 -0.3199  0.8864 -1.2863
15192TIP3   OH267066   6.240   2.826   4.664  0.5791  0.3549  0.1601
15192TIP3    H167067   6.182   2.887   4.618 -1.0019 -0.0798  1.4783
15192TIP3    H267068   6.231   2.744   4.616 -1.0542 -0.0940  1.1639
15193TIP3   OH267069   1.886   5.497   0.416  0.1351  0.9611 -0.2667
15193TIP3    H167070   1.972   5.509   0.455  0.4370 -0.2410 -0.5043
15193TIP3    H267071   1.870   5.402   0.422 -1.2066  1.1762 -0.1447
15194TIP3   OH267072   1.129   6.605  13.466  0.0494  0.4315 -0.1595
15194TIP3    H167073   1.170   6.519  13.468  0.6977  0.7467  0.2956
15194TIP3    H267074   1.193   6.660  13.421 -0.4760  0.6212 -0.6842
15195TIP3   OH267075   1.782   0.182  13.342 -0.1364 -0.3242 -0.4863
15195TIP3    H167076   1.735   0.223  13.414  1.0272  2.9482 -1.4412
15195TIP3    H267077   1.783   0.248  13.273  2.9833 -1.4719 -1.7032
15196TIP3   OH267078   6.474   3.016  14.715 -0.0909 -0.7610  0.4405
15196TIP3    H167079   6.448   3.099  14.755  1.1854 -1.2251  2.3790
15196TIP3    H267080   6.485   2.956  14.789 -1.9347 -2.9960 -0.9695
15197TIP3   OH267081   0.071   3.797   0.281  0.8027 -0.4368  0.5741
15197TIP3    H167082   0.090   3.889   0.298 -0.5044 -0.0524  0.0675
15197TIP3    H267083   0.157   3.756   0.275  1.4022  0.3757  2.6431
15198TIP3   OH267084   0.660   5.425  14.287  0.5429 -0.2474  0.0579
15198TIP3    H167085   0.660   5.506  14.235  3.0297  0.2490  0.6931
15198TIP3    H267086   0.660   5.455  14.378 -1.0436 -1.0651  0.3661
15199TIP3   OH267087   0.285   6.189  13.780 -0.4737 -0.4405  0.2454
15199TIP3    H167088   0.232   6.120  13.740 -0.8908  0.8020 -1.5079
15199TIP3    H267089   0.359   6.201  13.720  1.9222 -2.1418  2.6559
15200TIP3   OH267090   2.396   3.071  10.596  0.3501  0.0033 -0.2995
15200TIP3    H167091   2.325   3.080  10.533  2.2556 -0.2374 -2.6437
15200TIP3    H267092   2.393   2.980  10.624 -0.4977  0.1043 -0.0512
15201TIP3   OH267093   5.941   3.787   0.051  0.4586  0.3186 -0.1813
15201TIP3    H167094   5.857   3.767   0.090  0.3182  0.7325 -0.2580
15201TIP3    H267095   6.004   3.778   0.122  0.6567 -2.0596 -0.5994
15202TIP3   OH267096   6.108   2.631  12.032  0.6497  0.2407 -0.1570
15202TIP3    H167097   6.049   2.669  11.967  0.4997  0.4582  0.1077
15202TIP3    H267098   6.192   2.675  12.016  0.5850  0.3741 -0.1336
15203TIP3   OH267099   2.988   5.808   0.906  0.1096 -0.2643 -0.0278
15203TIP3    H167100   3.012   5.716   0.909 -0.6124 -0.4401  0.5818
15203TIP3    H267101   3.012   5.836   0.817  0.2840 -1.0420 -0.2358
15204TIP3   OH267102   0.053   5.404  15.110  0.1836 -0.1000 -0.3634
15204TIP3    H167103   0.088   5.487  15.143  0.3982 -0.5264  0.5228
15204TIP3    H267104   0.128   5.361  15.069 -0.0545  0.3754 -1.3254
15205TIP3   OH267105   3.493   5.445  12.816  0.1038  0.1477  0.1291
15205TIP3    H167106   3.521   5.515  12.874  1.6409 -0.4921  0.2087
15205TIP3    H267107   3.449   5.382  12.874  1.5997 -0.4715  0.6207
15206TIP3   OH267108   1.151   3.834   0.388 -0.0859 -0.3478  0.6900
15206TIP3    H167109   1.134   3.813   0.297  1.1562 -0.2569  0.4238
15206TIP3    H267110   1.071   3.878   0.418 -0.0862  0.6238 -0.6706
15207TIP3   OH267111   5.107   4.245   2.063 -0.4146 -0.7755  0.1904
15207TIP3    H167112   5.178   4.190   2.097 -0.0477 -0.0868  0.5714
15207TIP3    H267113   5.083   4.204   1.980  1.6003 -0.0980 -0.8116
15208TIP3   OH267114   4.123   1.115   1.954 -0.2115 -0.0531  0.5084
15208TIP3    H167115   4.057   1.055   1.921  1.1916 -0.6903 -1.3502
15208TIP3    H267116   4.147   1.081   2.040 -1.8854 -0.0930  0.9915
15209TIP3   OH267117   6.475   6.796   2.584 -0.3076  0.1299 -0.2146
15209TIP3    H167118   6.526   6.873   2.612  0.2987 -0.8988  1.7286
15209TIP3    H267119   6.450   6.816   2.494 -0.1569  2.5862  0.2021
15210TIP3   OH267120   3.941   5.370  15.816 -0.0155 -0.7152  0.2314
15210TIP3    H167121   3.943   5.452  15.768 -1.5112  0.2295  1.6810
15210TIP3    H267122   3.918   5.395  15.906  1.1599 -2.5575  1.1155
15211TIP3   OH267123   0.062   0.521  15.198 -0.3381 -0.2732  0.3896
15211TIP3    H167124   0.126   0.580  15.157 -1.8119  0.7960 -0.4858
15211TIP3    H267125   0.050   0.451  15.133 -0.9435  0.1844 -0.0067
15212TIP3   OH267126   3.846   5.760  11.105 -0.2272 -0.4461 -0.6562
15212TIP3    H167127   3.842   5.826  11.035 -0.0271 -0.0095 -0.2605
15212TIP3    H267128   3.923   5.708  11.083  0.0876 -0.0404 -0.5303
15213TIP3   OH267129   2.137   2.121   5.695  0.0729 -0.5834 -0.2567
15213TIP3    H167130   2.064   2.062   5.676 -0.1731 -1.0422  1.8461
15213TIP3    H267131   2.156   2.106   5.788  1.3016  1.2516 -0.1658
15214TIP3   OH267132   6.084   6.148  15.631  0.1307  0.1381  0.3514
15214TIP3    H167133   6.096   6.150  15.536 -2.3985  0.4026 -0.0293
15214TIP3    H267134   6.046   6.233  15.652 -2.0734 -0.9799  1.1256
15215TIP3   OH267135   1.833   3.197  13.131 -0.3572  0.3267 -0.0720
15215TIP3    H167136   1.870   3.280  13.102  0.5982  0.0963  0.4465
15215TIP3    H267137   1.874   3.131  13.075 -0.8336  0.1630 -0.2351
15216TIP3   OH267138   2.370   2.348   2.425 -0.3095  0.2427  0.2990
15216TIP3    H167139   2.391   2.254   2.424  3.1908  0.8779 -1.6019
15216TIP3    H267140   2.437   2.386   2.482 -1.7765  1.6424  1.1617
15217TIP3   OH267141   2.638   0.799  12.986  0.3733 -0.1794  0.1687
15217TIP3    H167142   2.697   0.790  13.061 -1.8376 -0.7326  1.9686
15217TIP3    H267143   2.608   0.890  12.990  1.7691  0.3898 -1.3347
15218TIP3   OH267144   0.748   0.105   1.276 -0.0423 -0.1123 -0.2455
15218TIP3    H167145   0.741   0.101   1.181  0.5579 -0.8108 -0.2621
15218TIP3    H267146   0.748   0.014   1.304  0.3305  0.0767  0.3831
15219TIP3   OH267147   4.469   5.644   1.638 -0.1968 -0.7437  0.0709
15219TIP3    H167148   4.383   5.648   1.680  0.1891  0.7249  0.7766
15219TIP3    H267149   4.531   5.664   1.709  0.5517  0.5677 -0.9309
15220TIP3   OH267150   2.808   5.844  16.702  0.2625 -0.0717 -0.0407
15220TIP3    H167151   2.898   5.833  16.733  0.8923  2.0317 -0.9526
15220TIP3    H267152   2.812   5.823  16.608 -0.4914 -1.1310  0.1392
15221TIP3   OH267153   2.564   4.291   3.104 -0.2739  0.2157  1.0352
15221TIP3    H167154   2.582   4.198   3.087 -1.4872 -0.1698  1.7145
15221TIP3    H267155   2.615   4.312   3.182 -0.4688 -0.0581  1.2389
15222TIP3   OH267156   3.419   6.489   1.619 -0.0987 -0.1775  0.1603
15222TIP3    H167157   3.353   6.513   1.684 -0.9881 -1.2638 -0.3064
15222TIP3    H267158   3.418   6.394   1.618  1.1123 -0.1980 -0.2486
15223TIP3   OH267159   3.118   6.737   5.450  0.3316 -0.7096 -0.5472
15223TIP3    H167160   3.172   6.695   5.516 -2.5414 -0.7297  2.0142
15223TIP3    H267161   3.048   6.674   5.433 -1.1520  0.8542 -0.5915
15224TIP3   OH267162   1.284   1.025  15.336 -0.1843  0.1847 -0.1855
15224TIP3    H167163   1.218   0.977  15.386  0.0585  1.1951  1.1730
15224TIP3    H267164   1.253   1.116  15.335  0.9586  0.6071  0.1429
15225TIP3   OH267165   5.283   3.763  12.913  0.0026 -0.3770 -0.5372
15225TIP3    H167166   5.247   3.749  13.000  0.9742 -0.9237 -0.2125
15225TIP3    H267167   5.325   3.849  12.918  1.3583 -1.0465 -0.0010
15226TIP3   OH267168   1.262   4.887   5.359  0.0740 -0.1014 -0.2259
15226TIP3    H167169   1.340   4.856   5.313  0.1434 -1.0591  0.5092
15226TIP3    H267170   1.287   4.887   5.452  0.1184  2.3164 -0.1687
15227TIP3   OH267171   3.298   6.530   5.901  0.0835 -0.0022 -0.2654
15227TIP3    H167172   3.333   6.444   5.877 -2.1388 -1.5470  1.5662
15227TIP3    H267173   3.366   6.570   5.956  0.6016 -1.1950 -0.0208
15228TIP3   OH267174   2.883   5.005   4.239 -0.1125 -0.2712  0.1274
15228TIP3    H167175   2.869   5.089   4.283 -1.5780  1.0230 -2.5969
15228TIP3    H267176   2.970   5.012   4.199  0.0776 -0.3696  0.5183
15229TIP3   OH267177   6.626   4.592   3.185 -0.6777  0.1758  0.3224
15229TIP3    H167178   6.564   4.520   3.179  0.7427 -1.5295  3.5897
15229TIP3    H267179   6.711   4.550   3.199  0.4434  2.4845  0.9736
15230TIP3   OH267180   0.947   3.061   5.114 -0.0464 -0.0526 -0.2869
15230TIP3    H167181   0.904   2.996   5.059 -0.5845 -1.6610  1.8926
15230TIP3    H267182   1.034   3.024   5.132 -0.1018  0.1463  0.4326
15231TIP3   OH267183   0.278   2.421  13.858 -0.2712  0.4199  0.5560
15231TIP3    H167184   0.326   2.435  13.777  0.1075 -2.1339  0.2500
15231TIP3    H267185   0.261   2.509  13.892  0.4742  1.5164 -1.7326
15232TIP3   OH267186   2.728   5.345  16.264 -0.7251  0.5928 -0.0869
15232TIP3    H167187   2.809   5.392  16.245  0.2734 -0.6238  0.8714
15232TIP3    H267188   2.758   5.257  16.288 -2.3537  0.0801  0.1689
15233TIP3   OH267189   2.760   3.411   4.702  0.6009 -0.3164  0.3439
15233TIP3    H167190   2.781   3.320   4.684 -0.7085 -0.7660  0.9350
15233TIP3    H267191   2.665   3.412   4.712  0.7228  0.8078  1.9107
15234TIP3   OH267192   2.669   5.425   4.914 -0.1222 -0.2879  0.4782
15234TIP3    H167193   2.605   5.424   4.986 -0.0706  0.9246  0.5775
15234TIP3    H267194   2.617   5.408   4.836 -0.8972  2.0821  0.3745
15235TIP3   OH267195   2.784   0.243   1.562 -0.2380  0.0158  0.1673
15235TIP3    H167196   2.717   0.311   1.566 -0.5301 -0.2451 -0.2739
15235TIP3    H267197   2.863   0.285   1.599 -0.2805  0.7463 -0.5495
15236TIP3   OH267198   0.551   4.622   6.175 -0.3285 -0.6240 -0.1314
15236TIP3    H167199   0.546   4.682   6.249  2.0885 -0.7257  0.2027
15236TIP3    H267200   0.469   4.635   6.127 -1.0351  0.9464  1.4110
15237TIP3   OH267201   5.862   5.247   4.771  0.1426 -0.2814 -0.0313
15237TIP3    H167202   5.947   5.223   4.807 -0.4692 -0.8616  1.1058
15237TIP3    H267203   5.832   5.168   4.725  0.8404  0.3992 -1.7246
15238TIP3   OH267204   1.672   4.128  16.294 -0.0110 -0.3041 -0.3948
15238TIP3    H167205   1.751   4.078  16.271 -0.3744 -1.4205  0.6637
15238TIP3    H267206   1.687   4.156  16.384 -1.0011 -0.9097 -0.0300
15239TIP3   OH267207   5.086   2.601  16.069 -0.1298  0.5865  0.2434
15239TIP3    H167208   5.078   2.556  16.153  1.3155  1.2172  0.7579
15239TIP3    H267209   5.017   2.668  16.071 -1.4443 -0.7144  0.0198
15240TIP3   OH267210   4.734   4.589   3.876  0.5413  0.2140  0.1389
15240TIP3    H167211   4.714   4.530   3.948 -2.5824  2.2720  1.1774
15240TIP3    H267212   4.717   4.676   3.911  0.6544  1.4224 -2.5623
15241TIP3   OH267213   3.565   1.018   0.041 -0.0056  0.5175 -0.0331
15241TIP3    H167214   3.622   1.034   0.116  2.3745 -0.0947 -1.6163
15241TIP3    H267215   3.613   0.958  -0.015 -3.1272 -1.7814 -0.5348
15242TIP3   OH267216   0.446   4.344   1.283  0.2458  0.0098 -0.0232
15242TIP3    H167217   0.412   4.433   1.275  0.8565  0.1536 -1.3548
15242TIP3    H267218   0.398   4.294   1.217  4.0101  0.7453 -3.8698
15243TIP3   OH267219   0.664   3.926   1.123 -0.4127  0.3851  0.4385
15243TIP3    H167220   0.628   3.952   1.207 -1.4836 -1.6484  0.6458
15243TIP3    H267221   0.757   3.911   1.140 -0.8628 -1.2356  1.5682
15244TIP3   OH267222   2.562   5.543   5.957  0.2285 -0.1027 -0.0130
15244TIP3    H167223   2.591   5.519   6.045  0.3445 -0.1996 -0.0773
15244TIP3    H267224   2.606   5.481   5.899  1.1784  0.7660 -0.2562
15245TIP3   OH267225   0.327   3.909   1.189  0.0002  0.7747  0.5374
15245TIP3    H167226   0.249   3.965   1.194 -1.0441 -0.4321 -1.1498
15245TIP3    H267227   0.315   3.858   1.109  1.3305 -1.2285  1.5203
15246TIP3   OH267228   4.353   3.445  14.502 -0.1226  0.3378  0.5754
15246TIP3    H167229   4.339   3.424  14.410  1.8071 -1.6316  0.6614
15246TIP3    H267230   4.281   3.504  14.524 -0.5170  1.0163 -2.2140
15247TIP3   OH267231   5.351   5.819   2.306  0.0663 -0.2966  0.4510
15247TIP3    H167232   5.387   5.889   2.361  0.3168 -1.2860  1.6035
15247TIP3    H267233   5.319   5.754   2.369 -1.1307 -0.7467 -0.5853
15248TIP3   OH267234   3.914   3.750   2.970 -0.5520 -0.0420  0.2297
15248TIP3    H167235   3.828   3.745   3.011 -1.1610 -0.4153 -1.0447
15248TIP3    H267236   3.912   3.830   2.918 -0.3544 -0.3514 -0.2677
15249TIP3   OH267237   6.373   5.654  11.158  0.1509  0.2593  0.0297
15249TIP3    H167238   6.386   5.728  11.217 -1.7762  1.0512 -0.4460
15249TIP3    H267239   6.329   5.588  11.211  1.7038 -0.5121  0.4054
15250TIP3   OH267240   6.061   0.582   2.676  0.7462 -0.2246  0.0442
15250TIP3    H167241   6.087   0.490   2.674  1.4709 -0.0493 -2.3587
15250TIP3    H267242   6.143   0.630   2.665  0.2373  0.6445 -0.0071
15251TIP3   OH267243   4.351   5.937  15.786  0.3381  0.4673  0.0858
15251TIP3    H167244   4.399   5.993  15.726  3.3370 -0.1426  1.7431
15251TIP3    H267245   4.303   5.997  15.843  0.2377  1.1374 -0.6859
15252TIP3   OH267246   5.176   1.051  13.912 -0.3354  0.5651 -0.6518
15252TIP3    H167247   5.258   1.063  13.864 -0.8879  0.3793 -1.6672
15252TIP3    H267248   5.113   1.106  13.865 -0.4705  1.9142  1.0198
15253TIP3   OH267249   0.092   6.025   3.611 -0.5100  0.2412 -0.2139
15253TIP3    H167250   0.123   5.938   3.586 -1.4437 -0.1864  0.0629
15253TIP3    H267251   0.137   6.045   3.693 -2.1072 -1.0681  1.0483
15254TIP3   OH267252   4.761   5.314  12.282 -0.3522 -0.3837  0.4313
15254TIP3    H167253   4.745   5.290  12.191  1.0530 -0.8003  0.2632
15254TIP3    H267254   4.702   5.259  12.333 -0.7287 -0.5683 -0.2009
15255TIP3   OH267255   6.316   0.806  14.875 -0.0411  0.4801 -0.1761
15255TIP3    H167256   6.390   0.756  14.909  0.7286  2.2572  0.9371
15255TIP3    H267257   6.246   0.742  14.865  0.4527 -0.6175  2.4623
15256TIP3   OH267258   0.040   0.071  14.997  0.1967  0.6495 -0.1579
15256TIP3    H167259   0.014   0.101  15.084 -1.9332  0.3957 -0.6351
15256TIP3    H267260   0.019  -0.023  14.996 -0.1030  0.7095 -1.0328
15257TIP3   OH267261   0.863   5.659   0.702  1.0394 -0.6768 -0.0597
15257TIP3    H167262   0.813   5.632   0.625  1.2641  0.3469 -0.5839
15257TIP3    H267263   0.868   5.754   0.695  0.5562 -0.5041  1.5538
15258TIP3   OH267264   4.542   1.343   3.312  0.4964 -0.8767 -0.1106
15258TIP3    H167265   4.456   1.319   3.346  0.8643 -1.3961  0.4744
15258TIP3    H267266   4.543   1.439   3.314 -0.2100 -0.8512 -0.5005
15259TIP3   OH267267   3.164   5.258  14.609  0.1503 -0.5725 -0.1303
15259TIP3    H167268   3.214   5.177  14.622 -0.3429 -1.0181 -0.9380
15259TIP3    H267269   3.090   5.232  14.555 -0.3751  0.2997  0.1520
15260TIP3   OH267270   4.659   2.027   3.941  0.1124  0.1007  0.9089
15260TIP3    H167271   4.740   2.078   3.933 -0.4012  1.0137  1.4061
15260TIP3    H267272   4.590   2.092   3.947 -0.9428 -0.6354 -1.6792
15261TIP3   OH267273   0.850   4.956  11.573  0.7516 -0.0411 -0.0832
15261TIP3    H167274   0.781   4.900  11.536  1.0784  0.3403 -1.3122
15261TIP3    H267275   0.813   4.989  11.654 -0.1493 -0.6093 -0.2478
15262TIP3   OH267276   3.579   4.669  11.777 -0.1213  0.3315 -0.2212
15262TIP3    H167277   3.545   4.649  11.690 -0.5822 -0.8942  0.2079
15262TIP3    H267278   3.604   4.583  11.813  0.1492  0.8209  0.8064
15263TIP3   OH267279   1.635   3.276   3.246 -0.4178 -0.5821 -0.6077
15263TIP3    H167280   1.711   3.325   3.278 -0.9736 -0.8377  1.1802
15263TIP3    H267281   1.672   3.194   3.213  0.0850 -0.7515  0.3525
15264TIP3   OH267282   5.141   5.579  13.449  0.1511  0.2530  0.1190
15264TIP3    H167283   5.084   5.531  13.508 -1.5449  1.1491 -0.7119
15264TIP3    H267284   5.099   5.571  13.363  0.9856  1.3747 -0.4210
15265TIP3   OH267285   1.300   0.210   1.454 -0.2913 -0.3908  0.1768
15265TIP3    H167286   1.282   0.263   1.532 -0.7210  0.6175 -0.5820
15265TIP3    H267287   1.370   0.257   1.409 -1.1649 -0.0507 -0.8706
15266TIP3   OH267288   0.737   6.239  12.267 -0.4955 -0.2662 -0.2344
15266TIP3    H167289   0.744   6.144  12.278 -1.8591 -0.1453  2.4211
15266TIP3    H267290   0.650   6.253  12.230 -1.2086 -0.0256  1.4131
15267TIP3   OH267291   0.502   1.982   0.992  0.0281  0.3859  0.0249
15267TIP3    H167292   0.525   1.958   1.082 -1.6542  1.9009  0.9064
15267TIP3    H267293   0.554   2.060   0.974  0.9958 -0.3948 -0.6547
15268TIP3   OH267294   6.192   1.219  16.653 -0.0262  0.1541  0.0436
15268TIP3    H167295   6.103   1.199  16.622 -0.7802  2.0673  0.8086
15268TIP3    H267296   6.181   1.237  16.746  1.4636 -1.1301  0.5032
15269TIP3   OH267297   1.181   4.396   4.061  0.1777  0.5964  0.8427
15269TIP3    H167298   1.137   4.408   4.145  0.9215 -1.9888  1.6908
15269TIP3    H267299   1.267   4.435   4.073 -0.0032  0.9417  1.0136
15270TIP3   OH267300   2.152   3.778  14.276 -0.0229  0.3635 -0.4171
15270TIP3    H167301   2.069   3.821  14.298 -0.2007  0.2551 -0.8606
15270TIP3    H267302   2.144   3.690  14.312  0.9608  1.1415  1.8671
15271TIP3   OH267303   0.408   0.042   1.850  0.6773  0.4705 -0.2477
15271TIP3    H167304   0.349  -0.003   1.910 -1.2659  1.8872 -1.0131
15271TIP3    H267305   0.472   0.085   1.907 -0.0782  0.3607  0.7065
15272TIP3   OH267306   2.907   1.808  16.170 -0.2312 -0.3529 -0.0836
15272TIP3    H167307   2.894   1.820  16.076 -0.7679  0.0303  0.0357
15272TIP3    H267308   2.999   1.783  16.178 -0.4485 -1.4561 -0.8047
15273TIP3   OH267309   3.412   2.889   4.283  0.0432  0.3526 -0.3516
15273TIP3    H167310   3.445   2.840   4.208  0.7078  0.6101 -0.2289
15273TIP3    H267311   3.428   2.832   4.358 -1.6965 -0.4256 -0.5148
15274TIP3   OH267312   0.958   5.906   0.644 -0.4488  0.0382 -0.2488
15274TIP3    H167313   1.021   5.960   0.691 -0.4323 -0.0224 -0.2015
15274TIP3    H267314   0.988   5.907   0.553  0.2029 -0.8259 -0.0578
15275TIP3   OH267315   1.147   4.336  15.179 -0.2708 -0.1149  0.2594
15275TIP3    H167316   1.154   4.361  15.272 -0.0327  0.9209 -0.0264
15275TIP3    H267317   1.082   4.397  15.143  0.7103  0.4684 -0.5754
15276TIP3   OH267318   3.759   4.161  12.045  0.0603  0.0764  0.6534
15276TIP3    H167319   3.799   4.202  11.969 -0.4216  1.1143  0.9308
15276TIP3    H267320   3.760   4.229  12.112 -0.0588 -0.6260  1.3864
15277TIP3   OH267321   2.442   5.419   1.688  0.9239 -0.0201  0.2641
15277TIP3    H167322   2.377   5.488   1.675  0.6193 -0.0573  1.4583
15277TIP3    H267323   2.521   5.466   1.717  0.6748 -0.1683  1.2112
15278TIP3   OH267324   3.253   2.109   2.802  0.1216 -0.0255 -0.5068
15278TIP3    H167325   3.215   2.026   2.773  0.5114  0.2295 -1.8163
15278TIP3    H267326   3.178   2.162   2.830 -0.0703 -1.0331  0.9718
15279TIP3   OH267327   6.812   5.753  14.193  0.4019  0.2995  1.1356
15279TIP3    H167328   6.772   5.831  14.229 -2.1301  0.4556 -1.6176
15279TIP3    H267329   6.819   5.692  14.267 -2.6397  1.2323  2.3072
15280TIP3   OH267330   5.275   0.554  16.051 -0.1541 -0.3639  0.1305
15280TIP3    H167331   5.258   0.547  16.145  0.0234  0.1733  0.2087
15280TIP3    H267332   5.285   0.464  16.021 -1.2725 -0.5953  0.4244
15281TIP3   OH267333   0.116   1.079  14.789 -0.4297 -0.4573 -0.2250
15281TIP3    H167334   0.173   1.003  14.777  1.1188  0.7634 -1.0402
15281TIP3    H267335   0.093   1.078  14.882  2.0096 -0.2972  0.4384
15282TIP3   OH267336   2.346   2.427  16.373  0.0008 -0.2844 -0.4511
15282TIP3    H167337   2.307   2.344  16.399  0.7026 -0.8142 -1.0518
15282TIP3    H267338   2.284   2.465  16.311 -1.3920  0.6962  1.4460
15283TIP3   OH267339   5.733   5.026   3.165 -0.3575  0.1879  0.0172
15283TIP3    H167340   5.785   4.988   3.095 -1.6183  2.2305 -2.1552
15283TIP3    H267341   5.794   5.033   3.239  1.5791 -0.2762 -1.4558
15284TIP3   OH267342   2.796   4.559   0.818 -0.5405 -0.5021  0.5095
15284TIP3    H167343   2.727   4.613   0.781 -0.6529 -1.3921 -0.6323
15284TIP3    H267344   2.761   4.529   0.902 -1.4729 -0.7805  0.0294
15285TIP3   OH267345   0.886   2.859   4.941  0.5118 -0.4097  0.0431
15285TIP3    H167346   0.863   2.775   4.981 -0.9558 -0.3537 -0.6353
15285TIP3    H267347   0.969   2.842   4.897  0.0192 -1.6291 -0.4459
15286TIP3   OH267348   4.172   4.802  15.065 -0.3839  0.0695  0.0884
15286TIP3    H167349   4.254   4.812  15.113  0.5711 -0.9734 -1.2605
15286TIP3    H267350   4.183   4.722  15.013 -3.6519 -2.2489  2.5731
15287TIP3   OH267351   4.055   2.591  15.894  0.2692 -0.1402  0.3773
15287TIP3    H167352   3.978   2.549  15.855 -0.4949  1.0212  0.5874
15287TIP3    H267353   4.028   2.612  15.983  0.2956  1.5710  0.0158
15288TIP3   OH267354   4.566   2.416  11.981  0.3111 -0.0751 -0.1947
15288TIP3    H167355   4.599   2.442  11.895  1.0998 -1.4661 -0.3478
15288TIP3    H267356   4.639   2.368  12.021 -0.4518 -0.4743  0.7573
15289TIP3   OH267357   6.359   4.364  12.449  0.4054  0.1233  0.2673
15289TIP3    H167358   6.267   4.337  12.455  0.5590 -0.2449  1.1790
15289TIP3    H267359   6.408   4.288  12.480  1.1746 -0.5281 -2.3215
15290TIP3   OH267360   1.021   1.803  15.996 -0.5325  0.6842 -0.1542
15290TIP3    H167361   1.011   1.797  16.091 -0.5300 -2.3694 -0.2474
15290TIP3    H267362   0.939   1.842  15.966 -1.8752 -1.1520  0.9175
15291TIP3   OH267363   1.239   6.270  16.994 -0.2662 -0.4378 -0.4805
15291TIP3    H167364   1.324   6.246  16.958 -0.4465  0.5701 -1.6649
15291TIP3    H267365   1.185   6.192  16.982  0.8219 -1.6079  1.6084
15292TIP3   OH267366   0.771   5.022  16.495  0.2528  0.5743 -0.6943
15292TIP3    H167367   0.845   5.026  16.555 -0.1544 -1.4725  0.0197
15292TIP3    H267368   0.734   5.111  16.496  0.7013  0.7876  1.5061
15293TIP3   OH267369   4.748   6.821   3.172 -0.3287  0.1959  0.1860
15293TIP3    H167370   4.654   6.830   3.157 -0.0734  0.7285 -1.3092
15293TIP3    H267371   4.786   6.900   3.133  0.7996 -0.4290 -0.0294
15294TIP3   OH267372   1.161   1.749  12.099 -0.2762  0.1734 -0.2020
15294TIP3    H167373   1.131   1.742  12.189  0.7810  1.3763  0.2702
15294TIP3    H267374   1.092   1.798  12.054 -1.5941 -1.8067 -0.5000
15295TIP3   OH267375   1.933   2.083  12.925  0.4741  0.7246  0.4121
15295TIP3    H167376   1.960   2.101  12.835  0.1706  0.3552  0.2451
15295TIP3    H267377   1.915   2.169  12.962  2.0131  0.9943  0.5782
15296TIP3   OH267378   0.623   1.357   0.218 -0.0227 -0.4177 -0.0951
15296TIP3    H167379   0.678   1.310   0.281 -0.4295 -0.5474  0.1655
15296TIP3    H267380   0.685   1.407   0.165  0.3298 -0.3996  0.3304
15297TIP3   OH267381   0.781   0.822  13.876 -0.1867 -0.3649  0.8253
15297TIP3    H167382   0.709   0.768  13.844 -0.3869 -0.2665  1.1105
15297TIP3    H267383   0.763   0.835  13.969  0.8417 -1.3734  1.1972
15298TIP3   OH267384   2.632   6.408  12.651 -0.2799 -0.2526 -0.1421
15298TIP3    H167385   2.714   6.374  12.687 -0.3962 -0.7001 -0.2961
15298TIP3    H267386   2.625   6.497  12.687 -1.2594 -1.2778  2.4070
15299TIP3   OH267387   4.209   5.555  13.712  0.3302  1.0241 -0.1721
15299TIP3    H167388   4.147   5.528  13.779 -1.5882  0.9473 -1.8885
15299TIP3    H267389   4.284   5.497  13.724 -0.6018 -0.0101  0.9122
15300TIP3   OH267390   6.434   2.864   5.138 -0.2101 -0.2745  0.2816
15300TIP3    H167391   6.384   2.841   5.059 -0.4929  1.9918 -0.2830
15300TIP3    H267392   6.381   2.832   5.210 -1.7363  0.6706 -0.3689
15301TIP3   OH267393   2.923   0.515  13.986  0.3815 -0.0471 -0.3831
15301TIP3    H167394   2.893   0.502  14.076  0.3975 -0.6677 -0.4627
15301TIP3    H267395   2.862   0.580  13.950  0.2376  0.0370  0.0055
15302TIP3   OH267396   1.712   0.277   4.757 -0.0699  0.3468 -0.0421
15302TIP3    H167397   1.755   0.203   4.799  1.5399  0.9325 -0.5953
15302TIP3    H267398   1.628   0.242   4.726  0.6215 -1.2206 -0.2187
15303TIP3   OH267399   2.939   6.454   3.825 -0.2979  0.6204  0.2461
15303TIP3    H167400   2.911   6.406   3.746  1.5044 -0.4961  0.2228
15303TIP3    H267401   3.019   6.409   3.853 -0.5838  1.3522  2.4060
15304TIP3   OH267402   4.952   0.793  14.302  0.2438 -0.5133  0.4270
15304TIP3    H167403   5.003   0.713  14.292  0.5764 -0.4406  1.4840
15304TIP3    H267404   5.007   0.862  14.266  0.2008 -0.6672  0.0613
15305TIP3   OH267405   4.139   0.634  16.863 -0.4743 -0.2592  0.6433
15305TIP3    H167406   4.160   0.553  16.908 -1.7609 -0.1872  1.4345
15305TIP3    H267407   4.222   0.681  16.856  0.4673 -2.0238 -0.6575
15306TIP3   OH267408   1.998   5.739  10.809 -0.4346 -0.1601 -0.3046
15306TIP3    H167409   2.043   5.719  10.727  0.0017  0.0654 -0.1225
15306TIP3    H267410   2.002   5.657  10.859 -1.7606 -0.6736 -0.9814
15307TIP3   OH267411   6.070   2.151  16.401 -0.0972  0.3200  0.4612
15307TIP3    H167412   6.004   2.190  16.459  0.0762  1.1263  0.1364
15307TIP3    H267413   6.113   2.227  16.360 -0.3349 -0.2395 -0.8543
15308TIP3   OH267414   2.836   3.879  15.864  0.0457  0.4784 -0.1835
15308TIP3    H167415   2.827   3.908  15.773  0.9996  1.1744 -0.0696
15308TIP3    H267416   2.926   3.902  15.888  0.7005 -2.0510  0.1022
15309TIP3   OH267417   5.213   1.692   1.443  0.4098 -0.0012 -0.1202
15309TIP3    H167418   5.137   1.642   1.415 -0.5914  2.0780 -1.3195
15309TIP3    H267419   5.190   1.725   1.530  0.1130  0.2367 -0.2868
15310TIP3   OH267420   5.551   6.506  13.654 -0.4999  0.2739  0.3208
15310TIP3    H167421   5.468   6.542  13.622 -0.6393  0.2339  0.6301
15310TIP3    H267422   5.562   6.546  13.740 -1.9173 -2.2682  1.8036
15311TIP3   OH267423   5.611   0.772  15.626 -0.0387  0.4958 -0.4145
15311TIP3    H167424   5.601   0.855  15.580  0.8240  0.4728 -0.6503
15311TIP3    H267425   5.543   0.775  15.694  0.3116  1.6164 -0.0915
15312TIP3   OH267426   2.471   6.590   2.877 -0.5479  0.1653  0.0133
15312TIP3    H167427   2.535   6.569   2.809 -1.5240 -3.0541 -0.0442
15312TIP3    H267428   2.395   6.624   2.830 -0.1327  0.8270 -0.1973
15313TIP3   OH267429   1.483   5.306   5.492 -0.0016  0.6417  0.3935
15313TIP3    H167430   1.459   5.307   5.585  0.0084  2.1220  0.3943
15313TIP3    H267431   1.530   5.388   5.478  0.9086 -0.0321 -0.6991
15314TIP3   OH267432   2.348   6.581   3.339  0.2839 -0.2676  0.2933
15314TIP3    H167433   2.271   6.525   3.341 -0.9962  1.3620 -0.4995
15314TIP3    H267434   2.337   6.640   3.413  1.4481 -0.8185  0.9318
15315TIP3   OH267435   4.979   4.003  16.949 -0.4715 -0.6654  0.1961
15315TIP3    H167436   4.986   3.934  17.014  0.8624 -0.2338  0.5440
15315TIP3    H267437   4.917   3.970  16.884  0.1593 -2.1983  0.3452
15316TIP3   OH267438   1.617   6.598  11.207  0.3116  0.0330 -0.0121
15316TIP3    H167439   1.644   6.533  11.143 -0.7709  1.4487 -2.0158
15316TIP3    H267440   1.606   6.678  11.156 -1.4800  1.0124  1.7961
15317TIP3   OH267441   6.790   2.831   0.112 -0.6304 -0.5952 -0.3667
15317TIP3    H167442   6.698   2.807   0.120 -0.8220 -0.4271 -1.7742
15317TIP3    H267443   6.837   2.747   0.110 -1.0573 -0.8531 -2.5720
15318TIP3   OH267444   5.312   3.512  15.282 -0.2364 -0.1902  0.2983
15318TIP3    H167445   5.235   3.489  15.229  0.6522 -0.4247 -0.9240
15318TIP3    H267446   5.295   3.602  15.309 -1.2681 -0.4700  0.6504
15319TIP3   OH267447   1.074   5.644  10.795  0.2163 -0.1255 -0.3391
15319TIP3    H167448   1.097   5.554  10.819  0.1645 -0.0227  0.0877
15319TIP3    H267449   1.106   5.698  10.867 -0.8985  0.0678  0.0320
15320TIP3   OH267450   5.626   4.412   4.072 -0.6339  0.0839  0.1747
15320TIP3    H167451   5.673   4.337   4.036  1.8360 -0.4940  4.0223
15320TIP3    H267452   5.673   4.488   4.037  0.6214 -0.3896  0.7615
15321TIP3   OH267453   6.564   4.108   0.017 -0.3776  0.1773  0.5228
15321TIP3    H167454   6.520   4.030   0.049 -0.1613  0.3582  1.2885
15321TIP3    H267455   6.643   4.115   0.070 -0.8589  1.4323  1.1265
15322TIP3   OH267456   0.420   0.871  13.897 -0.1853 -0.2628  0.0179
15322TIP3    H167457   0.358   0.840  13.964 -0.0014  0.8909  0.7584
15322TIP3    H267458   0.457   0.791  13.860 -3.0446 -1.0710 -1.4084
15323TIP3   OH267459   0.865   0.638  15.765 -0.0840  0.0384 -0.1415
15323TIP3    H167460   0.860   0.711  15.826 -1.6787 -0.6407  0.6028
15323TIP3    H267461   0.938   0.585  15.798  0.3586  0.7053 -0.0257
15324TIP3   OH267462   4.856   6.404  14.641 -0.0422 -0.0535  0.2688
15324TIP3    H167463   4.908   6.417  14.721 -0.0072 -0.3563  0.2961
15324TIP3    H267464   4.834   6.493  14.613 -2.6274  0.0442  2.2704
15325TIP3   OH267465   3.967   5.800  14.984  0.0479 -0.0329 -0.4130
15325TIP3    H167466   3.970   5.839  14.896  0.0176 -1.4658 -1.0861
15325TIP3    H267467   3.886   5.832  15.022  0.6695  1.6378 -0.3762
15326TIP3   OH267468   1.291   3.006   3.648  0.4523 -0.0450 -0.8400
15326TIP3    H167469   1.299   2.959   3.564 -2.2030  0.1688 -1.2968
15326TIP3    H267470   1.319   3.095   3.628 -2.0200  0.5354 -2.1227
15327TIP3   OH267471   3.902   2.260  12.627  0.5056  0.2990 -0.2365
15327TIP3    H167472   3.932   2.181  12.583 -0.2636  0.3820 -0.9351
15327TIP3    H267473   3.928   2.332  12.569 -1.1929  0.3560 -0.9795
15328TIP3   OH267474   2.912   2.099   1.525 -0.3912  1.0669  0.1889
15328TIP3    H167475   2.878   2.137   1.606 -0.1097  1.6475  0.0414
15328TIP3    H267476   2.835   2.066   1.479 -0.3422 -2.2037  2.1039
15329TIP3   OH267477   6.383   0.560   3.969  0.0772  0.0428  0.4133
15329TIP3    H167478   6.442   0.632   3.991 -0.1922 -0.0792  1.5945
15329TIP3    H267479   6.437   0.500   3.917  0.9601  0.0205  1.3181
15330TIP3   OH267480   4.956   5.102   4.741 -0.4653 -0.2794 -0.7157
15330TIP3    H167481   4.997   5.173   4.790  2.1049 -1.5018 -0.9296
15330TIP3    H267482   4.864   5.105   4.766  0.0544  1.5129  1.2296
15331TIP3   OH267483   1.636   1.819  16.305 -0.4677 -0.4998  0.3839
15331TIP3    H167484   1.700   1.752  16.281  0.1367  0.7723 -1.9080
15331TIP3    H267485   1.576   1.823  16.231  1.0125  3.1307 -0.8491
15332TIP3   OH267486   4.374   5.703  14.796 -0.2199 -0.5202  0.2311
15332TIP3    H167487   4.278   5.703  14.794 -0.2366  0.7481 -1.6708
15332TIP3    H267488   4.398   5.791  14.768  1.5173 -0.6733  1.1237
15333TIP3   OH267489   6.090   3.311   2.841 -0.0460 -0.3023  0.1637
15333TIP3    H167490   6.085   3.334   2.748  1.7893 -2.6914 -0.6285
15333TIP3    H267491   6.167   3.254   2.847 -0.1739 -0.2905  3.1590
15334TIP3   OH267492   4.531   6.007  11.430 -0.3393 -0.8442  0.5796
15334TIP3    H167493   4.495   5.933  11.380 -1.2979 -0.6646  0.9783
15334TIP3    H267494   4.465   6.076  11.421  1.6296  0.9211 -1.9214
15335TIP3   OH267495   1.534   3.815  15.014 -0.0920  0.1830  0.2061
15335TIP3    H167496   1.595   3.886  14.996  0.3807 -0.4240 -0.6361
15335TIP3    H267497   1.447   3.857  15.011  0.0561  0.4526 -1.9043
15336TIP3   OH267498   2.636   5.575  13.537 -0.3317  0.0970  0.1779
15336TIP3    H167499   2.570   5.640  13.512 -2.8867 -3.1812 -2.5814
15336TIP3    H267500   2.702   5.582  13.468 -0.1584  0.2992  0.3628
15337TIP3   OH267501   2.340   0.731  14.859  0.5415 -0.6817 -0.0739
15337TIP3    H167502   2.345   0.826  14.874  2.1621 -0.6252 -0.8453
15337TIP3    H267503   2.246   0.714  14.847  0.3593  1.0701 -1.4455
15338TIP3   OH267504   2.799   6.481   1.548  0.2981 -0.2991 -0.1102
15338TIP3    H167505   2.831   6.432   1.472 -1.2696  0.4906 -1.3379
15338TIP3    H267506   2.867   6.547   1.564  0.5234 -0.2956 -1.0234
15339TIP3   OH267507   4.525   6.808  13.110 -0.1334 -0.0752 -0.2780
15339TIP3    H167508   4.519   6.757  13.190 -1.1756  1.8280  0.9321
15339TIP3    H267509   4.584   6.880  13.132  0.5333 -0.1823 -1.6194
15340TIP3   OH267510   0.915   1.246   1.187 -0.0191  0.6144  0.3953
15340TIP3    H167511   0.843   1.290   1.232  0.9904 -0.3612  3.2063
15340TIP3    H267512   0.912   1.156   1.220  0.4144 -0.3931 -2.1072
15341TIP3   OH267513   0.224   5.216  12.509  0.2307  0.2749  0.2279
15341TIP3    H167514   0.238   5.121  12.507 -2.8913 -0.2875 -0.0074
15341TIP3    H267515   0.159   5.229  12.578  0.2272  2.1981 -0.0961
15342TIP3   OH267516   4.046   0.811  12.683  0.3887 -0.2841 -0.0653
15342TIP3    H167517   4.138   0.829  12.704  0.7820 -0.5812 -1.4477
15342TIP3    H267518   4.041   0.716  12.678  0.4147 -0.2228 -1.6479
15343TIP3   OH267519   6.416   5.545   3.123  0.1891  0.1936 -0.7130
15343TIP3    H167520   6.358   5.480   3.083  1.2254 -0.9158 -0.4919
15343TIP3    H267521   6.473   5.574   3.052  1.0117 -0.6231 -0.4080
15344TIP3   OH267522   4.522   6.739  17.157  0.1026 -0.0604  0.3964
15344TIP3    H167523   4.443   6.710  17.111  1.7097 -1.1594 -1.8508
15344TIP3    H267524   4.524   6.687  17.237  0.4164 -2.7870 -1.2843
15345TIP3   OH267525   0.337   4.695  12.631  0.7710 -0.8489 -0.2898
15345TIP3    H167526   0.364   4.607  12.605  0.1601 -0.8916 -0.8213
15345TIP3    H267527   0.275   4.680  12.703  1.0028 -0.8256 -0.0822
15346TIP3   OH267528   3.866   6.725  16.210  0.0377 -0.2486  0.2797
15346TIP3    H167529   3.907   6.639  16.217  0.0968 -0.1838  0.7359
15346TIP3    H267530   3.868   6.745  16.116  0.2251 -0.6438  0.1988
15347TIP3   OH267531   2.477   3.539  15.978 -0.6776 -0.1968  0.2137
15347TIP3    H167532   2.452   3.454  16.013  1.3510 -0.6956  0.6038
15347TIP3    H267533   2.571   3.546  15.997 -1.0075  2.6464  1.2655
15348TIP3   OH267534   0.485   2.590  16.772 -0.2291  0.0149 -0.0155
15348TIP3    H167535   0.396   2.571  16.800  0.6577 -1.4401  2.0941
15348TIP3    H267536   0.497   2.683  16.793 -0.8346 -0.1133  0.9910
15349TIP3   OH267537   0.389   6.817  14.732 -0.4070 -0.0469 -0.3933
15349TIP3    H167538   0.402   6.901  14.689  0.4682 -0.2397 -0.5435
15349TIP3    H267539   0.414   6.832  14.823  0.6238 -0.3365 -0.6079
15350TIP3   OH267540   3.672   5.644   5.806  0.6156 -0.0386 -0.1226
15350TIP3    H167541   3.617   5.589   5.863  1.0413  0.8961  1.2326
15350TIP3    H267542   3.722   5.699   5.867  0.3683  1.6965 -1.4113
15351TIP3   OH267543   5.421   2.607   0.351  0.1576 -0.2746  0.3407
15351TIP3    H167544   5.446   2.515   0.358  0.1281 -0.3598 -0.5267
15351TIP3    H267545   5.474   2.652   0.417  1.6147 -0.6399 -0.5237
15352TIP3   OH267546   0.494   4.761  14.209  0.0048  0.5971  0.2380
15352TIP3    H167547   0.529   4.819  14.141 -1.6064  2.1124  0.6474
15352TIP3    H267548   0.564   4.757  14.275  0.6240  1.0709 -0.3721
15353TIP3   OH267549   1.705   0.635   3.640  0.4788 -0.1027 -0.6452
15353TIP3    H167550   1.672   0.564   3.694 -1.4831  0.7301 -0.6544
15353TIP3    H267551   1.800   0.634   3.653  0.1910 -0.6358  1.9227
15354TIP3   OH267552   2.472   3.802  15.932  1.0036  0.4799  0.7185
15354TIP3    H167553   2.485   3.710  15.954  1.4304  0.4761  0.4689
15354TIP3    H267554   2.561   3.837  15.923  0.8763  0.4755 -0.9573
15355TIP3   OH267555   0.080   5.314   0.106  0.4861 -0.0399 -0.2235
15355TIP3    H167556   0.049   5.233   0.146 -0.6875  0.1837 -0.6173
15355TIP3    H267557   0.053   5.382   0.168  2.1358  0.0090  0.4746
15356TIP3   OH267558   4.561   2.294   2.950 -0.5069 -0.5341 -0.1702
15356TIP3    H167559   4.549   2.300   2.855 -0.2540 -2.8044 -0.3975
15356TIP3    H267560   4.656   2.300   2.962 -0.6351  1.6637  0.1716
15357TIP3   OH267561   0.940   3.253  11.154  0.2688 -0.0591 -0.2537
15357TIP3    H167562   0.865   3.193  11.151 -0.0218  0.3385 -1.1571
15357TIP3    H267563   0.956   3.277  11.063  1.8957 -0.6229 -0.1608
15358TIP3   OH267564   2.391   5.136   6.821  0.1946  0.1321  0.1563
15358TIP3    H167565   2.474   5.153   6.777  0.1447 -0.2686 -0.1038
15358TIP3    H267566   2.385   5.040   6.823 -0.6938  0.1595 -0.6477
15359TIP3   OH267567   1.465   4.183   2.843  0.9896  0.0479  0.4826
15359TIP3    H167568   1.482   4.230   2.761 -0.8060  0.3935  0.2618
15359TIP3    H267569   1.535   4.117   2.848  2.1625  1.1768 -0.4115
15360TIP3   OH267570   3.563   3.825   5.648  0.0349 -0.0456  0.5502
15360TIP3    H167571   3.554   3.778   5.565 -1.8231 -0.2711  0.8308
15360TIP3    H267572   3.550   3.917   5.624  0.1191 -0.0435  0.5106
15361TIP3   OH267573   5.177   1.542   1.132  0.4386  0.7276  0.6616
15361TIP3    H167574   5.140   1.527   1.045  1.0605  0.8197  0.3817
15361TIP3    H267575   5.212   1.631   1.129 -0.2108  1.0251  1.2539
15362TIP3   OH267576   4.493   3.956   0.952  0.2587 -0.3229 -0.0227
15362TIP3    H167577   4.465   3.936   0.862  0.9656  0.2614 -0.3786
15362TIP3    H267578   4.461   4.045   0.967  1.5193  0.1834 -0.2753
15363TIP3   OH267579   4.784   3.478  11.960 -0.1722  0.2993  0.1312
15363TIP3    H167580   4.810   3.514  12.044 -0.0545 -0.0047  0.2257
15363TIP3    H267581   4.742   3.551  11.914 -0.3457  0.4288  0.5002
15364TIP3   OH267582   2.026   5.172   1.010  0.3285 -0.5104  0.3508
15364TIP3    H167583   1.974   5.241   1.050  0.8712 -0.2329  0.5961
15364TIP3    H267584   1.989   5.090   1.044 -0.0212 -0.3251  0.4184
15365TIP3   OH267585   1.407   2.813   5.332  0.2830 -0.1866  0.1748
15365TIP3    H167586   1.342   2.850   5.392  0.4633 -1.4686  1.2063
15365TIP3    H267587   1.481   2.873   5.336 -0.3510  0.6217 -0.0486
15366TIP3   OH267588   1.451   6.582   1.079  0.0059  0.3407 -0.4239
15366TIP3    H167589   1.447   6.600   1.173  0.1143 -1.0369 -0.1214
15366TIP3    H267590   1.543   6.563   1.062 -0.3761 -2.1011 -0.2016
15367TIP3   OH267591   5.558   1.601   5.902 -0.2971  0.0482 -0.5045
15367TIP3    H167592   5.569   1.509   5.927 -0.0637 -0.1190 -1.2045
15367TIP3    H267593   5.640   1.625   5.859  0.7188  1.3925  1.9886
15368TIP3   OH267594   2.166   6.330  12.530 -0.0863 -0.1970 -0.2706
15368TIP3    H167595   2.200   6.301  12.446 -1.3492 -1.5810 -0.3312
15368TIP3    H267596   2.227   6.293  12.594  1.1581  1.2641 -0.5449
15369TIP3   OH267597   5.963   4.660  12.915  0.1791 -0.0454  0.0811
15369TIP3    H167598   5.894   4.690  12.856 -0.6962 -1.1094  0.5400
15369TIP3    H267599   5.923   4.661  13.002  0.9337 -0.0951  0.4352
15370TIP3   OH267600   1.291   5.569  12.175  0.2300  0.1577 -0.0264
15370TIP3    H167601   1.377   5.576  12.217 -0.0295 -0.2808  0.6007
15370TIP3    H267602   1.238   5.634  12.221  0.1611  0.2658 -0.2572
15371TIP3   OH267603   0.263   5.194  11.987  0.1789  0.2875  0.0707
15371TIP3    H167604   0.237   5.268  11.932  2.8573  0.9876 -0.4036
15371TIP3    H267605   0.259   5.228  12.076  2.0285  1.3311 -0.1785
15372TIP3   OH267606   2.823   6.116   5.306  0.3343 -0.5824 -0.5966
15372TIP3    H167607   2.847   6.089   5.217 -2.3242  1.0067 -1.9460
15372TIP3    H267608   2.734   6.151   5.296  0.2264  0.2977  2.5946
15373TIP3   OH267609   5.417   1.351  13.986 -0.6537 -0.0644 -0.2720
15373TIP3    H167610   5.390   1.393  13.905  0.4664  2.6273  0.6458
15373TIP3    H267611   5.509   1.375  13.996 -0.8900  0.1378  2.0245
15374TIP3   OH267612   6.443   2.352   4.077  0.1113 -0.1484 -0.0610
15374TIP3    H167613   6.375   2.341   4.010  0.4411  0.9327 -0.6042
15374TIP3    H267614   6.509   2.287   4.055 -0.5652 -0.9549  0.2468
15375TIP3   OH267615   0.225   4.890  14.609 -0.0105 -0.0075  0.4615
15375TIP3    H167616   0.136   4.916  14.588  0.3139  0.5846 -0.2538
15375TIP3    H267617   0.250   4.828  14.541  0.7480  1.2508 -0.4495
15376TIP3   OH267618   2.769   1.728  11.288  0.2516 -0.2281 -0.0883
15376TIP3    H167619   2.789   1.701  11.377 -0.0290 -1.3394 -0.3520
15376TIP3    H267620   2.786   1.650  11.235  0.1607  0.3417 -0.9729
15377TIP3   OH267621   0.075   0.931   6.562 -0.3136  0.0693  0.5441
15377TIP3    H167622   0.064   0.924   6.657 -0.9783  0.3856  0.4922
15377TIP3    H267623   0.149   0.873   6.543  1.1814  1.5375  1.5204
15378TIP3   OH267624   3.707   2.169  16.166 -0.2624 -0.3620 -0.3051
15378TIP3    H167625   3.781   2.229  16.167  0.1208 -0.8335 -0.3397
15378TIP3    H267626   3.721   2.113  16.090 -1.6207  0.7321 -1.4244
15379TIP3   OH267627   3.362   3.219  16.764 -0.1679 -0.0957  0.2021
15379TIP3    H167628   3.325   3.296  16.722  1.2909  0.5772  0.0817
15379TIP3    H267629   3.322   3.218  16.851 -0.2295  0.7960  0.1967
15380TIP3   OH267630   0.157   1.123   5.236  0.3628 -0.0190  0.1653
15380TIP3    H167631   0.109   1.200   5.206  0.8166 -0.1455 -0.9362
15380TIP3    H267632   0.090   1.060   5.262 -0.2107 -0.9062 -3.0609
15381TIP3   OH267633   1.592   0.468   4.541  0.4318 -0.0263  0.6257
15381TIP3    H167634   1.652   0.446   4.612  0.7615 -0.2547  0.2754
15381TIP3    H267635   1.598   0.395   4.480  1.1829  0.8002 -0.3104
15382TIP3   OH267636   4.980   5.363   3.391 -0.0024  0.0560  0.1890
15382TIP3    H167637   4.935   5.284   3.419 -0.0923 -0.4338 -1.2754
15382TIP3    H267638   4.956   5.374   3.299  3.0639 -0.4201 -0.7785
15383TIP3   OH267639   4.329   2.448  11.455 -0.1082  0.4397 -0.4982
15383TIP3    H167640   4.406   2.415  11.409  0.4544  2.3009 -0.9461
15383TIP3    H267641   4.264   2.378  11.445  1.6183 -1.3742  0.2912
15384TIP3   OH267642   1.687   2.952   3.551  0.0994  0.2310  0.0475
15384TIP3    H167643   1.729   3.022   3.602 -0.0861  1.5961 -1.5572
15384TIP3    H267644   1.744   2.940   3.475  0.3815 -1.7579  0.5199
15385TIP3   OH267645   1.438   5.778  16.535  0.5041 -0.3307  0.3174
15385TIP3    H167646   1.431   5.866  16.498 -2.4339 -0.1729  1.0313
15385TIP3    H267647   1.484   5.727  16.467 -0.6939  0.9781 -1.5709
15386TIP3   OH267648   5.020   4.251   5.409 -0.5815 -0.0459  0.0902
15386TIP3    H167649   5.054   4.274   5.495  0.2798 -1.5732  0.1815
15386TIP3    H267650   4.967   4.327   5.384  0.0422  0.8920  1.4705
15387TIP3   OH267651   1.079   4.967   5.595  0.4326 -0.2520 -0.6649
15387TIP3    H167652   1.048   4.964   5.504 -2.6422  1.5739  0.1790
15387TIP3    H267653   1.020   5.029   5.638  1.6884 -1.1657  2.6348
15388TIP3   OH267654   3.412   1.798  15.228 -0.0842 -0.1092  0.5037
15388TIP3    H167655   3.499   1.775  15.194  0.0475  0.5858  0.3563
15388TIP3    H267656   3.405   1.893  15.213 -1.1916 -0.2959 -0.2047
15389TIP3   OH267657   4.807   0.285  17.181 -0.2051  0.3932  0.1737
15389TIP3    H167658   4.879   0.333  17.221  0.7622 -1.1989  0.4265
15389TIP3    H267659   4.737   0.349  17.173  1.7700  2.4806 -1.6711
15390TIP3   OH267660   2.783   0.619  14.482  0.1695 -0.2640 -0.3905
15390TIP3    H167661   2.824   0.704  14.461  0.3134 -0.3685 -0.5407
15390TIP3    H267662   2.855   0.565  14.513 -0.2499  0.2898  1.6704
15391TIP3   OH267663   4.951   4.041   0.516 -0.1830 -0.1786 -0.4563
15391TIP3    H167664   4.910   3.965   0.474 -1.6945  0.3689 -0.0239
15391TIP3    H267665   5.024   4.004   0.566 -2.2776 -1.7383  1.7040
15392TIP3   OH267666   2.074   4.498  11.178  0.6872  0.3415  0.3655
15392TIP3    H167667   1.989   4.515  11.136  1.7122  0.6242 -1.7461
15392TIP3    H267668   2.097   4.580  11.221 -0.8017 -0.2234  2.4063
15393TIP3   OH267669   1.342   3.195  16.094  0.6928  0.6843 -0.2964
15393TIP3    H167670   1.303   3.278  16.124 -0.5615 -0.0107  0.0587
15393TIP3    H267671   1.364   3.211  16.002 -1.6497  0.7108 -0.9008
15394TIP3   OH267672   3.414   4.365   5.160  0.1604 -0.0219 -0.0356
15394TIP3    H167673   3.497   4.344   5.202  0.2983 -1.0437 -0.7912
15394TIP3    H267674   3.364   4.284   5.165  0.0182 -0.0416 -1.4561
15395TIP3   OH267675   1.313   0.733   5.729  0.0946 -0.3817 -0.0417
15395TIP3    H167676   1.241   0.674   5.750 -0.5343 -0.0691 -1.2064
15395TIP3    H267677   1.378   0.717   5.797 -0.2581 -2.0637 -0.0439
15396TIP3   OH267678   5.137   3.191   2.091 -0.1891  0.1552 -0.3003
15396TIP3    H167679   5.122   3.186   2.186 -1.0973 -0.8724 -0.4751
15396TIP3    H267680   5.209   3.253   2.082 -0.5173  0.7667  1.0150
15397TIP3   OH267681   0.357   2.419  16.487 -0.5820 -0.2149  0.5336
15397TIP3    H167682   0.395   2.335  16.462  0.3888  0.3622  0.0208
15397TIP3    H267683   0.432   2.476  16.500 -1.1442  0.1731  2.4385
15398TIP3   OH267684   2.372   4.926   3.520  0.7875  0.5928 -0.0630
15398TIP3    H167685   2.284   4.890   3.520  1.4347 -1.0677  0.3260
15398TIP3    H267686   2.409   4.902   3.435  0.2811  2.9170 -1.0172
15399TIP3   OH267687   2.095   3.782  12.977  0.1243 -0.2383 -0.0397
15399TIP3    H167688   2.053   3.829  12.906 -1.8081  0.3188  1.3920
15399TIP3    H267689   2.183   3.818  12.982  0.3175 -0.3376 -2.1468
15400TIP3   OH267690   1.950   4.045  16.844 -0.0656  0.2237  0.4188
15400TIP3    H167691   2.018   4.024  16.908 -0.6579  0.7475  1.2399
15400TIP3    H267692   1.885   3.976  16.855  0.5018 -0.5085 -0.6527
15401TIP3   OH267693   5.507   5.680  12.386  0.3509  0.2405  0.6864
15401TIP3    H167694   5.593   5.672  12.345  0.1301  0.2177  0.2195
15401TIP3    H267695   5.456   5.607  12.351 -0.2358  0.9510 -0.0097
15402TIP3   OH267696   5.326   1.621   5.361 -0.4485 -0.0517  0.1735
15402TIP3    H167697   5.359   1.533   5.340 -0.0238 -0.0522  0.8309
15402TIP3    H267698   5.336   1.628   5.456  1.8321  1.6292 -0.1174
15403TIP3   OH267699   6.648   6.739  16.855  0.2584  0.5323  0.9511
15403TIP3    H167700   6.557   6.718  16.836  0.9766 -1.6059 -0.4527
15403TIP3    H267701   6.669   6.686  16.931  0.6597  0.0406  0.5062
15404TIP3   OH267702   2.268   2.766   3.940  0.1925  0.0457  0.7851
15404TIP3    H167703   2.342   2.770   4.002 -0.2006 -0.1802  1.2787
15404TIP3    H267704   2.212   2.696   3.975  0.9575 -1.5373 -0.9439
15405TIP3   OH267705   4.129   4.330   6.378  0.3647 -0.3455 -0.3082
15405TIP3    H167706   4.201   4.392   6.363 -0.8137  1.3876  0.8053
15405TIP3    H267707   4.144   4.297   6.466 -0.7623  0.8848  0.3767
15406TIP3   OH267708   0.316   4.091  13.425 -0.4831 -0.1450 -0.2892
15406TIP3    H167709   0.343   4.003  13.397 -0.8397 -0.6760  0.9931
15406TIP3    H267710   0.223   4.082  13.446 -0.1058  0.0837  1.6004
15407TIP3   OH267711   3.918   3.727   1.591 -0.0369 -0.5059  0.0209
15407TIP3    H167712   3.877   3.788   1.529  0.3028 -1.8451 -1.6055
15407TIP3    H267713   3.863   3.649   1.589  1.0109 -1.2738 -0.0695
15408TIP3   OH267714   4.074   6.195  14.131 -0.3007 -0.5997 -0.1405
15408TIP3    H167715   4.127   6.124  14.169 -0.2025 -0.3501  0.1968
15408TIP3    H267716   3.985   6.160  14.128 -0.0517 -1.1743 -1.0883
15409TIP3   OH267717   0.083   4.258   5.013 -0.2887  0.3542  0.2001
15409TIP3    H167718  -0.006   4.285   5.038  0.0127  1.3880  0.1917
15409TIP3    H267719   0.069   4.182   4.956 -1.2464  1.1898 -0.7342
15410TIP3   OH267720   2.537   3.671  13.147 -0.2005 -0.0503  0.4181
15410TIP3    H167721   2.469   3.604  13.140 -1.1444  0.8479  0.6008
15410TIP3    H267722   2.508   3.727  13.219  0.5844  0.5164  0.3106
15411TIP3   OH267723   2.209   6.305   5.874 -0.9040  0.4351 -0.4791
15411TIP3    H167724   2.235   6.214   5.860 -1.3987  0.3184 -0.6407
15411TIP3    H267725   2.114   6.302   5.882 -0.8146  0.7214  1.1205
15412TIP3   OH267726   4.117   2.667  13.650  0.2932  0.0623  0.8552
15412TIP3    H167727   4.069   2.676  13.567  1.1725 -1.4658  0.1276
15412TIP3    H267728   4.068   2.720  13.712 -0.3551  1.3146 -0.6603
15413TIP3   OH267729   1.086   4.087   3.101  0.3921  0.1901 -0.3048
15413TIP3    H167730   1.026   4.014   3.121  0.3257  0.0281 -1.0809
15413TIP3    H267731   1.103   4.127   3.186 -2.3680  1.4522 -0.2284
15414TIP3   OH267732   3.267   1.556  11.979  0.0712  0.2415 -0.4419
15414TIP3    H167733   3.322   1.489  12.019  1.5865  2.0469  0.6939
15414TIP3    H267734   3.303   1.568  11.891 -0.6190 -0.8400 -0.8902
15415TIP3   OH267735   4.495   5.170  11.545  0.5203  0.5717 -0.3912
15415TIP3    H167736   4.452   5.242  11.499 -0.0465  0.6777  0.2837
15415TIP3    H267737   4.559   5.213  11.602  0.0567  0.5629  0.1447
15416TIP3   OH267738   2.128   3.953   6.195  0.2908 -0.0096 -0.2628
15416TIP3    H167739   2.071   3.896   6.248  0.9525  0.2538  0.7751
15416TIP3    H267740   2.102   4.042   6.219  2.0018  0.1405  1.2909
15417TIP3   OH267741   2.139   3.289  16.129 -0.3724 -0.2285  0.2585
15417TIP3    H167742   2.083   3.317  16.057 -1.5555 -1.0689  0.8210
15417TIP3    H267743   2.225   3.325  16.108 -1.1479  1.2530 -0.5312
15418TIP3   OH267744   5.108   1.396  16.103  0.2691  0.0175 -0.0074
15418TIP3    H167745   5.055   1.344  16.041  0.0180  0.5773 -0.2727
15418TIP3    H267746   5.089   1.357  16.188  0.3611 -0.5536 -0.2432
15419TIP3   OH267747   0.506   1.071  11.265  0.1478 -0.1133  0.5680
15419TIP3    H167748   0.520   1.014  11.341 -0.1828 -0.1844  0.5750
15419TIP3    H267749   0.556   1.029  11.194  3.9764  2.0783  1.6741
15420TIP3   OH267750   5.755   6.008   0.044 -0.0480  0.0759  0.4451
15420TIP3    H167751   5.696   6.027   0.117  0.2243 -0.3003  0.7726
15420TIP3    H267752   5.703   5.952  -0.014 -0.5440  1.0452 -0.0736
15421TIP3   OH267753   4.305   6.272   2.290  0.0114 -0.2305 -0.1225
15421TIP3    H167754   4.346   6.196   2.250 -0.3116  0.2479 -1.4259
15421TIP3    H267755   4.297   6.335   2.218 -0.9829  0.5047  0.6052
15422TIP3   OH267756   3.967   5.734  11.707  0.6663  0.1803  0.0676
15422TIP3    H167757   4.050   5.780  11.694  1.2562 -0.1979  2.2096
15422TIP3    H267758   3.992   5.644  11.729 -0.2971  0.1633  1.1521
15423TIP3   OH267759   1.064   4.261  12.573 -0.2331 -0.1695  0.0400
15423TIP3    H167760   1.067   4.169  12.598 -1.1488 -0.6799 -1.5899
15423TIP3    H267761   1.088   4.261  12.480 -3.7513  0.7506 -1.0063
15424TIP3   OH267762   5.122   1.283   5.490 -0.4301 -0.4669  0.1380
15424TIP3    H167763   5.096   1.201   5.531 -2.4644 -0.6364 -1.3114
15424TIP3    H267764   5.064   1.349   5.527  0.8157  0.2697  0.8785
15425TIP3   OH267765   4.831   5.313  12.651  0.4176 -0.0607  0.3443
15425TIP3    H167766   4.736   5.300  12.645  0.6266 -1.7390  0.2478
15425TIP3    H267767   4.867   5.258  12.582  1.4295  1.3615 -0.2969
15426TIP3   OH267768   2.512   0.725  12.489 -0.1328 -0.0764  0.1367
15426TIP3    H167769   2.486   0.772  12.569  3.4045  1.3832  0.6240
15426TIP3    H267770   2.534   0.637  12.519  0.0888  0.1214  0.5569
15427TIP3   OH267771   2.060   6.659   0.871  0.4181  0.1015  0.4788
15427TIP3    H167772   2.040   6.646   0.778 -0.3686  0.0782  0.6461
15427TIP3    H267773   1.975   6.673   0.912  0.6753 -0.8285  1.3536
15428TIP3   OH267774   6.288   5.454  16.686 -0.2289 -0.0495 -0.1270
15428TIP3    H167775   6.229   5.423  16.755 -0.3274  1.2388  0.3846
15428TIP3    H267776   6.232   5.501  16.625  0.1941  0.7757  0.1107
15429TIP3   OH267777   5.808   5.455  13.022  0.6700 -0.2351  0.0385
15429TIP3    H167778   5.880   5.469  12.960  1.3667  1.6930  1.1867
15429TIP3    H267779   5.729   5.461  12.969  1.3012 -1.8334 -1.1605
15430TIP3   OH267780   0.933   6.347  13.336 -0.2248 -0.2280 -1.1798
15430TIP3    H167781   1.015   6.375  13.378 -0.3104  0.9500 -1.7666
15430TIP3    H267782   0.944   6.253  13.323  0.2899 -0.4156  0.3958
15431TIP3   OH267783   1.260   2.918  14.118  0.5368  0.0003  0.0886
15431TIP3    H167784   1.232   2.989  14.060  1.0602 -0.3854 -0.6555
15431TIP3    H267785   1.227   2.943  14.204 -0.6240  0.3737 -0.4502
15432TIP3   OH267786   1.831   5.472   4.410 -0.4348 -0.2150  0.2098
15432TIP3    H167787   1.815   5.554   4.362  0.0304 -0.1799  0.1154
15432TIP3    H267788   1.761   5.470   4.476  0.3060  0.9140  1.0772
15433TIP3   OH267789   0.731   5.140   0.624  0.8892  0.5166 -0.1052
15433TIP3    H167790   0.696   5.190   0.697  1.6314  0.1453  0.5171
15433TIP3    H267791   0.758   5.057   0.663 -2.3125 -1.3424 -1.4524
15434TIP3   OH267792   0.934   6.303  12.685 -0.4246  0.7946  0.2997
15434TIP3    H167793   0.928   6.242  12.612 -1.4055  1.3967 -0.1473
15434TIP3    H267794   1.024   6.295  12.716  0.0855  0.6786 -1.1182
15435TIP3   OH267795   2.912   1.349  14.436 -0.2944  0.0855  0.3998
15435TIP3    H167796   2.921   1.365  14.530 -0.8022  1.4231  0.2469
15435TIP3    H267797   2.935   1.433  14.395 -0.8915 -0.2242 -0.6213
15436TIP3   OH267798   4.140   1.571  13.889 -0.0057  0.6099  0.1949
15436TIP3    H167799   4.161   1.664  13.881  0.8225  0.5523  1.3661
15436TIP3    H267800   4.094   1.564  13.973 -0.5245  0.0332 -0.1305
15437TIP3   OH267801   5.063   1.960   4.481 -0.1006 -0.0284 -0.4680
15437TIP3    H167802   5.135   2.019   4.458 -0.7938  0.6943 -0.8403
15437TIP3    H267803   5.042   1.914   4.400  1.1513 -1.6328  0.0591
15438TIP3   OH267804   2.674   4.986  17.171 -0.2376 -0.4072  0.4487
15438TIP3    H167805   2.581   4.966  17.182 -1.0607  2.4263 -0.5705
15438TIP3    H267806   2.695   5.042  17.245  0.4992 -0.4989  0.3167
15439TIP3   OH267807   4.682   5.592   3.936 -0.6562 -0.0543  0.0267
15439TIP3    H167808   4.716   5.609   4.024  1.3256 -0.3342 -0.6245
15439TIP3    H267809   4.661   5.679   3.901 -1.4245  0.0609  0.7513
15440TIP3   OH267810   6.453   2.708   5.610  0.1792  0.3816  0.1047
15440TIP3    H167811   6.492   2.627   5.579 -1.9640 -1.0004  0.7898
15440TIP3    H267812   6.513   2.777   5.582  0.8947 -1.2143 -2.5739
15441TIP3   OH267813   3.658   3.097   2.116 -0.1447  0.1836 -0.2544
15441TIP3    H167814   3.609   3.014   2.120  0.3051 -0.0371  1.2606
15441TIP3    H267815   3.600   3.161   2.157  1.0348 -0.2300  2.2445
15442TIP3   OH267816   3.753   0.306   0.191  0.0075 -0.0623 -0.5783
15442TIP3    H167817   3.747   0.214   0.167  1.4893 -0.6456  1.1162
15442TIP3    H267818   3.788   0.306   0.280 -1.1140  2.1145 -0.0585
15443TIP3   OH267819   1.877   5.714  13.127  0.1699  0.9464  0.1213
15443TIP3    H167820   1.848   5.705  13.036 -0.7313  0.0420  0.4814
15443TIP3    H267821   1.798   5.740  13.175  0.0982 -0.7637  0.9905
15444TIP3   OH267822   0.320   1.214   2.640 -0.4737 -0.4450 -0.9240
15444TIP3    H167823   0.301   1.137   2.586  1.4482 -1.6148 -0.0476
15444TIP3    H267824   0.309   1.183   2.730  0.5014  0.2187 -0.5594
15445TIP3   OH267825   0.290   1.791  11.429  0.0313  0.6212 -0.1060
15445TIP3    H167826   0.246   1.875  11.439 -1.3444 -0.0855 -0.0625
15445TIP3    H267827   0.300   1.780  11.334  0.0283  0.7444 -0.1197
15446TIP3   OH267828   0.891   4.319  15.453  0.2391  0.4915 -0.3307
15446TIP3    H167829   0.955   4.390  15.457  0.6364  0.1778 -1.0651
15446TIP3    H267830   0.817   4.357  15.405 -0.3990  1.0445  1.0235
15447TIP3   OH267831   5.968   6.437   2.963 -0.2262 -0.0937 -0.1686
15447TIP3    H167832   6.061   6.419   2.981 -0.3096 -1.2709 -0.8155
15447TIP3    H267833   5.927   6.351   2.959 -1.0136  0.3166 -1.6336
15448TIP3   OH267834   0.929   3.290   5.919  0.1070  0.5168  0.5530
15448TIP3    H167835   0.872   3.283   5.842  0.2553  1.9996  0.2873
15448TIP3    H267836   0.979   3.208   5.919 -0.4308  0.1693 -0.4862
15449TIP3   OH267837   0.179   4.402   1.724  0.0734 -0.1108 -0.2295
15449TIP3    H167838   0.133   4.374   1.803  0.6840  1.6498  0.8146
15449TIP3    H267839   0.144   4.346   1.655 -3.1484  0.6197  0.6221
15450TIP3   OH267840   3.585   5.181   2.380 -0.0337  0.0711 -0.0944
15450TIP3    H167841   3.587   5.274   2.400 -2.2285 -0.0312  0.9620
15450TIP3    H267842   3.560   5.139   2.463 -0.9737 -1.2553 -0.9964
15451TIP3   OH267843   1.544   1.405  14.558 -0.3831  0.1306  0.2891
15451TIP3    H167844   1.491   1.361  14.491 -1.0398 -0.8149  1.3951
15451TIP3    H267845   1.632   1.372  14.545 -0.0789  1.4267 -1.3265
15452TIP3   OH267846   3.842   6.742   2.059  0.4289 -0.1812  0.5229
15452TIP3    H167847   3.919   6.790   2.090 -1.2888  1.4448  2.5706
15452TIP3    H267848   3.811   6.793   1.984  0.6897 -0.1758  0.4172
15453TIP3   OH267849   3.879   6.545  15.388 -0.3172 -0.0985 -0.2796
15453TIP3    H167850   3.791   6.573  15.366  0.0937  1.8222  0.3174
15453TIP3    H267851   3.925   6.540  15.304 -0.4368  1.0188 -0.4255
15454TIP3   OH267852   0.922   2.416   0.236 -0.2037 -0.0095  0.3466
15454TIP3    H167853   0.835   2.385   0.261 -1.0166  0.4746 -1.6713
15454TIP3    H267854   0.906   2.480   0.167  1.7160  0.9700  0.7253
15455TIP3   OH267855   4.873   5.387   3.948  0.6436 -0.4420 -0.4832
15455TIP3    H167856   4.802   5.451   3.955  0.1279 -1.0911  0.4307
15455TIP3    H267857   4.838   5.318   3.891  0.6053 -0.6665 -0.1931
15456TIP3   OH267858   0.044   6.061  11.383  0.0429  0.2865  1.5102
15456TIP3    H167859  -0.047   6.031  11.392 -0.4084  0.9523 -0.2908
15456TIP3    H267860   0.036   6.143  11.333  1.8420 -1.6519 -2.3368
15457TIP3   OH267861   3.211   2.532  14.885  0.2464 -0.0109 -0.0573
15457TIP3    H167862   3.116   2.536  14.875  0.4120  2.1660 -1.2899
15457TIP3    H267863   3.226   2.538  14.979 -0.8009  2.0171  0.0167
15458TIP3   OH267864   5.147   4.341  14.113  0.0721 -0.0938 -0.8119
15458TIP3    H167865   5.242   4.352  14.118 -0.0234  0.1379  1.4812
15458TIP3    H267866   5.111   4.426  14.137 -0.6679 -0.8655  1.0134
15459TIP3   OH267867   2.859   3.081  11.289 -0.2207 -0.3416  0.0198
15459TIP3    H167868   2.918   3.056  11.360 -0.8740  0.0890  0.7306
15459TIP3    H267869   2.917   3.109  11.218  0.4556 -1.4879  0.1048
15460TIP3   OH267870   6.051   5.263   1.328  0.6837 -0.3280 -0.1355
15460TIP3    H167871   6.025   5.178   1.363 -0.2161 -0.6127 -1.4351
15460TIP3    H267872   6.146   5.255   1.314  0.9435 -0.4337  1.5278
15461TIP3   OH267873   2.207   3.099   1.176 -0.1459  0.1637  0.5602
15461TIP3    H167874   2.181   3.029   1.236 -1.2697  0.5722  0.5717
15461TIP3    H267875   2.267   3.056   1.115 -1.0033 -0.8871  0.4245
15462TIP3   OH267876   2.379   2.966  11.562  0.0015 -0.2705 -0.1992
15462TIP3    H167877   2.293   2.951  11.523 -0.1063  0.0868 -0.1038
15462TIP3    H267878   2.362   2.977  11.655  0.3884 -2.2684  0.1441
15463TIP3   OH267879   3.208   4.999  12.042  0.3185  0.2778 -0.1190
15463TIP3    H167880   3.153   4.965  11.970  0.7818  1.9538 -1.3309
15463TIP3    H267881   3.231   4.922  12.093  1.9485 -1.4137 -3.1280
15464TIP3   OH267882   3.002   2.588  13.221  0.8764  0.1572 -0.1006
15464TIP3    H167883   3.025   2.631  13.303  0.0138 -0.3851  0.4309
15464TIP3    H267884   2.917   2.548  13.237  1.3220 -1.1313 -0.8108
15465TIP3   OH267885   1.247   2.343   3.538 -0.5815  0.3261 -0.2248
15465TIP3    H167886   1.285   2.298   3.614 -0.4941  0.3860 -0.2329
15465TIP3    H267887   1.281   2.295   3.463  0.7030  1.3033 -0.2950
15466TIP3   OH267888   1.717   1.052  13.341 -0.2167  0.1860 -0.5874
15466TIP3    H167889   1.728   1.147  13.333 -0.0946  0.3073  0.7953
15466TIP3    H267890   1.666   1.040  13.421 -2.6432 -0.8219 -2.1519
15467TIP3   OH267891   4.982   6.692   1.869 -0.1263 -0.2610 -0.0356
15467TIP3    H167892   4.921   6.755   1.831  0.1293 -0.2557 -0.4394
15467TIP3    H267893   4.981   6.618   1.807  0.3434 -0.2231 -0.0882
15468TIP3   OH267894   6.490   5.780  15.158  0.4948 -0.4363 -0.0788
15468TIP3    H167895   6.564   5.751  15.105  1.2284  2.4763 -0.8117
15468TIP3    H267896   6.460   5.700  15.202  1.8343 -2.3958 -2.4125
15469TIP3   OH267897   5.136   4.737   1.880 -0.9161  0.2516 -0.1098
15469TIP3    H167898   5.125   4.642   1.870 -1.0775  0.1315  1.0936
15469TIP3    H267899   5.118   4.772   1.792  1.2619 -0.9804 -1.1292
15470TIP3   OH267900   0.535   5.988   6.608  0.4821 -0.0518 -0.4236
15470TIP3    H167901   0.489   5.904   6.613  1.6444 -0.9032 -2.5330
15470TIP3    H267902   0.517   6.031   6.691 -1.6971 -1.5778 -0.0291
15471TIP3   OH267903   1.803   4.721   0.160  0.0317  0.2599  0.0626
15471TIP3    H167904   1.788   4.804   0.206  0.5766  0.1276  0.4890
15471TIP3    H267905   1.731   4.665   0.187  0.6173  0.0152  1.1696
15472TIP3   OH267906   3.563   2.600  15.122 -0.2212  0.3094  0.4978
15472TIP3    H167907   3.638   2.659  15.126 -0.4237  0.5213  1.2452
15472TIP3    H267908   3.601   2.512  15.128 -0.0862  0.4405  1.8165
15473TIP3   OH267909   0.426   6.809   5.009 -0.6457  0.0159 -0.0034
15473TIP3    H167910   0.515   6.787   5.040 -0.0167 -0.5581 -2.0644
15473TIP3    H267911   0.438   6.891   4.960 -0.5801 -1.5842 -2.8805
15474TIP3   OH267912   1.542   6.591  15.671 -0.7626  0.0144  0.4100
15474TIP3    H167913   1.468   6.537  15.698  0.4673 -1.3073  1.3335
15474TIP3    H267914   1.525   6.612  15.579 -3.3351  1.6282  1.1314
15475TIP3   OH267915   4.973   0.357   5.723 -0.5400 -0.5915 -0.3296
15475TIP3    H167916   4.897   0.309   5.757 -2.8244  2.8243 -0.1046
15475TIP3    H267917   4.948   0.449   5.730  2.1331  0.6078 -3.8250
15476TIP3   OH267918   3.493   3.739   5.392  0.4166 -0.1603 -0.4618
15476TIP3    H167919   3.513   3.649   5.418  0.8849  0.2046  0.4895
15476TIP3    H267920   3.558   3.759   5.324  0.4577 -0.4667 -0.5142
15477TIP3   OH267921   1.453   3.055   0.782 -0.0944 -0.1783 -0.2979
15477TIP3    H167922   1.483   3.146   0.790 -0.8376  0.0506 -0.0639
15477TIP3    H267923   1.402   3.039   0.861 -1.8947 -0.0500 -1.3782
15478TIP3   OH267924   3.987   3.397   5.131 -0.0701  0.6774  0.7025
15478TIP3    H167925   3.923   3.340   5.089  0.3470  1.1045 -0.5596
15478TIP3    H267926   3.957   3.403   5.222 -0.7714 -0.5979  0.5843
15479TIP3   OH267927   1.627   6.419   3.699 -0.1512 -0.1673 -0.3353
15479TIP3    H167928   1.604   6.392   3.788 -0.0450 -0.0649 -0.2773
15479TIP3    H267929   1.659   6.339   3.657 -1.0687 -0.4268 -0.5664
15480TIP3   OH267930   1.520   1.105  12.010 -0.0685  0.3470  0.1530
15480TIP3    H167931   1.542   1.161  12.084 -2.5185  2.2614 -0.4226
15480TIP3    H267932   1.597   1.107  11.953  1.6130 -0.6619  2.2831
15481TIP3   OH267933   1.991   1.105  13.944 -0.0816  0.0203 -0.2068
15481TIP3    H167934   1.997   1.021  13.897 -1.0328 -0.1530 -0.0548
15481TIP3    H267935   2.072   1.110  13.994  0.6128 -0.1536 -1.2698
15482TIP3   OH267936   2.004   4.145  13.076  0.5794  0.0848 -0.2090
15482TIP3    H167937   2.089   4.169  13.114  0.5308 -0.0640 -0.0064
15482TIP3    H267938   1.991   4.054  13.101  0.3657  0.1031 -0.2517
15483TIP3   OH267939   6.414   3.878   0.064 -0.0348  0.1024  0.2158
15483TIP3    H167940   6.485   3.823   0.098 -1.1894 -0.2343  2.3172
15483TIP3    H267941   6.363   3.819   0.008 -0.0674 -0.3810  0.7441
15484TIP3   OH267942   0.309   0.867   5.240  0.2208  0.5441  0.0899
15484TIP3    H167943   0.255   0.942   5.267  1.6462  1.4923  0.4203
15484TIP3    H267944   0.324   0.880   5.146 -1.9156 -0.9291 -0.5270
15485TIP3   OH267945   1.192   6.409   3.488  0.0683  0.0966 -0.0639
15485TIP3    H167946   1.221   6.341   3.549 -1.2896 -0.8667 -0.4370
15485TIP3    H267947   1.105   6.433   3.520 -0.5605 -0.2447 -1.4521
15486TIP3   OH267948   3.127   5.190  11.823  0.8148  0.4143  0.0242
15486TIP3    H167949   3.069   5.200  11.898  1.4053 -0.0691  0.5614
15486TIP3    H267950   3.122   5.097  11.800 -0.5863  0.8471 -1.5662
15487TIP3   OH267951   2.117   3.488  15.794 -0.0582  0.1808 -0.3503
15487TIP3    H167952   2.203   3.509  15.758  0.2400 -0.1436  0.1481
15487TIP3    H267953   2.056   3.499  15.721  0.3840  0.5876 -0.6613
15488TIP3   OH267954   1.830   4.725  15.936  0.1694 -0.2598 -0.0532
15488TIP3    H167955   1.858   4.798  15.881  1.6450 -0.2334  0.6785
15488TIP3    H267956   1.863   4.747  16.023  0.0382 -1.4688  0.3216
15489TIP3   OH267957   2.272   5.799   5.076 -0.0048  0.3671  0.1949
15489TIP3    H167958   2.366   5.811   5.063 -0.2143  0.2296 -1.8679
15489TIP3    H267959   2.261   5.706   5.092  0.1429  0.2503 -0.3716
15490TIP3   OH267960   1.552   0.000   3.317 -0.1699  0.4532  0.4624
15490TIP3    H167961   1.643   0.015   3.341 -0.5048  0.9944  1.4615
15490TIP3    H267962   1.518  -0.057   3.385 -0.0676 -1.4470 -0.9922
15491TIP3   OH267963   0.903   3.036  15.044  0.3788  0.1965  0.2055
15491TIP3    H167964   0.865   3.043  14.957 -2.3038  0.4916  1.2985
15491TIP3    H267965   0.835   3.072  15.102  2.0081 -0.1341  2.4227
15492TIP3   OH267966   3.807   2.273   5.110 -0.2919  0.2045  0.3153
15492TIP3    H167967   3.817   2.349   5.167  2.3644  0.6340 -0.5719
15492TIP3    H267968   3.846   2.301   5.027 -0.8262 -1.5812 -0.5883
15493TIP3   OH267969   4.160   2.927   1.107  0.0285  0.0633  0.1758
15493TIP3    H167970   4.109   2.972   1.174  0.7371 -0.2756  0.9535
15493TIP3    H267971   4.128   2.836   1.110 -0.3274  0.1655 -0.3381
15494TIP3   OH267972   2.998   0.294  12.090 -0.2381  0.5532  0.1267
15494TIP3    H167973   3.013   0.203  12.062 -0.4488  0.7381 -0.6023
15494TIP3    H267974   3.057   0.306  12.164 -1.3692 -0.6953  1.3102
15495TIP3   OH267975   0.293   2.589  13.339  0.1933  0.2615  0.2956
15495TIP3    H167976   0.356   2.558  13.274 -1.2906  0.1396 -1.1524
15495TIP3    H267977   0.232   2.516  13.349  1.0353 -0.2006  2.7886
15496TIP3   OH267978   5.963   0.535   4.235  0.0076  0.0804 -0.0908
15496TIP3    H167979   5.956   0.627   4.209 -1.0213 -0.4034 -1.7307
15496TIP3    H267980   5.876   0.513   4.269  0.4814 -0.0942  1.0527
15497TIP3   OH267981   2.713   0.640  11.280 -0.0816  0.1664 -0.6390
15497TIP3    H167982   2.802   0.610  11.262 -0.1814 -0.3555 -0.2976
15497TIP3    H267983   2.683   0.676  11.197 -0.3992 -1.8390 -1.4480
15498TIP3   OH267984   6.334   0.079  16.143  0.0699 -0.4164  1.1340
15498TIP3    H167985   6.280   0.145  16.098  1.4486 -0.1709 -0.2517
15498TIP3    H267986   6.403   0.130  16.185 -0.1163 -0.8203  1.9438
15499TIP3   OH267987   2.103   4.837   3.514 -0.0640 -0.2737 -0.0681
15499TIP3    H167988   2.153   4.759   3.490 -0.7743 -0.8192  0.1858
15499TIP3    H267989   2.053   4.812   3.592  0.1204  0.6118  0.3524
15500TIP3   OH267990   1.917   5.859  12.670 -0.4831 -0.5127  0.1838
15500TIP3    H167991   1.961   5.944  12.666  3.3602 -2.3144 -0.7021
15500TIP3    H267992   1.890   5.842  12.580  0.1491 -0.8778  0.0619
15501TIP3   OH267993   4.326   0.539   3.204 -0.1250  0.3020 -0.7154
15501TIP3    H167994   4.379   0.460   3.192  0.6382  0.8507 -1.0429
15501TIP3    H267995   4.244   0.507   3.240  0.1504 -0.6518 -0.8956
15502TIP3   OH267996   6.653   4.491   4.520  0.1403  0.3822 -0.5832
15502TIP3    H167997   6.577   4.534   4.480 -0.0115  0.3061 -0.3835
15502TIP3    H267998   6.614   4.423   4.576  0.3054  0.9646  0.2706
15503TIP3   OH267999   4.760   3.402   1.646 -0.1167 -0.1899  0.2677
15503TIP3    H168000   4.694   3.375   1.582 -0.5976  3.3248 -0.9544
15503TIP3    H268001   4.711   3.421   1.726  0.3377 -3.4562  1.4409
15504TIP3   OH268002   3.481   4.102  12.349 -0.0589 -0.0903 -0.0296
15504TIP3    H168003   3.404   4.113  12.293 -0.3032  2.0033  0.6408
15504TIP3    H268004   3.449   4.053  12.425 -1.0196  1.5614  0.6877
15505TIP3   OH268005   3.050   0.311   2.354 -0.6251 -0.0285 -0.1319
15505TIP3    H168006   2.973   0.255   2.361 -1.3748  1.0976  1.0044
15505TIP3    H268007   3.079   0.301   2.263 -0.2204 -2.8651  0.2417
15506TIP3   OH268008   4.533   1.698   3.623  0.3716 -0.1078  0.3816
15506TIP3    H168009   4.612   1.738   3.661  0.0683  0.5846  0.2984
15506TIP3    H268010   4.556   1.683   3.531  0.2123  0.6313  0.2161
15507TIP3   OH268011   0.967   1.882  12.857 -0.6476  0.0684 -0.2758
15507TIP3    H168012   1.014   1.964  12.874 -0.8234 -0.0741  1.0708
15507TIP3    H268013   0.911   1.871  12.935 -1.2876 -0.8704 -0.8510
15508TIP3   OH268014   0.005   4.710  15.575 -0.2821 -0.5016  0.7486
15508TIP3    H168015  -0.062   4.775  15.552  0.4950  0.1893  0.4021
15508TIP3    H268016  -0.037   4.656  15.642 -1.7442 -1.0504 -0.5354
15509TIP3   OH268017   1.884   4.393  11.425 -0.3684 -0.0611  0.7691
15509TIP3    H168018   1.828   4.461  11.462 -0.6953  0.2590 -0.2649
15509TIP3    H268019   1.824   4.335  11.379 -0.1471 -1.3468  2.0330
15510TIP3   OH268020   1.227   3.017  10.591  0.1497  0.5062 -0.0633
15510TIP3    H168021   1.259   2.951  10.530  0.3543  1.3106 -0.8394
15510TIP3    H268022   1.286   3.010  10.667 -0.2251 -0.6284  0.1517
15511TIP3   OH268023   1.596   3.856   5.241 -0.0592 -0.3540 -0.7238
15511TIP3    H168024   1.598   3.838   5.147  0.8275 -0.0112 -0.7755
15511TIP3    H268025   1.504   3.879   5.258 -0.4285 -1.2947 -1.3210
15512TIP3   OH268026   0.150   5.622   3.548 -0.8205  0.1068 -0.3269
15512TIP3    H168027   0.086   5.594   3.484  1.2056 -0.3663 -2.2666
15512TIP3    H268028   0.204   5.687   3.503 -1.2147  2.1517  1.9208
15513TIP3   OH268029   6.506   3.850  16.344 -0.1419 -0.5320  0.1484
15513TIP3    H168030   6.411   3.852  16.357 -0.0398 -0.1340  0.9171
15513TIP3    H268031   6.518   3.813  16.257 -1.0338  0.2095 -0.3059
15514TIP3   OH268032   0.967   3.313   5.034 -0.3690  0.4234  0.5150
15514TIP3    H168033   0.886   3.363   5.043 -0.0831  0.6930  1.7740
15514TIP3    H268034   0.939   3.222   5.045 -0.8075  0.3178 -1.2396
15515TIP3   OH268035   4.116   5.193  16.550  0.1762 -0.1829  0.7072
15515TIP3    H168036   4.041   5.161  16.500 -1.1671  1.3878  1.6375
15515TIP3    H268037   4.170   5.239  16.485 -0.8614  0.6760  0.4324
15516TIP3   OH268038   6.067   1.012   3.712 -0.3689  0.0196  0.1037
15516TIP3    H168039   6.035   0.934   3.667 -2.0566  0.4350  0.5342
15516TIP3    H268040   6.030   1.085   3.664  1.3306  0.6026 -0.3925
15517TIP3   OH268041   5.692   4.390  15.661  0.1916  0.0416 -0.3546
15517TIP3    H168042   5.647   4.355  15.738 -2.3454 -0.2803 -1.8449
15517TIP3    H268043   5.766   4.439  15.696  0.7557 -2.3535  2.1016
15518TIP3   OH268044   2.440   5.459   5.696 -0.2167  0.1844  0.2937
15518TIP3    H168045   2.530   5.471   5.726 -0.0870  2.1745 -0.7037
15518TIP3    H268046   2.389   5.523   5.746 -1.0153 -0.5759  0.4860
15519TIP3   OH268047   0.354   1.233  17.101 -0.4258  0.0840 -0.1352
15519TIP3    H168048   0.423   1.267  17.045 -0.1862 -1.4243 -0.8179
15519TIP3    H268049   0.280   1.293  17.089  0.6949  1.6561  0.5333
15520TIP3   OH268050   1.951   3.508   5.909 -0.5200  0.1084 -0.3886
15520TIP3    H168051   1.966   3.426   5.864 -1.0546 -1.7346  2.4947
15520TIP3    H268052   2.033   3.557   5.900  0.5695 -1.6506 -0.4289
15521TIP3   OH268053   3.356   2.405  14.204  0.4209 -0.7040  0.5169
15521TIP3    H168054   3.321   2.493  14.193  1.2523 -0.4038  0.2457
15521TIP3    H268055   3.280   2.352  14.229 -0.1427  0.0186  0.3528
15522TIP3   OH268056   4.398   6.694   6.189  0.1455  0.6295  0.6910
15522TIP3    H168057   4.439   6.771   6.150  1.1002 -0.1434  0.1175
15522TIP3    H268058   4.437   6.620   6.143 -1.1590 -0.1867  0.8542
15523TIP3   OH268059   2.532   6.165   6.806 -0.7368 -0.0367 -0.4860
15523TIP3    H168060   2.490   6.212   6.878 -0.0078  0.2912 -0.2688
15523TIP3    H268061   2.535   6.229   6.734  1.3180  0.6983  0.1724
15524TIP3   OH268062   3.652   2.520  11.247 -0.0242 -0.3888  0.1519
15524TIP3    H168063   3.634   2.544  11.338  0.1417 -0.8589  0.3129
15524TIP3    H268064   3.744   2.497  11.246 -0.1780 -1.0251  0.0104
15525TIP3   OH268065   6.701   3.618  13.733  0.1453  0.1489 -0.0514
15525TIP3    H168066   6.685   3.681  13.803  0.7310 -1.0266  1.1862
15525TIP3    H268067   6.649   3.541  13.758  0.0934 -0.1617 -1.0913
15526TIP3   OH268068   2.892   0.056  12.643 -0.8128 -0.5026 -0.1013
15526TIP3    H168069   2.849   0.131  12.601 -1.0508 -0.4016  0.3230
15526TIP3    H268070   2.968   0.093  12.687 -1.9178 -0.2123  1.6365
15527TIP3   OH268071   3.030   2.887   3.271  0.4785 -0.3035  0.5870
15527TIP3    H168072   3.106   2.944   3.281  0.1278  0.3476 -0.3744
15527TIP3    H268073   2.987   2.918   3.192 -0.2228 -1.3277  0.5520
15528TIP3   OH268074   4.766   6.633   5.401 -0.1273  0.5869  0.3542
15528TIP3    H168075   4.678   6.624   5.363 -0.1977  0.2260  0.5929
15528TIP3    H268076   4.823   6.645   5.326  0.0269 -2.2855 -0.1167
15529TIP3   OH268077   6.100   2.648   5.549  0.1620 -0.7277 -0.2778
15529TIP3    H168078   6.159   2.673   5.620 -0.7717  1.5756 -0.2047
15529TIP3    H268079   6.026   2.607   5.594 -0.8221  1.4833  0.2776
15530TIP3   OH268080   2.096   0.918   3.382  0.3456  0.0692  0.3128
15530TIP3    H168081   2.005   0.940   3.360  1.0849  2.3088 -0.8947
15530TIP3    H268082   2.097   0.823   3.391 -2.3620  0.0716  1.6683
15531TIP3   OH268083   0.963   4.838  16.191  1.1159 -0.1526 -0.3915
15531TIP3    H168084   1.051   4.870  16.208  1.5109 -0.6566 -1.4132
15531TIP3    H268085   0.929   4.814  16.277  1.9645  0.0461  0.0062
15532TIP3   OH268086   1.597   1.610  14.088  0.1340  0.6840  0.2969
15532TIP3    H168087   1.654   1.556  14.143  0.7429  1.4983  0.5047
15532TIP3    H268088   1.509   1.575  14.101  0.6418 -0.8895 -0.3828
15533TIP3   OH268089   0.039   0.307  16.510  0.0101 -0.2675  0.1756
15533TIP3    H168090  -0.013   0.234  16.477  0.8409 -0.5249 -0.5975
15533TIP3    H268091   0.127   0.271  16.519  0.2968  0.4755  0.3904
15534TIP3   OH268092   2.092   5.628   6.096 -0.2007 -0.3157 -0.1816
15534TIP3    H168093   2.011   5.658   6.056 -0.9501 -1.8052  0.1329
15534TIP3    H268094   2.072   5.625   6.190  0.3433 -0.3358 -0.0654
15535TIP3   OH268095   1.741   4.447  11.848  0.0175  0.2251  0.0274
15535TIP3    H168096   1.671   4.479  11.792  0.4590  2.0887  0.4926
15535TIP3    H268097   1.732   4.351  11.845 -0.8338  0.3270 -2.0742
15536TIP3   OH268098   5.365   2.572  12.133  0.8344  0.1069  0.2415
15536TIP3    H168099   5.356   2.621  12.051  0.9781 -0.9304 -0.4044
15536TIP3    H268100   5.298   2.505  12.129  1.7395 -0.8337  0.3298
15537TIP3   OH268101   5.023   1.378  15.199 -0.1007  0.0334 -0.9593
15537TIP3    H168102   5.075   1.298  15.199  0.6570  0.5190 -0.5671
15537TIP3    H268103   5.007   1.396  15.106  1.0472  0.2753 -1.1176
15538TIP3   OH268104   3.360   0.671   0.879 -0.3412 -0.6465 -0.0156
15538TIP3    H168105   3.290   0.737   0.887 -0.3057 -0.7463  1.3522
15538TIP3    H268106   3.384   0.651   0.969  0.6880 -1.4485 -0.4523
15539TIP3   OH268107   2.991   6.382   4.355 -0.4284 -0.2180 -0.4998
15539TIP3    H168108   3.007   6.340   4.439  1.6734  1.4928  0.0607
15539TIP3    H268109   2.946   6.464   4.376  3.5653  2.2249 -0.3861
15540TIP3   OH268110   6.823   5.506   2.422  0.0534  0.0013  0.0163
15540TIP3    H168111   6.876   5.519   2.501  0.8965  0.5096 -0.6102
15540TIP3    H268112   6.744   5.557   2.437  0.6031  0.8324  0.1762
15541TIP3   OH268113   3.998   1.319  11.812  0.7405  0.2434 -0.4223
15541TIP3    H168114   3.976   1.226  11.818  0.8562  0.1525 -1.2420
15541TIP3    H268115   4.040   1.339  11.895  1.0731 -0.5434 -0.3856
15542TIP3   OH268116   3.038   2.813   5.534 -0.1428 -0.5451 -0.0690
15542TIP3    H168117   3.017   2.871   5.607  2.3949  0.8377 -0.3415
15542TIP3    H268118   3.113   2.853   5.492 -1.2547 -1.4991 -3.2522
15543TIP3   OH268119   4.464   4.082  15.063  0.0289  0.9096  0.7815
15543TIP3    H168120   4.380   4.092  15.106 -1.0657 -1.9301 -0.4244
15543TIP3    H268121   4.475   4.162  15.012 -2.5377  0.8855  0.0771
15544TIP3   OH268122   6.201   6.321   5.067 -0.2699 -0.0681 -0.0530
15544TIP3    H168123   6.231   6.319   5.158 -1.1953 -0.7252  0.2524
15544TIP3    H268124   6.109   6.293   5.071 -0.2300 -0.4370 -1.2277
15545TIP3   OH268125   0.090   4.987   3.887 -0.3059  0.2690 -0.1263
15545TIP3    H168126   0.035   4.926   3.838 -0.3599 -0.5532  0.9132
15545TIP3    H268127   0.095   5.065   3.832  0.0794 -0.7993 -1.6954
15546TIP3   OH268128   6.512   2.551  12.372  0.0565 -0.0749 -0.2608
15546TIP3    H168129   6.499   2.641  12.340 -0.2090  0.7183  1.8994
15546TIP3    H268130   6.459   2.497  12.314 -0.3803  1.2541 -1.1437
15547TIP3   OH268131   4.178   6.238   5.180  0.2119  0.1667  0.1115
15547TIP3    H168132   4.193   6.264   5.089 -0.0294  0.7090  0.2170
15547TIP3    H268133   4.088   6.206   5.181 -0.1263  1.0840  0.3422
15548TIP3   OH268134   2.281   3.780  12.059 -0.0889 -0.3313 -0.0961
15548TIP3    H168135   2.236   3.823  12.131 -1.9819  0.5222 -1.6884
15548TIP3    H268136   2.343   3.845  12.026 -0.9313  0.1557 -0.7287
15549TIP3   OH268137   3.194   5.125   3.644 -0.3079 -0.8265  0.6101
15549TIP3    H168138   3.226   5.213   3.622  1.3373 -1.0968  1.7190
15549TIP3    H268139   3.121   5.140   3.704 -0.0656 -0.2128  0.7623
15550TIP3   OH268140   6.722   6.111  13.443 -0.1375 -0.0646 -0.5578
15550TIP3    H168141   6.765   6.153  13.517  1.0688 -1.5726 -0.3631
15550TIP3    H268142   6.630   6.105  13.469  0.1903 -0.1881  0.6245
15551TIP3   OH268143   1.202   1.310  15.061  0.1581 -0.5488  0.1486
15551TIP3    H168144   1.292   1.275  15.060  0.3159 -0.1472 -1.0751
15551TIP3    H268145   1.150   1.240  15.099  0.9334 -0.9325  0.5343
15552TIP3   OH268146   2.234   1.286   3.205  0.0360  0.2310 -0.5000
15552TIP3    H168147   2.199   1.344   3.138 -1.5499  0.1913  0.2462
15552TIP3    H268148   2.164   1.279   3.270  0.3853 -2.0380 -0.2691
15553TIP3   OH268149   4.026   2.550  14.320 -0.0076  0.0899 -0.1735
15553TIP3    H168150   3.942   2.595  14.320 -0.8347 -1.3544 -1.6124
15553TIP3    H268151   4.012   2.472  14.266  2.3995  0.0699 -0.8851
15554TIP3   OH268152   3.232   1.200   2.008  0.3543  0.0971  0.5034
15554TIP3    H168153   3.168   1.231   1.944 -0.3707  0.3461  1.3198
15554TIP3    H268154   3.181   1.146   2.068  1.1756 -0.8177  0.4118
15555TIP3   OH268155   1.480   0.763  11.852 -0.3697 -0.0270  0.1296
15555TIP3    H168156   1.506   0.683  11.806  1.0280  0.7005 -0.4175
15555TIP3    H268157   1.560   0.794  11.893 -1.0523  0.7218  0.9237
15556TIP3   OH268158   3.764   2.931   6.189 -0.0290  0.1145  0.0394
15556TIP3    H168159   3.772   3.023   6.216  0.2447 -0.3106  1.5047
15556TIP3    H268160   3.689   2.930   6.130  0.4327  1.3979 -0.6326
15557TIP3   OH268161   6.708   2.982  13.981  0.4459  0.7445  0.3284
15557TIP3    H168162   6.790   3.023  13.953  0.6342 -0.1872 -0.5253
15557TIP3    H268163   6.660   2.966  13.900  0.1593 -0.2626  0.6840
15558TIP3   OH268164   0.548   6.663   4.130 -0.0743  0.6438 -0.0458
15558TIP3    H168165   0.608   6.606   4.178 -1.4960  1.0248  2.3581
15558TIP3    H268166   0.575   6.752   4.154 -0.9485  0.8366  0.2833
15559TIP3   OH268167   2.697   1.698  15.356 -0.8831 -0.6863  0.4147
15559TIP3    H168168   2.654   1.711  15.272 -0.1870  0.3610  0.1951
15559TIP3    H268169   2.772   1.642  15.336 -1.1719 -1.1014  0.4885
15560TIP3   OH268170   5.166   5.968  13.585  0.5232  0.1651 -0.7388
15560TIP3    H168171   5.185   6.009  13.669  0.6530 -0.5961 -0.3890
15560TIP3    H268172   5.138   6.041  13.529  1.5249  0.8542 -0.3803
15561TIP3   OH268173   4.611   1.067   4.276 -0.3322  0.0716  0.4296
15561TIP3    H168174   4.664   1.108   4.344 -0.9646  1.6893 -0.0102
15561TIP3    H268175   4.536   1.029   4.323 -1.0143  1.5939  0.6270
15562TIP3   OH268176   4.948   1.566   2.855  0.3482  0.2151 -0.3646
15562TIP3    H168177   4.897   1.624   2.798 -1.7669 -1.1447  0.0200
15562TIP3    H268178   5.000   1.626   2.909 -1.1715  1.7345 -0.4963
15563TIP3   OH268179   5.081   4.594  14.183 -0.0055 -0.3440 -0.2022
15563TIP3    H168180   5.158   4.651  14.176  0.0826 -0.5673 -1.1278
15563TIP3    H268181   5.068   4.583  14.277 -0.9599  2.4954  0.1036
15564TIP3   OH268182   2.607   5.439   0.952 -0.2692 -1.0025  0.2931
15564TIP3    H168183   2.693   5.436   0.993  0.4464  0.3863 -1.0230
15564TIP3    H268184   2.598   5.354   0.908  1.6889 -0.1693 -1.9057
15565TIP3   OH268185   5.781   4.679   4.259  0.5983  0.4352  0.4352
15565TIP3    H168186   5.875   4.670   4.277  1.0452  5.0553  1.9860
15565TIP3    H268187   5.740   4.679   4.346 -0.5261  0.5410 -0.0820
15566TIP3   OH268188   3.908   6.343  13.460  0.4422  0.4128  0.4572
15566TIP3    H168189   3.901   6.420  13.516  2.2961  0.2962  0.9351
15566TIP3    H268190   3.959   6.281  13.512  0.4668 -0.4805 -0.5934
15567TIP3   OH268191   5.746   0.638  11.850 -0.7696  0.0195  0.2457
15567TIP3    H168192   5.683   0.657  11.781 -0.1574  0.9822 -0.0676
15567TIP3    H268193   5.821   0.695  11.830 -0.2137 -0.3685  1.1775
15568TIP3   OH268194   1.219   5.216   6.539  0.1920  0.4641  0.3072
15568TIP3    H168195   1.136   5.254   6.508  0.2983  1.1656  0.8462
15568TIP3    H268196   1.240   5.266   6.618  1.0041  0.1309  0.3142
15569TIP3   OH268197   3.853   2.767   3.721  0.4034 -0.3176 -0.0786
15569TIP3    H168198   3.786   2.703   3.698 -0.6008  0.4759  0.5476
15569TIP3    H268199   3.905   2.777   3.642 -0.0613 -1.1261 -0.4999
15570TIP3   OH268200   4.234   3.492   1.314  0.3946 -0.2965  0.2216
15570TIP3    H168201   4.205   3.545   1.240  3.5582 -0.0149 -0.9773
15570TIP3    H268202   4.153   3.460   1.353 -1.4781  0.9313 -2.3136
15571TIP3   OH268203   2.464   3.668  10.186  0.1589  0.2374  0.0148
15571TIP3    H168204   2.510   3.748  10.164 -0.7546  0.7745  0.0116
15571TIP3    H268205   2.464   3.664  10.281  1.1380 -0.3275  0.0055
15572TIP3   OH268206   2.748   1.582   4.625  0.1823  0.1686 -0.0632
15572TIP3    H168207   2.741   1.593   4.530  2.7079 -1.2063 -0.5031
15572TIP3    H268208   2.835   1.615   4.647 -0.7636  1.4646  1.9982
15573TIP3   OH268209   0.804   1.831   1.359  0.4990 -0.9038  0.5723
15573TIP3    H168210   0.715   1.835   1.324  1.2559 -0.4511 -1.4025
15573TIP3    H268211   0.820   1.739   1.377  0.1962 -1.1888 -0.6009
15574TIP3   OH268212   2.920   4.322   0.311 -0.3274 -0.2425  0.2075
15574TIP3    H168213   2.969   4.243   0.331  1.8471  0.6983 -1.0724
15574TIP3    H268214   2.932   4.335   0.217 -1.4536  1.0967  0.2073
15575TIP3   OH268215   5.061   1.861   3.607  0.1875  0.4667  0.1359
15575TIP3    H168216   5.110   1.844   3.526 -0.1419  0.4747 -0.0700
15575TIP3    H268217   4.980   1.904   3.577 -2.1496 -3.5626 -0.0558
15576TIP3   OH268218   4.275   4.920  14.212 -0.5576  0.0508 -0.0303
15576TIP3    H168219   4.183   4.914  14.188 -0.2421  0.1091 -1.2930
15576TIP3    H268220   4.290   5.013  14.227 -0.9420 -0.0677  1.2358
15577TIP3   OH268221   0.833   4.123   1.437  0.3051 -0.0226 -0.4982
15577TIP3    H168222   0.877   4.208   1.433 -0.1938  0.2544 -0.1597
15577TIP3    H268223   0.741   4.144   1.453 -0.3233 -0.5046 -3.0864
15578TIP3   OH268224   0.441   5.316   1.158  0.4827  0.2633 -0.1737
15578TIP3    H168225   0.470   5.309   1.249  1.8293  0.5449 -0.5570
15578TIP3    H268226   0.485   5.244   1.113  0.2091  0.4094 -0.6855
15579TIP3   OH268227   3.192   1.690  16.262 -0.3443  0.0460 -0.7610
15579TIP3    H168228   3.282   1.709  16.291 -1.3506  2.1934  1.3325
15579TIP3    H268229   3.166   1.613  16.312  0.2037 -0.3979 -1.1463
15580TIP3   OH268230   2.157   3.289  12.024 -0.6918  0.6774 -0.6371
15580TIP3    H168231   2.178   3.382  12.009  0.3646  0.4867 -0.3816
15580TIP3    H268232   2.069   3.291  12.061  0.2114  1.7629  1.6318
15581TIP3   OH268233   5.572   4.216   4.682 -0.1556 -0.0027 -0.4137
15581TIP3    H168234   5.532   4.272   4.616 -1.5056  0.4123  0.6854
15581TIP3    H268235   5.637   4.272   4.725 -0.5648  0.3258 -0.2049
15582TIP3   OH268236   2.588   4.100   6.264  0.1264 -0.0885  0.5215
15582TIP3    H168237   2.680   4.094   6.290 -0.2932  0.4667  2.2965
15582TIP3    H268238   2.584   4.061   6.177  2.1909  0.6442  0.0595
15583TIP3   OH268239   4.908   2.146  12.213  0.0927  0.3322 -0.1212
15583TIP3    H168240   4.878   2.055  12.205 -0.3452  0.4603  0.0488
15583TIP3    H268241   4.995   2.146  12.173  0.6216 -0.4335  0.9788
15584TIP3   OH268242   5.256   2.392   2.871  0.5664  0.7354  0.2059
15584TIP3    H168243   5.243   2.402   2.965  2.0578  0.6653  0.4514
15584TIP3    H268244   5.168   2.397   2.833  0.0847  2.4408  1.4340
15585TIP3   OH268245   0.982   3.559  16.024 -0.5746 -0.1163  0.1652
15585TIP3    H168246   0.891   3.540  16.001 -0.3999  0.7210 -1.3139
15585TIP3    H268247   0.992   3.653  16.010  0.6127 -0.2566 -0.0335
15586TIP3   OH268248   4.398   3.862  14.854  0.2444 -0.2332 -0.6149
15586TIP3    H168249   4.404   3.939  14.910  2.6840 -0.6536 -0.1726
15586TIP3    H268250   4.407   3.787  14.914 -0.1145 -0.8023 -1.2499
15587TIP3   OH268251   3.484   3.562   5.812  0.0102 -0.5383  0.6171
15587TIP3    H168252   3.450   3.646   5.842  0.7173 -0.3507  0.9270
15587TIP3    H268253   3.567   3.551   5.859  1.1870 -0.2203 -1.2627
15588TIP3   OH268254   4.123   1.388   1.921  0.1832  0.3508  0.0103
15588TIP3    H168255   4.129   1.293   1.928 -1.3345  0.2163 -0.0818
15588TIP3    H268256   4.099   1.418   2.009 -3.2301  0.2026 -0.7173
15589TIP3   OH268257   3.307   1.941  11.973  0.1991 -0.0138  0.1361
15589TIP3    H168258   3.253   1.868  11.941  2.2593 -0.7918 -1.9184
15589TIP3    H268259   3.266   2.019  11.936 -1.3776 -0.1960  1.4078
15590TIP3   OH268260   0.902   6.684   2.634  0.0720  0.6357  0.3776
15590TIP3    H168261   0.890   6.772   2.669 -2.4247 -0.0306  1.4085
15590TIP3    H268262   0.979   6.650   2.681 -1.3158  0.8982  3.0422
15591TIP3   OH268263   2.777   0.637  11.803  0.2675 -0.0150  0.1812
15591TIP3    H168264   2.864   0.599  11.817 -0.5985 -1.3855  2.2622
15591TIP3    H268265   2.769   0.704  11.871  0.0037  0.7694 -0.5935
15592TIP3   OH268266   3.507   1.995  16.347  0.0963  0.1682 -0.1571
15592TIP3    H168267   3.510   2.007  16.442  2.8060  1.0060 -0.2549
15592TIP3    H268268   3.550   2.073  16.311  0.8762 -1.0044 -1.9405
15593TIP3   OH268269   1.629   3.332   2.191  0.6250  0.1725 -0.2645
15593TIP3    H168270   1.681   3.253   2.205  0.8561  0.2693 -0.5725
15593TIP3    H268271   1.546   3.299   2.157  0.4488  0.0117  0.3090
15594TIP3   OH268272   0.658   0.442   4.197  0.4570 -0.1828 -0.7091
15594TIP3    H168273   0.745   0.470   4.169 -0.1156  0.1582 -2.2608
15594TIP3    H268274   0.601   0.465   4.123 -1.0051 -0.0940  0.4144
15595TIP3   OH268275   2.781   4.079  15.679 -0.6975 -0.0057  0.8118
15595TIP3    H168276   2.840   4.077  15.604 -1.7280 -1.3621 -0.0005
15595TIP3    H268277   2.814   4.150  15.733 -0.0306  1.1388 -1.0105
15596TIP3   OH268278   4.421   5.617   0.963 -0.3043 -0.6799  0.7863
15596TIP3    H168279   4.392   5.708   0.956 -1.0243 -0.9080  0.6580
15596TIP3    H268280   4.471   5.601   0.882  1.5434  0.1720  1.7051
15597TIP3   OH268281   6.390   6.593  11.313 -0.2645 -0.3721 -0.1674
15597TIP3    H168282   6.439   6.675  11.307  0.0511 -0.5097  0.4592
15597TIP3    H268283   6.308   6.617  11.356 -1.5349  0.1850 -2.7442
15598TIP3   OH268284   1.369   2.258  12.372  0.0640  0.1239  0.4821
15598TIP3    H168285   1.303   2.195  12.344 -0.1409  0.3670  0.4139
15598TIP3    H268286   1.451   2.225  12.335  0.1073 -0.5812  1.1854
15599TIP3   OH268287   2.015   4.968   5.426  0.7114 -0.1212  0.3406
15599TIP3    H168288   1.982   4.908   5.360 -1.1134  1.1775  0.0071
15599TIP3    H268289   1.945   5.032   5.438  1.3126  0.1695  2.9453
15600TIP3   OH268290   1.134   5.539   6.462  0.2586 -0.3317  0.5052
15600TIP3    H168291   1.156   5.555   6.554  0.3112 -0.0825  0.4519
15600TIP3    H268292   1.078   5.462   6.464 -0.2491  0.0297  0.8127
15601TIP3   OH268293   6.718   0.023  15.748 -0.1157 -0.3682 -0.1302
15601TIP3    H168294   6.653   0.068  15.803 -0.9032  2.5632 -3.0949
15601TIP3    H268295   6.788   0.087  15.737  0.5838 -1.3211 -1.5092
15602TIP3   OH268296   3.060   0.178   1.710 -0.0683 -0.0948  0.2680
15602TIP3    H168297   3.116   0.141   1.642  0.6692 -0.4876  1.0729
15602TIP3    H268298   3.059   0.112   1.779 -1.3714 -0.0010  0.3539
15603TIP3   OH268299   0.639   6.083   1.505  0.1825 -0.2803  0.1837
15603TIP3    H168300   0.657   6.050   1.417  1.0414  0.4850  0.0437
15603TIP3    H268301   0.719   6.063   1.554 -0.5967 -1.4086  1.0199
15604TIP3   OH268302   6.129   0.646   5.634  0.1323  0.4220  0.7885
15604TIP3    H168303   6.093   0.597   5.560 -0.4696  0.3834  1.1022
15604TIP3    H268304   6.216   0.609   5.646  0.3737  0.6664 -0.1180
15605TIP3   OH268305   0.508   5.026   1.106  0.1473 -0.2070 -0.0939
15605TIP3    H168306   0.492   4.997   1.196 -1.2844  2.3293  0.5467
15605TIP3    H268307   0.454   4.968   1.052 -1.7778  0.4725  1.0166
15606TIP3   OH268308   1.831   5.181  14.382 -0.2337 -0.1893  0.4367
15606TIP3    H168309   1.898   5.209  14.444  0.0236 -2.1230  1.1195
15606TIP3    H268310   1.869   5.198  14.296  0.4243  0.2970  0.8175
15607TIP3   OH268311   4.469   0.295  14.315  0.3159 -0.1934 -0.5947
15607TIP3    H168312   4.444   0.388  14.313  1.3940  0.1048 -0.9754
15607TIP3    H268313   4.389   0.249  14.340  0.2887  1.0179  1.7575
15608TIP3   OH268314   6.119   2.369  15.490  0.2304 -0.3198 -0.7497
15608TIP3    H168315   6.086   2.305  15.555 -0.2521  2.5893  2.1376
15608TIP3    H268316   6.044   2.384  15.433 -1.1345  0.7004  1.1815
15609TIP3   OH268317   2.201   2.860  11.746  0.0781 -0.0739  0.8243
15609TIP3    H168318   2.230   2.769  11.754 -0.0340 -0.0483  1.5319
15609TIP3    H268319   2.112   2.860  11.781 -0.4227  0.0568 -0.3690
15610TIP3   OH268320   2.747   2.245  12.055 -0.4704  0.6929  0.2253
15610TIP3    H168321   2.767   2.316  11.993  0.8988 -1.5744 -2.1402
15610TIP3    H268322   2.652   2.235  12.050 -0.5303  1.5204 -0.4025
15611TIP3   OH268323   1.630   5.707   3.425  0.1448  0.5258  0.0228
15611TIP3    H168324   1.724   5.691   3.437 -0.1798 -0.6962  1.2531
15611TIP3    H268325   1.590   5.671   3.504 -1.3296  1.4834 -0.2552
15612TIP3   OH268326   1.051   0.875   5.487 -0.2427 -0.8163  0.2913
15612TIP3    H168327   0.976   0.856   5.543  0.0871  0.9286  1.4148
15612TIP3    H268328   1.102   0.939   5.537  1.6714 -1.4838 -0.7094
15613TIP3   OH268329   0.587   1.938  17.033 -0.7502  0.2282 -0.4872
15613TIP3    H168330   0.657   1.880  17.063 -0.9354 -0.9203 -2.1573
15613TIP3    H268331   0.584   2.008  17.099  0.1763 -1.0887  1.0247
15614TIP3   OH268332   0.880   5.058  11.847  0.2777 -0.0163 -0.6889
15614TIP3    H168333   0.952   5.030  11.904 -0.4618 -0.6222 -0.0358
15614TIP3    H268334   0.811   5.086  11.907 -0.4156 -0.3928 -1.2957
15615TIP3   OH268335   4.708   3.316  13.780  0.1557  0.4224 -0.1993
15615TIP3    H168336   4.756   3.311  13.863  0.7899 -1.2907 -0.6262
15615TIP3    H268337   4.776   3.332  13.715  0.1321 -1.3764 -0.7322
15616TIP3   OH268338   0.970   4.189  10.682 -0.2622  0.3356  0.2042
15616TIP3    H168339   0.897   4.130  10.700 -0.0598 -0.8792 -2.4199
15616TIP3    H268340   1.048   4.135  10.694  0.0738  0.8944  0.5626
15617TIP3   OH268341   6.290   1.410   6.656  0.3855  0.3952 -0.2740
15617TIP3    H168342   6.318   1.319   6.651 -3.8289 -1.7083  4.8251
15617TIP3    H268343   6.225   1.419   6.586 -1.1439 -1.5734  0.8107
15618TIP3   OH268344   3.667   1.960   0.605 -0.3648  0.3404  0.3059
15618TIP3    H168345   3.657   2.024   0.676 -1.0176 -1.5475  2.0153
15618TIP3    H268346   3.579   1.953   0.567 -0.5505 -0.2745  0.8255
15619TIP3   OH268347   6.472   6.664   0.682 -0.4195  0.3969 -0.1209
15619TIP3    H168348   6.562   6.695   0.695  1.5263 -3.9734 -1.2390
15619TIP3    H268349   6.455   6.606   0.757 -0.6205 -1.8688 -1.7877
15620TIP3   OH268350   5.259   3.040   6.007  0.2255  0.6002 -0.0227
15620TIP3    H168351   5.325   3.004   6.067  1.3789  2.4201 -0.1297
15620TIP3    H268352   5.292   3.018   5.919 -0.0507  0.3027 -0.0545
15621TIP3   OH268353   4.388   0.759   0.827 -0.0835  0.0166 -0.3086
15621TIP3    H168354   4.327   0.826   0.797  0.9046  0.6323 -1.0203
15621TIP3    H268355   4.370   0.683   0.771 -2.1359 -0.8581  1.3858
15622TIP3   OH268356   2.817   4.307   0.574  0.3458  0.0240 -0.9206
15622TIP3    H168357   2.846   4.395   0.601  0.0499 -0.1465 -0.0126
15622TIP3    H268358   2.804   4.314   0.480 -2.0940  1.6983 -0.5704
15623TIP3   OH268359   1.570   4.160  14.108 -0.4793  0.2701  0.9111
15623TIP3    H168360   1.592   4.241  14.063  0.6703  0.1075  1.1496
15623TIP3    H268361   1.655   4.119  14.128 -1.0292 -0.8880  0.9807
15624TIP3   OH268362   1.724   0.452  13.677  0.0401 -0.0901  0.1106
15624TIP3    H168363   1.674   0.371  13.693  0.5279  0.0650  2.9497
15624TIP3    H268364   1.815   0.424  13.677  0.1537  0.2557 -0.5897
15625TIP3   OH268365   2.488   5.864   6.010 -0.4616  0.5651  0.2933
15625TIP3    H168366   2.401   5.837   6.040  0.2415 -0.7469  1.2702
15625TIP3    H268367   2.540   5.784   6.014  0.6300  1.1802 -0.9507
15626TIP3   OH268368   3.842   6.429  10.871  0.1121  0.0227 -0.3383
15626TIP3    H168369   3.765   6.427  10.927 -0.3522 -0.1119 -0.9781
15626TIP3    H268370   3.837   6.348  10.820  0.8449 -0.1450 -0.1606
15627TIP3   OH268371   4.954   4.533  10.611  0.3692 -0.5135  0.0490
15627TIP3    H168372   5.010   4.487  10.674 -0.8749  0.1290  1.7121
15627TIP3    H268373   4.997   4.618  10.599  0.7410 -0.7290 -0.1733
15628TIP3   OH268374   2.555   6.130  15.502 -0.2495  1.0840 -0.0761
15628TIP3    H168375   2.467   6.163  15.484 -0.7779 -0.2153  0.0157
15628TIP3    H268376   2.561   6.050  15.450  1.0616  1.4001 -0.4399
15629TIP3   OH268377   4.079   3.978  11.382 -0.0244 -0.2098  0.5972
15629TIP3    H168378   4.126   4.062  11.384  0.2378 -0.3176 -0.6022
15629TIP3    H268379   4.140   3.917  11.340 -0.6610 -0.7190  0.4014
15630TIP3   OH268380   3.319   1.658   3.543 -0.3122 -0.9506  0.6669
15630TIP3    H168381   3.228   1.656   3.513 -0.1464  1.8299 -0.2935
15630TIP3    H268382   3.318   1.717   3.618  1.1948  2.3927 -1.7223
15631TIP3   OH268383   0.299   2.442   0.145  0.4186  0.2572  0.6266
15631TIP3    H168384   0.220   2.408   0.187  0.6103  0.1308  0.8886
15631TIP3    H268385   0.321   2.378   0.078 -0.1814  0.7149 -0.0229
15632TIP3   OH268386   4.165   2.625   5.147  0.3716  0.5142  0.2283
15632TIP3    H168387   4.220   2.555   5.111  1.1722  0.3988  1.6090
15632TIP3    H268388   4.163   2.692   5.078  0.8015 -0.2376 -0.5303
15633TIP3   OH268389   5.518   6.652  15.490  0.4492  0.3167  0.6163
15633TIP3    H168390   5.451   6.649  15.422  1.7691 -2.1563 -0.7114
15633TIP3    H268391   5.489   6.589  15.556  1.8259 -1.4870 -0.4217
15634TIP3   OH268392   4.919   5.849   1.722  0.0410 -0.1163 -0.1237
15634TIP3    H168393   4.914   5.827   1.629 -0.1671 -0.2140 -0.0907
15634TIP3    H268394   5.006   5.819   1.750  0.3311  0.4325 -0.4167
15635TIP3   OH268395   4.646   1.116  13.219 -0.1360  0.0590  0.5745
15635TIP3    H168396   4.708   1.066  13.272  0.4286  0.5794  0.4220
15635TIP3    H268397   4.610   1.052  13.158  0.5347 -0.1796  0.4173
15636TIP3   OH268398   3.710   2.345  15.096 -0.1176 -0.4015 -0.4322
15636TIP3    H168399   3.698   2.256  15.062 -0.0183 -0.8291  0.5980
15636TIP3    H268400   3.785   2.379  15.048  1.6465 -1.9258  1.0785
15637TIP3   OH268401   4.205   4.702   3.181 -0.5873 -0.3772  0.3866
15637TIP3    H168402   4.120   4.696   3.226  0.3419  0.4315  2.3989
15637TIP3    H268403   4.262   4.642   3.230  0.1074 -0.6241 -0.6969
15638TIP3   OH268404   4.894   5.398   2.396  1.1047 -0.1691  0.0614
15638TIP3    H168405   4.842   5.321   2.422 -2.3250  2.2193  1.0543
15638TIP3    H268406   4.849   5.432   2.319  0.6032  2.4533  1.4078
15639TIP3   OH268407   2.371   5.556  11.407 -0.4822 -0.0292  0.4630
15639TIP3    H168408   2.385   5.607  11.327  0.5362 -0.8151  0.1154
15639TIP3    H268409   2.457   5.520  11.428 -0.3028  1.5713  2.9412
15640TIP3   OH268410   4.316   2.263   4.055 -0.3453 -0.3353 -0.1963
15640TIP3    H168411   4.283   2.193   4.112 -1.0667 -0.6238 -0.9395
15640TIP3    H268412   4.365   2.217   3.987  2.0734  0.1152  1.1346
15641TIP3   OH268413   6.302   1.877  15.215  0.1410 -0.1697  0.3198
15641TIP3    H168414   6.318   1.807  15.151  0.0656  0.9086 -0.9262
15641TIP3    H268415   6.354   1.951  15.183  1.4483 -0.0854  2.4423
15642TIP3   OH268416   6.000   2.712  14.107 -0.5622  0.5402  0.8761
15642TIP3    H168417   5.975   2.749  14.022 -0.0230  0.0904  0.5147
15642TIP3    H268418   5.936   2.643  14.123  0.1275 -0.2703  0.1934
15643TIP3   OH268419   4.053   2.331   0.285  0.1741  0.5348  0.1772
15643TIP3    H168420   3.967   2.374   0.284 -0.5051 -0.7140 -1.5814
15643TIP3    H268421   4.066   2.303   0.375 -1.7249 -0.0580  0.3050
15644TIP3   OH268422   3.793   5.951  14.282 -0.0067 -0.0805  0.4516
15644TIP3    H168423   3.714   5.907  14.249  0.7070  0.5092 -2.3020
15644TIP3    H268424   3.796   6.034  14.236  2.3673 -0.2079  0.2219
15645TIP3   OH268425   6.467   3.859   4.534 -0.0134 -0.2917  0.7302
15645TIP3    H168426   6.373   3.846   4.547 -0.5492  2.7115  0.5667
15645TIP3    H268427   6.477   3.954   4.527  2.6157 -0.6403 -2.5305
15646TIP3   OH268428   4.274   5.169  14.308 -0.5910  0.1908  0.1285
15646TIP3    H168429   4.252   5.101  14.372 -0.0478  0.2144  0.3479
15646TIP3    H268430   4.325   5.233  14.357 -0.5320  0.4263 -0.2322
15647TIP3   OH268431   4.752   2.354  14.940  0.0348  0.2362  0.4041
15647TIP3    H168432   4.756   2.287  14.871  0.6025  1.4727 -0.8272
15647TIP3    H268433   4.813   2.323  15.007 -1.1769 -1.4306  0.8033
15648TIP3   OH268434   4.266   5.353   2.968  0.4982  0.6061  0.0021
15648TIP3    H168435   4.249   5.376   2.876  0.9448  0.9262 -0.0052
15648TIP3    H268436   4.206   5.409   3.018  0.8417  1.0430 -0.0637
15649TIP3   OH268437   2.572   0.981   3.198 -0.8728  0.5038  0.4502
15649TIP3    H168438   2.605   1.045   3.136  0.4696 -0.8338 -0.2951
15649TIP3    H268439   2.477   0.993   3.198 -0.6305  2.8449  0.7881
15650TIP3   OH268440   4.547   2.985  15.174  0.3660 -0.4643  0.2042
15650TIP3    H168441   4.559   2.890  15.184  0.0476 -0.4624  0.6275
15650TIP3    H268442   4.537   2.998  15.080  0.5020 -0.8424  0.1372
15651TIP3   OH268443   1.626   4.384  10.909  0.4974  0.0685  0.2443
15651TIP3    H168444   1.638   4.307  10.965  0.2277  0.8623  1.4428
15651TIP3    H268445   1.682   4.451  10.949  1.7693  0.1461 -1.5558
15652TIP3   OH268446   2.841   3.777  11.074  0.4589  0.5687  0.2882
15652TIP3    H168447   2.817   3.841  11.007  1.0442  2.0635  1.4551
15652TIP3    H268448   2.898   3.825  11.134 -0.7983 -0.4387  2.3936
15653TIP3   OH268449   4.072   3.197   1.666  0.4592 -0.7449 -0.1573
15653TIP3    H168450   3.979   3.185   1.689 -0.2289 -0.3040 -2.4630
15653TIP3    H268451   4.071   3.218   1.573  3.0516 -2.8954 -0.7755
15654TIP3   OH268452   1.594   5.495  12.106  0.3374 -0.2706  0.0135
15654TIP3    H168453   1.607   5.415  12.157  0.4242 -0.2440  0.0334
15654TIP3    H268454   1.655   5.558  12.145 -0.2212  0.0092  0.4415
15655TIP3   OH268455   4.895   3.690   0.291  0.3477 -0.2476 -0.1588
15655TIP3    H168456   4.868   3.718   0.378 -0.1076 -0.8261 -0.1052
15655TIP3    H268457   4.903   3.771   0.240  0.2338  0.0597  0.3129
15656TIP3   OH268458   1.660   5.895  16.234 -0.6399  0.6531 -0.4369
15656TIP3    H168459   1.711   5.912  16.155 -1.6825  0.4865 -1.1550
15656TIP3    H268460   1.569   5.898  16.206 -1.0698  1.5130  0.9427
15657TIP3   OH268461   1.629   0.267   4.339 -0.4817  0.2199 -0.3856
15657TIP3    H168462   1.703   0.223   4.297 -1.5504 -0.7503 -1.3125
15657TIP3    H268463   1.600   0.332   4.276  1.7826  3.2303  1.4052
15658TIP3   OH268464   5.890   0.813   4.165  0.5872  0.5602 -0.2853
15658TIP3    H168465   5.810   0.789   4.118  0.2531  0.7692  0.1652
15658TIP3    H268466   5.859   0.846   4.249  1.2125 -0.6525  0.4466
15659TIP3   OH268467   2.869   3.358  14.458  0.2980  0.1281 -0.5501
15659TIP3    H168468   2.895   3.412  14.383  2.3513 -0.0037  0.0187
15659TIP3    H268469   2.773   3.354  14.452  0.3759  0.3341 -3.0015
15660TIP3   OH268470   0.386   4.407  12.659  0.1069 -0.8136 -0.2163
15660TIP3    H168471   0.476   4.431  12.636 -0.1147  0.9841  0.5904
15660TIP3    H268472   0.391   4.382  12.752 -0.2617 -0.4837 -0.1063
15661TIP3   OH268473   5.969   2.047  13.375 -0.0536  0.8678 -0.0756
15661TIP3    H168474   5.985   1.954  13.389  1.1931  0.7824 -1.7057
15661TIP3    H268475   5.996   2.089  13.456  0.3840 -0.1074  0.3002
15662TIP3   OH268476   2.008   6.724  11.606 -0.4095  0.4089  0.7793
15662TIP3    H168477   2.005   6.815  11.634  0.1285  0.0440  2.0906
15662TIP3    H268478   2.099   6.698  11.618  0.0491  0.3841 -1.9870
15663TIP3   OH268479   1.097   3.598   4.897  0.0726  0.7932 -0.7429
15663TIP3    H168480   1.020   3.628   4.848 -1.0127 -0.9206 -0.1810
15663TIP3    H268481   1.078   3.621   4.988 -0.3328 -0.6281 -0.4432
15664TIP3   OH268482   0.363   4.823   2.522 -0.1990  0.0725 -0.7023
15664TIP3    H168483   0.270   4.844   2.528 -0.1704  0.2566 -0.8728
15664TIP3    H268484   0.407   4.908   2.526 -0.0064 -0.0502 -0.0514
15665TIP3   OH268485   0.604   3.681  16.479 -0.3765 -0.4479  0.5138
15665TIP3    H168486   0.698   3.662  16.471 -0.2307 -0.0444  1.1570
15665TIP3    H268487   0.567   3.654  16.395  0.8142  2.4152 -1.0619
15666TIP3   OH268488   1.651   2.560   3.000 -0.3007 -0.1583 -0.1356
15666TIP3    H168489   1.694   2.573   3.085  0.4600  1.1620 -0.6981
15666TIP3    H268490   1.722   2.542   2.939 -0.8564 -1.2550 -0.4971
15667TIP3   OH268491   0.043   4.186   1.611  0.4303 -0.2996 -0.1085
15667TIP3    H168492  -0.034   4.243   1.617  0.1998 -0.3773 -1.6914
15667TIP3    H268493   0.010   4.099   1.635  0.1752 -0.2000 -0.0907
15668TIP3   OH268494   6.220   5.136  10.821  0.2644 -0.3289 -0.4374
15668TIP3    H168495   6.130   5.128  10.850 -0.5752  0.7051 -2.5390
15668TIP3    H268496   6.242   5.228  10.833  1.8490 -0.9125  2.0166
15669TIP3   OH268497   3.687   3.786  14.089  0.3181 -0.2270 -0.1900
15669TIP3    H168498   3.759   3.737  14.129 -0.7245 -2.0104 -0.4036
15669TIP3    H268499   3.729   3.843  14.025  1.6817  0.0719  0.9119
15670TIP3   OH268500   2.890   2.271  13.761  0.5473 -0.3623  0.3281
15670TIP3    H168501   2.819   2.334  13.775 -0.8927 -1.8441 -0.0503
15670TIP3    H268502   2.938   2.306  13.686  0.3107  0.7261  0.6649
15671TIP3   OH268503   1.970   5.980   6.118 -0.1974  0.1551 -0.2256
15671TIP3    H168504   1.963   5.932   6.201  0.1762  1.3442  0.5157
15671TIP3    H268505   1.930   6.065   6.136 -0.2138  0.3915 -1.3138
15672TIP3   OH268506   4.716   2.544  13.692 -0.0761  0.4382 -0.1352
15672TIP3    H168507   4.723   2.462  13.741 -1.2179  1.1879  1.3584
15672TIP3    H268508   4.643   2.530  13.632 -0.3225  0.3832  0.1749
15673TIP3   OH268509   1.951   1.470   1.526  0.2549  0.1265 -0.6450
15673TIP3    H168510   1.947   1.550   1.579 -0.4702 -1.2831  1.5750
15673TIP3    H268511   1.860   1.440   1.521  0.7334 -1.6317  0.3873
15674TIP3   OH268512   2.895   4.701   2.949  0.2297  0.3290 -0.2933
15674TIP3    H168513   2.938   4.717   3.033 -0.8557  1.6318  0.0555
15674TIP3    H268514   2.913   4.780   2.898 -1.4402  0.8027 -0.2358
15675TIP3   OH268515   4.967   6.253   3.849 -0.0416 -0.6125  0.1877
15675TIP3    H168516   4.975   6.254   3.753 -0.0312 -1.1342  0.1846
15675TIP3    H268517   4.940   6.164   3.870  1.5847 -1.0023  0.8004
15676TIP3   OH268518   6.010   3.497   3.018 -0.0599  0.4938 -0.2263
15676TIP3    H168519   6.045   3.424   2.967  1.0512  1.0637 -0.3197
15676TIP3    H268520   5.977   3.457   3.098  0.4615 -0.1323 -0.3171
15677TIP3   OH268521   2.226   3.486   5.804 -0.4474  0.0585 -0.0173
15677TIP3    H168522   2.183   3.405   5.775  1.2989 -1.2160  0.7562
15677TIP3    H268523   2.306   3.491   5.751  0.2011  0.4513  0.9606
15678TIP3   OH268524   5.784   4.120   0.765 -0.2626 -0.2583 -0.0379
15678TIP3    H168525   5.734   4.137   0.845  1.4228 -0.3151  1.0787
15678TIP3    H268526   5.796   4.207   0.725  0.6884  0.0806  0.9237
15679TIP3   OH268527   1.547   6.256   5.098  0.0842  0.0162  0.1421
15679TIP3    H168528   1.545   6.296   5.185  0.6032 -0.2141  0.2665
15679TIP3    H268529   1.500   6.174   5.108  1.0873 -0.5409  0.4949
15680TIP3   OH268530   6.525   1.232  12.755 -0.0594  0.0634  0.0268
15680TIP3    H168531   6.609   1.185  12.760 -0.9603 -1.7303 -0.9182
15680TIP3    H268532   6.470   1.178  12.699 -1.6312  1.6003 -0.0057
15681TIP3   OH268533   4.877   0.602  11.808  0.1486  1.0683 -0.1248
15681TIP3    H168534   4.844   0.650  11.884  0.8658 -0.5292  1.2799
15681TIP3    H268535   4.945   0.659  11.771 -0.2556  1.9011  0.4002
15682TIP3   OH268536   6.146   3.200  13.725 -0.3439 -0.4973  0.4527
15682TIP3    H168537   6.146   3.214  13.820  0.3351  2.4466  0.1108
15682TIP3    H268538   6.234   3.167  13.706 -0.0628  0.0976  0.7148
15683TIP3   OH268539   0.061   6.572   0.012  0.3887  0.0663 -0.2582
15683TIP3    H168540   0.145   6.606  -0.020  1.1589 -1.6922 -0.1983
15683TIP3    H268541   0.003   6.579  -0.063  1.2837 -0.9807 -1.0794
15684TIP3   OH268542   1.235   4.312   1.768 -0.1885  0.2901 -0.1450
15684TIP3    H168543   1.163   4.362   1.808 -1.7091 -1.4237 -0.5754
15684TIP3    H268544   1.242   4.346   1.679 -1.4810 -0.4690 -0.5643
15685TIP3   OH268545   5.588   1.932   2.351 -0.4062  0.2776 -0.2215
15685TIP3    H168546   5.636   1.852   2.374 -2.2730 -0.9379 -0.4177
15685TIP3    H268547   5.588   1.934   2.256  0.3563  1.0168 -0.2308
15686TIP3   OH268548   1.784   0.023  17.058  0.3732  0.0705  0.0873
15686TIP3    H168549   1.739   0.072  16.989 -1.2176 -0.8524  0.4041
15686TIP3    H268550   1.714  -0.027  17.101  1.4833 -0.1802  1.6934
15687TIP3   OH268551   1.458   3.053  11.746  0.3740 -0.5123  1.2056
15687TIP3    H168552   1.387   2.994  11.721  0.4836 -0.0212 -0.3760
15687TIP3    H268553   1.415   3.124  11.795 -0.3654  0.1239 -0.2965
15688TIP3   OH268554   3.319   1.420   1.359 -0.1977  0.8057 -0.3652
15688TIP3    H168555   3.322   1.356   1.288 -0.7100  2.7993 -2.3229
15688TIP3    H268556   3.399   1.404   1.409 -0.8636 -2.0431 -0.0481
15689TIP3   OH268557   2.955   4.352  15.168 -0.6951  0.1014 -0.7482
15689TIP3    H168558   2.918   4.308  15.244 -0.9544  1.0744 -0.2994
15689TIP3    H268559   3.034   4.301  15.147  0.1379  0.5978  1.0039
15690TIP3   OH268560   5.436   6.149   0.761  0.5420  0.3746  0.1204
15690TIP3    H168561   5.460   6.115   0.848 -0.0392 -1.2180 -0.3115
15690TIP3    H268562   5.341   6.140   0.757  0.3708  1.9209 -0.1167
15691TIP3   OH268563   1.899   0.849  16.272 -0.6841 -0.4228  0.3702
15691TIP3    H168564   1.854   0.820  16.351 -2.1997  0.2734 -0.2046
15691TIP3    H268565   1.881   0.781  16.207  0.8401 -1.1651  0.6695
15692TIP3   OH268566   2.685   2.925  16.547 -0.3953  0.3188  0.3246
15692TIP3    H168567   2.610   2.906  16.491 -0.5951 -1.9594  1.2182
15692TIP3    H268568   2.658   2.894  16.634  1.0817  0.7247  0.9621
15693TIP3   OH268569   5.113   1.582   0.021  0.5213  0.2909  0.0545
15693TIP3    H168570   5.132   1.497   0.062  1.7397  0.8124  0.6050
15693TIP3    H268571   5.067   1.631   0.089  1.5162  0.7423  0.4162
15694TIP3   OH268572   1.958   6.424   5.142  0.1865  0.1109  0.1140
15694TIP3    H168573   2.035   6.383   5.102  0.6357  0.9130  0.1246
15694TIP3    H268574   1.987   6.447   5.231  0.0510  0.7305  0.0032
15695TIP3   OH268575   2.867   0.739   0.011  0.2837 -0.3476  0.3795
15695TIP3    H168576   2.792   0.724   0.069  0.4075 -3.3322 -0.0968
15695TIP3    H268577   2.939   0.759   0.070 -0.3680  0.2173  1.0019
15696TIP3   OH268578   6.287   5.646  13.903 -0.5724  0.4470  0.4997
15696TIP3    H168579   6.319   5.731  13.933  2.4185 -0.8820  1.4009
15696TIP3    H268580   6.324   5.635  13.815  1.1339 -0.8949  1.3416
15697TIP3   OH268581   5.133   2.586  15.639  0.7625  0.0951 -0.3002
15697TIP3    H168582   5.072   2.607  15.568  0.0913  1.5017  0.6547
15697TIP3    H268583   5.214   2.631  15.614 -0.0861  2.3731  0.7669
15698TIP3   OH268584   1.222   4.174  14.531 -0.7730 -0.1185 -0.3873
15698TIP3    H168585   1.143   4.125  14.508 -0.5055  0.0248 -1.6543
15698TIP3    H268586   1.291   4.133  14.480  0.0757 -0.5304  1.0560
15699TIP3   OH268587   4.231   5.512   1.142 -0.4868  0.6760  0.8012
15699TIP3    H168588   4.221   5.418   1.153 -3.6179  0.5305 -1.9942
15699TIP3    H268589   4.293   5.521   1.069  0.6282  0.8916  1.7379
15700TIP3   OH268590   5.995   2.987   4.222 -0.3904  1.0105 -0.3363
15700TIP3    H168591   6.051   2.938   4.162 -0.3414 -2.1282  2.0111
15700TIP3    H268592   6.052   3.057   4.255  1.2088 -0.2621 -0.2615
15701TIP3   OH268593   5.978   4.948   4.915  0.5265  0.2712 -0.3538
15701TIP3    H168594   5.979   4.977   5.006 -1.0626 -1.5980  0.3390
15701TIP3    H268595   6.064   4.908   4.901  1.0106  1.1323  0.0958
15702TIP3   OH268596   3.580   2.081   2.345 -0.6289  0.2372 -0.2401
15702TIP3    H168597   3.595   2.065   2.438  1.1749 -0.6762 -0.6424
15702TIP3    H268598   3.563   2.175   2.339 -0.9362  0.2721  1.0148
15703TIP3   OH268599   4.491   4.313  14.908 -0.0447 -0.3140 -0.3544
15703TIP3    H168600   4.558   4.370  14.947 -0.6667  0.2349 -0.0668
15703TIP3    H268601   4.491   4.335  14.815  1.2753 -1.4518 -0.6517
15704TIP3   OH268602   4.109   4.160   5.827 -0.1276 -0.1461 -0.1297
15704TIP3    H168603   4.132   4.214   5.902 -0.0087  0.0723 -0.3231
15704TIP3    H268604   4.032   4.202   5.789  0.4506  0.3574 -0.7613
15705TIP3   OH268605   2.887   6.454  13.257  0.3056 -0.5065  0.0426
15705TIP3    H168606   2.793   6.442  13.256  0.2561 -0.4223  1.6206
15705TIP3    H268607   2.920   6.381  13.309  1.1201 -0.5515 -0.5152
15706TIP3   OH268608   6.189   3.674   1.990  0.1001  0.6229 -0.1023
15706TIP3    H168609   6.247   3.673   2.066  2.4461 -1.5481 -1.7400
15706TIP3    H268610   6.217   3.750   1.940 -0.2920  1.0706  0.3404
15707TIP3   OH268611   3.842   3.741   4.483  0.0266  0.5510  0.4577
15707TIP3    H168612   3.829   3.819   4.430  1.3612  0.1834 -0.4695
15707TIP3    H268613   3.754   3.704   4.495 -0.2171 -0.3257 -3.0168
15708TIP3   OH268614   3.298   2.969   1.871 -0.3417  0.4857 -0.0917
15708TIP3    H168615   3.324   3.005   1.956  0.8251 -0.7374  0.1115
15708TIP3    H268616   3.292   3.045   1.813  0.3131  1.1847  0.7291
15709TIP3   OH268617   2.130   5.881  12.081 -0.0985  0.2916 -0.6167
15709TIP3    H168618   2.144   5.816  12.150 -1.1468  0.3163 -0.3666
15709TIP3    H268619   2.216   5.890  12.039  0.5480  0.2248  0.6379
15710TIP3   OH268620   5.313   2.211   5.774  0.5794  0.8483 -0.7412
15710TIP3    H168621   5.262   2.162   5.710  0.7517 -0.2853 -0.0336
15710TIP3    H268622   5.254   2.280   5.804 -0.3948 -0.1775 -0.2489
15711TIP3   OH268623   4.951   4.412  12.448  0.0274  0.2713  0.1803
15711TIP3    H168624   4.884   4.353  12.483  1.2408 -0.2915  1.6841
15711TIP3    H268625   4.964   4.478  12.517  0.7829  0.5493 -0.2177
15712TIP3   OH268626   2.421   1.076  14.593  0.5967  0.1804  0.3312
15712TIP3    H168627   2.334   1.115  14.579 -0.5975 -1.1396  3.2911
15712TIP3    H268628   2.408   0.983  14.578  1.8160  0.1092 -0.3337
15713TIP3   OH268629   5.907   6.620  13.294  0.1366 -0.6096  0.8123
15713TIP3    H168630   5.991   6.575  13.303  0.7232  0.5856  1.5374
15713TIP3    H268631   5.842   6.554  13.319  0.9372 -1.2036  1.3764
15714TIP3   OH268632   0.594   6.756   6.242 -0.0845 -0.4150 -0.5865
15714TIP3    H168633   0.544   6.778   6.321 -2.6944 -0.4103 -2.1175
15714TIP3    H268634   0.648   6.681   6.269  0.9546  1.0844  1.8026
15715TIP3   OH268635   4.583   1.365   4.242  0.6388  0.4354 -0.2977
15715TIP3    H168636   4.637   1.288   4.222  0.4132  0.5182 -1.3153
15715TIP3    H268637   4.495   1.340   4.212  0.9815  1.8595 -2.7123
15716TIP3   OH268638   4.842   2.028  10.569 -0.3840  0.0668 -0.5833
15716TIP3    H168639   4.903   1.962  10.603 -1.6517 -1.9875 -2.0740
15716TIP3    H268640   4.787   2.050  10.644 -0.1773 -0.8629 -0.1303
15717TIP3   OH268641   3.016   0.856  17.081 -0.1551  0.0927 -0.1159
15717TIP3    H168642   3.094   0.874  17.132  0.9516  1.2075 -2.0799
15717TIP3    H268643   2.952   0.823  17.145  1.9210 -0.9798  1.5114
15718TIP3   OH268644   1.917   1.338  16.681 -0.1810 -0.5227 -0.2806
15718TIP3    H168645   1.864   1.393  16.625 -0.3566  0.1284  0.5150
15718TIP3    H268646   1.893   1.248  16.657 -1.6428 -0.2429  0.0759
15719TIP3   OH268647   1.049   6.334   0.497  0.1929 -0.0930  0.1226
15719TIP3    H168648   0.953   6.327   0.496  0.2147 -0.5838  0.9334
15719TIP3    H268649   1.079   6.243   0.492  0.5989 -0.0341  1.2859
15720TIP3   OH268650   3.455   5.075   0.423 -0.1734  0.1192 -0.3794
15720TIP3    H168651   3.492   5.142   0.481  0.5338 -0.5768 -0.0109
15720TIP3    H268652   3.503   4.995   0.445 -0.1834 -0.2488 -1.6315
15721TIP3   OH268653   4.504   1.564   2.796 -0.1676 -0.5690  0.0866
15721TIP3    H168654   4.574   1.604   2.744 -0.7978  0.4306 -0.0217
15721TIP3    H268655   4.549   1.522   2.870  0.6255 -0.9109 -0.5742
15722TIP3   OH268656   6.117   5.541  15.881  0.2884  0.3899 -0.0069
15722TIP3    H168657   6.040   5.587  15.846  0.5454  1.3588  0.6623
15722TIP3    H268658   6.116   5.562  15.975 -0.2332 -1.9234  0.5733
15723TIP3   OH268659   2.881   6.545   2.727  0.3211 -0.3636 -0.5461
15723TIP3    H168660   2.952   6.490   2.760 -0.0268 -0.2245  0.4650
15723TIP3    H268661   2.889   6.627   2.775  0.8813  0.5337 -2.0982
15724TIP3   OH268662   3.949   0.277   1.932  0.2394  0.4136 -0.0194
15724TIP3    H168663   3.871   0.305   1.980  1.4563  0.0958  2.2554
15724TIP3    H268664   3.967   0.349   1.871 -1.6758  0.5742 -0.4746
15725TIP3   OH268665   2.693   2.693   4.089 -0.3694 -0.4602 -0.4105
15725TIP3    H168666   2.614   2.681   4.038 -0.3842 -1.5413 -0.1544
15725TIP3    H268667   2.730   2.605   4.098  0.5442 -0.0547 -0.0308
15726TIP3   OH268668   1.401   5.884  16.131 -0.1490 -0.2542  0.5279
15726TIP3    H168669   1.324   5.857  16.081 -0.5928  2.0731 -0.1584
15726TIP3    H268670   1.367   5.920  16.212 -0.1582  3.3360 -0.8889
15727TIP3   OH268671   0.839   1.778  13.317  0.1369 -0.5911  0.3746
15727TIP3    H168672   0.768   1.826  13.361 -0.0363  0.0007 -0.5344
15727TIP3    H268673   0.837   1.691  13.357 -0.4420 -0.2686  1.0729
15728TIP3   OH268674   0.845   0.588  13.269  0.0371  0.2397  0.4515
15728TIP3    H168675   0.786   0.517  13.247  0.7848  0.2894 -1.9958
15728TIP3    H268676   0.820   0.660  13.211  2.4246  0.2534 -0.6825
15729TIP3   OH268677   4.727   3.083   3.366 -0.2099  0.4868 -0.5385
15729TIP3    H168678   4.699   2.992   3.376 -0.7509  0.7677  0.8595
15729TIP3    H268679   4.676   3.116   3.293  0.5202 -0.5181 -1.5299
15730TIP3   OH268680   3.199   3.472  13.838 -0.3720 -0.3251 -0.0149
15730TIP3    H168681   3.244   3.400  13.793  1.0508  0.9520 -0.6953
15730TIP3    H268682   3.204   3.546  13.777  2.0210  1.6092  2.3122
15731TIP3   OH268683   5.001   2.000   3.246  0.1467 -0.0902  0.0939
15731TIP3    H168684   4.947   1.994   3.325 -0.8393  0.5325 -0.5096
15731TIP3    H268685   4.973   2.082   3.205  0.9816 -0.1734 -0.6575
15732TIP3   OH268686   4.598   5.080  15.741  0.4269 -0.0804 -0.1593
15732TIP3    H168687   4.560   5.161  15.775 -0.4953 -0.3467 -0.5459
15732TIP3    H268688   4.611   5.025  15.817  0.0446  0.0109 -0.0294
15733TIP3   OH268689   5.152   6.687   0.439  0.3260 -0.5062  0.1250
15733TIP3    H168690   5.076   6.654   0.391  0.5042  2.2771 -2.4255
15733TIP3    H268691   5.225   6.680   0.376  1.5800 -0.6057  1.5299
15734TIP3   OH268692   4.126   4.282   1.544  0.9368  1.2500  0.0208
15734TIP3    H168693   4.113   4.198   1.588  0.2598  1.5701  0.4484
15734TIP3    H268694   4.085   4.346   1.602  0.1041  1.6941 -1.0325
15735TIP3   OH268695   3.771   3.793  15.996  0.0459 -0.4723  0.1819
15735TIP3    H168696   3.790   3.700  15.980  0.6373 -0.3438  0.1254
15735TIP3    H268697   3.836   3.840  15.944 -2.7768  0.0746 -3.1885
15736TIP3   OH268698   4.229   1.377  14.982  0.5321  0.2350 -0.8133
15736TIP3    H168699   4.276   1.455  15.011  1.3383 -0.4641 -0.2145
15736TIP3    H268700   4.291   1.331  14.925  1.2461 -1.4982  1.2085
15737TIP3   OH268701   6.202   6.514  16.871 -0.4006  0.4862  0.3770
15737TIP3    H168702   6.224   6.450  16.804 -0.3296  0.6750  0.2191
15737TIP3    H268703   6.145   6.576  16.827  0.3128  1.0759  0.2594
15738TIP3   OH268704   6.742   6.321   2.128  0.1875  0.5069 -0.1910
15738TIP3    H168705   6.748   6.228   2.108  0.3689  0.2196  1.0843
15738TIP3    H268706   6.656   6.347   2.095 -0.8248 -0.6423  1.3850
15739TIP3   OH268707   0.476   0.284  16.451  0.0196 -0.4728 -0.6751
15739TIP3    H168708   0.409   0.294  16.519  1.9807  2.6807  1.0504
15739TIP3    H268709   0.438   0.326  16.374 -0.8780 -0.9475 -0.5130
15740TIP3   OH268710   5.850   2.334   2.094  0.4390 -0.0245 -0.4454
15740TIP3    H168711   5.755   2.330   2.098  0.4167  0.0409 -0.8674
15740TIP3    H268712   5.879   2.242   2.100  0.3457 -0.0534 -0.4472
15741TIP3   OH268713   2.214   2.528   5.332  0.4697 -0.2927  0.2118
15741TIP3    H168714   2.202   2.442   5.374 -0.0083 -0.1817  0.3178
15741TIP3    H268715   2.200   2.591   5.403 -0.1587 -0.1081 -0.0668
15742TIP3   OH268716   6.201   6.172  14.044 -0.2554 -0.3381  0.0530
15742TIP3    H168717   6.134   6.114  14.080 -1.9725  1.7995  0.5464
15742TIP3    H268718   6.162   6.207  13.964  0.0476  1.2701  0.5669
15743TIP3   OH268719   0.816   2.163  16.262 -0.0827  0.1032  0.1768
15743TIP3    H168720   0.753   2.115  16.316 -1.5445  1.6102 -0.1410
15743TIP3    H268721   0.821   2.250  16.302 -0.9012  1.1410 -1.8454
15744TIP3   OH268722   5.659   0.900  10.914  0.5339 -0.0948 -0.7862
15744TIP3    H168723   5.609   0.841  10.858 -0.8416  0.6320 -0.3714
15744TIP3    H268724   5.702   0.842  10.977  0.6854 -0.7762 -1.4895
15745TIP3   OH268725   0.999   3.861  15.482 -0.5696 -0.3117 -0.1024
15745TIP3    H168726   1.026   3.943  15.522 -1.2999  0.3639 -0.9368
15745TIP3    H268727   1.079   3.808  15.478  0.2724  0.9615 -0.9641
15746TIP3   OH268728   4.849   1.206  13.997  0.0944  0.4931 -0.7605
15746TIP3    H168729   4.893   1.240  13.919  1.1558 -0.1900 -0.4778
15746TIP3    H268730   4.881   1.261  14.068 -0.4187  0.7395 -0.7174
15747TIP3   OH268731   0.189   4.392  11.769 -0.0737 -0.0435  0.0336
15747TIP3    H168732   0.238   4.456  11.821  0.9323 -0.7236 -0.0479
15747TIP3    H268733   0.107   4.437  11.747  0.9595  1.5720 -0.7851
15748TIP3   OH268734   6.767   3.280   0.554 -0.5273  0.3146 -0.7373
15748TIP3    H168735   6.746   3.223   0.628  1.9714 -0.7781 -0.7755
15748TIP3    H268736   6.776   3.367   0.593  0.8777 -0.2662  0.3327
15749TIP3   OH268737   5.665   4.505  14.013 -0.8137  0.1669 -0.0393
15749TIP3    H168738   5.624   4.465  13.936 -1.6420  0.3009  0.3228
15749TIP3    H268739   5.681   4.595  13.987 -1.4687  0.3203  0.0809
15750TIP3   OH268740   5.298   1.438   6.160  0.1348  0.1916 -0.0426
15750TIP3    H168741   5.269   1.373   6.096  2.1549  0.3502 -1.1863
15750TIP3    H268742   5.319   1.387   6.238 -0.4891 -0.2274 -0.1357
15751TIP3   OH268743   5.386   2.978   0.391  0.1158 -0.4235 -0.3495
15751TIP3    H168744   5.465   3.023   0.420  0.7932 -1.3485 -0.7029
15751TIP3    H268745   5.417   2.894   0.357 -0.6211  0.4281 -3.4603
15752TIP3   OH268746   0.660   3.347  11.587  0.7124  0.4231  0.0013
15752TIP3    H168747   0.627   3.433  11.561 -1.8893 -1.0875 -2.2555
15752TIP3    H268748   0.738   3.335  11.533  0.3149  0.8294 -0.6838
15753TIP3   OH268749   2.326   3.858   0.059  0.2824 -0.6781  0.3082
15753TIP3    H168750   2.309   3.952   0.056 -0.5502 -0.7885  1.1211
15753TIP3    H268751   2.266   3.825   0.126 -0.4057 -2.0032 -0.9165
15754TIP3   OH268752   3.646   4.791   2.118 -0.1808 -0.0902 -0.6775
15754TIP3    H168753   3.739   4.767   2.115  0.5790  2.0846  1.4537
15754TIP3    H268754   3.599   4.710   2.099  2.1044 -1.0878 -2.6784
15755TIP3   OH268755   5.240   1.928  15.036 -0.5705 -0.5356  0.1336
15755TIP3    H168756   5.212   1.947  14.946 -0.8173  1.5435  0.5875
15755TIP3    H268757   5.215   2.006  15.085  0.2103 -1.3384  1.8794
15756TIP3   OH268758   3.305   2.309   4.780  0.3737 -0.3426 -0.2192
15756TIP3    H168759   3.265   2.272   4.701 -2.0324  0.2502  0.6174
15756TIP3    H268760   3.312   2.403   4.761 -2.3527  0.2065  0.9680
15757TIP3   OH268761   5.817   4.889  11.724 -0.2482 -0.3093 -0.5811
15757TIP3    H168762   5.766   4.857  11.798 -0.8838  1.4493 -0.2090
15757TIP3    H268763   5.771   4.858  11.647  1.2344 -3.4514 -0.3580
15758TIP3   OH268764   6.586   2.813  16.727  0.3923 -0.2503  0.4614
15758TIP3    H168765   6.595   2.813  16.822  1.1216  0.5149  0.4008
15758TIP3    H268766   6.576   2.906  16.704 -0.3582 -0.4675 -0.1648
15759TIP3   OH268767   0.618   0.520  11.750 -0.3066 -0.4049  0.2488
15759TIP3    H168768   0.668   0.460  11.805 -0.6115 -0.3323  0.6079
15759TIP3    H268769   0.648   0.502  11.661  0.7486  0.0073  0.5041
15760TIP3   OH268770   4.287   4.379  17.073 -0.0260 -0.2318  0.1838
15760TIP3    H168771   4.342   4.301  17.077  0.0495 -0.1552  0.9581
15760TIP3    H268772   4.220   4.359  17.008 -1.7029 -2.0941  2.3295
15761TIP3   OH268773   5.865   1.912   4.240  0.0707 -0.1277  0.4465
15761TIP3    H168774   5.826   1.825   4.249  2.7827 -1.4418  0.4545
15761TIP3    H268775   5.812   1.967   4.297 -0.8434 -2.0980  1.6191
15762TIP3   OH268776   1.895   5.987   4.513 -0.5100 -0.1630  0.0830
15762TIP3    H168777   1.936   6.019   4.433 -2.1246 -1.4359 -1.3378
15762TIP3    H268778   1.810   6.032   4.517 -0.3223  0.1298  1.2821
15763TIP3   OH268779   4.924   5.647   5.797 -0.0848  0.3455  0.5657
15763TIP3    H168780   4.865   5.702   5.745  0.7433  0.3439 -0.4163
15763TIP3    H268781   4.928   5.690   5.883 -2.8654 -0.6232  1.2674
15764TIP3   OH268782   4.304   2.666  13.452  0.3136 -0.3360  0.1176
15764TIP3    H168783   4.301   2.732  13.521 -1.0705 -1.0916  0.8268
15764TIP3    H268784   4.244   2.597  13.482 -0.5068 -0.5844 -1.9408
15765TIP3   OH268785   4.030   0.436  15.930 -0.0453  0.0477  0.5959
15765TIP3    H168786   4.082   0.514  15.911  3.1353 -1.5421  1.9031
15765TIP3    H268787   4.012   0.441  16.024  0.6377 -0.9778  0.7971
15766TIP3   OH268788   1.247   0.912  11.709 -0.1034  0.3283 -0.0581
15766TIP3    H168789   1.274   0.981  11.770 -0.7127  0.8048 -0.3139
15766TIP3    H268790   1.319   0.848  11.712  1.2234  1.7004 -0.9631
15767TIP3   OH268791   2.948   3.399  11.189  0.4407  0.2166  0.2137
15767TIP3    H168792   2.981   3.482  11.223  1.6137  0.0840 -0.5342
15767TIP3    H268793   3.024   3.342  11.186 -0.1233 -0.5413 -0.3198
15768TIP3   OH268794   5.618   3.861  12.742  0.4025  0.2229  0.3822
15768TIP3    H168795   5.580   3.885  12.826 -0.8149 -1.3110  0.3094
15768TIP3    H268796   5.629   3.944  12.696 -0.6136  0.9182  1.3575
15769TIP3   OH268797   5.480   0.117   2.351 -0.5622 -0.0072 -0.0835
15769TIP3    H168798   5.422   0.060   2.402 -1.3523  2.2945  1.7402
15769TIP3    H268799   5.464   0.091   2.260 -1.4582 -2.1128  0.6085
15770TIP3   OH268800   2.880   2.876   4.022 -0.3662 -0.4969 -0.2975
15770TIP3    H168801   2.932   2.889   4.101  0.7022 -1.6194 -0.7891
15770TIP3    H268802   2.808   2.819   4.049 -0.1311 -0.6932 -0.0821
15771TIP3   OH268803   2.636   2.726   1.944 -0.3522  0.8272  0.6290
15771TIP3    H168804   2.690   2.801   1.916  1.0889 -0.1330  0.7159
15771TIP3    H268805   2.696   2.651   1.941 -2.4015 -0.8985 -2.1329
15772TIP3   OH268806   6.152   3.186   3.550 -0.1050  0.2457  0.2464
15772TIP3    H168807   6.182   3.212   3.637  1.6392  0.4687 -0.3886
15772TIP3    H268808   6.224   3.210   3.492 -0.7963 -0.8834 -1.1188
15773TIP3   OH268809   4.344   2.152  12.639 -0.2024 -0.8969 -0.3636
15773TIP3    H168810   4.283   2.166  12.711 -0.6618  2.1622 -1.2071
15773TIP3    H268811   4.308   2.077  12.592 -3.1900  0.4965 -0.5675
15774TIP3   OH268812   1.530   2.943   2.039  0.4325 -0.0412  0.2128
15774TIP3    H168813   1.614   2.984   2.019  0.5760 -0.9330 -1.1494
15774TIP3    H268814   1.551   2.878   2.107  1.2529 -1.5606 -1.4088
15775TIP3   OH268815   1.448   3.929  16.502  0.0901  0.1102 -0.2002
15775TIP3    H168816   1.358   3.960  16.511 -0.3172 -1.1569  0.3589
15775TIP3    H268817   1.497   3.980  16.567 -0.3432  0.3582 -0.0620
15776TIP3   OH268818   6.439   0.099   3.287  0.0012  0.5597 -0.3701
15776TIP3    H168819   6.393   0.094   3.203 -0.6977  0.9246 -0.0139
15776TIP3    H268820   6.402   0.176   3.331 -0.4124 -0.2300  0.7219
15777TIP3   OH268821   0.425   0.853   1.130  0.0424 -0.1833  0.1172
15777TIP3    H168822   0.354   0.870   1.067  0.0414  2.7292  0.7661
15777TIP3    H268823   0.485   0.795   1.084 -2.7795 -2.9545 -0.3911
15778TIP3   OH268824   2.031   4.533  15.838 -0.7399  0.2194 -0.1967
15778TIP3    H168825   1.957   4.580  15.877  1.1885  2.7646  0.6630
15778TIP3    H268826   2.036   4.450  15.887 -1.9776  0.7461  0.8687
15779TIP3   OH268827   6.253   5.928  12.971  0.7607  0.3303 -0.3741
15779TIP3    H168828   6.256   5.835  12.995  1.9961  0.3659 -0.2928
15779TIP3    H268829   6.162   5.953  12.981  0.3121 -1.0126 -0.9192
15780TIP3   OH268830   3.173   4.541  16.696 -0.4515  0.6807 -0.0166
15780TIP3    H168831   3.265   4.551  16.718 -0.7575  1.1936  1.1491
15780TIP3    H268832   3.172   4.507  16.607  0.9166 -1.8491  0.8361
15781TIP3   OH268833   6.421   6.641  16.691 -0.1688  0.5508  0.7456
15781TIP3    H168834   6.374   6.688  16.760 -1.1084 -0.1015  0.5532
15781TIP3    H268835   6.358   6.631  16.620  0.9951  1.8882 -0.5660
15782TIP3   OH268836   5.479   0.477   5.729 -0.0672 -0.2370  0.1699
15782TIP3    H168837   5.403   0.421   5.708 -0.6801  0.5400  0.2729
15782TIP3    H268838   5.521   0.433   5.802  1.1305 -2.0961 -1.5156
15783TIP3   OH268839   6.396   2.541   1.929 -0.0200 -0.3662 -0.0083
15783TIP3    H168840   6.314   2.541   1.979  1.0659 -1.1151  1.8483
15783TIP3    H268841   6.368   2.520   1.839 -1.9348  0.1489  0.4057
15784TIP3   OH268842   1.725   3.512   6.527 -0.0599  0.5054  0.0408
15784TIP3    H168843   1.757   3.475   6.444 -1.9115  0.1122 -0.5363
15784TIP3    H268844   1.771   3.595   6.534 -0.2910  0.8338 -1.7135
15785TIP3   OH268845   3.494   6.544   1.967  0.5488  0.3497  0.1771
15785TIP3    H168846   3.556   6.522   2.036 -0.9592  0.3697  1.5991
15785TIP3    H268847   3.549   6.578   1.895  2.2856 -1.1271  0.7269
15786TIP3   OH268848   3.896   4.920  11.371  0.2151 -0.7655 -0.1383
15786TIP3    H168849   3.942   4.886  11.294 -1.0841  1.0184 -1.8202
15786TIP3    H268850   3.818   4.962  11.335  0.5052  1.8107  1.9454
15787TIP3   OH268851   6.732   6.718   4.827  0.1288 -0.1509 -0.7247
15787TIP3    H168852   6.825   6.712   4.849 -0.0769 -0.2052  0.1839
15787TIP3    H268853   6.724   6.798   4.776  0.3749  1.0007  0.9559
15788TIP3   OH268854   2.637   1.798   0.542  0.6605  0.1422  0.1169
15788TIP3    H168855   2.643   1.702   0.538  1.3896  0.1721  0.4034
15788TIP3    H268856   2.727   1.828   0.528  0.0480  0.8848 -2.8602
15789TIP3   OH268857   4.439   6.140  10.780  0.4453 -0.5168 -0.1822
15789TIP3    H168858   4.534   6.137  10.792  0.4408  1.0582  0.4924
15789TIP3    H268859   4.423   6.089  10.701  1.7549 -1.5005  0.1460
15790TIP3   OH268860   5.969   1.481   2.196  0.4346  0.1365 -0.1228
15790TIP3    H168861   5.916   1.501   2.273  0.1422 -1.0301 -0.0061
15790TIP3    H268862   6.042   1.430   2.230  0.6864  0.2319 -0.5231
15791TIP3   OH268863   1.252   0.032  15.246  0.0350 -0.0836  0.1511
15791TIP3    H168864   1.286  -0.054  15.269  1.1193 -0.1332 -1.4798
15791TIP3    H268865   1.271   0.042  15.153  0.5685  2.1917  0.4202
15792TIP3   OH268866   5.159   2.689   2.311 -0.1733 -0.1732 -0.0100
15792TIP3    H168867   5.142   2.601   2.278 -0.9480 -0.1503  0.3294
15792TIP3    H268868   5.238   2.679   2.364 -0.4087 -0.7164  0.2450
15793TIP3   OH268869   5.361   6.293  14.858  0.3880  0.2413 -0.4135
15793TIP3    H168870   5.377   6.369  14.801  0.4979 -0.2203 -1.0049
15793TIP3    H268871   5.445   6.279  14.902  0.0359  1.1922  0.6055
15794TIP3   OH268872   0.161   1.249   1.487  0.3160 -0.1726 -0.3849
15794TIP3    H168873   0.250   1.258   1.453  0.6096  1.9043  0.7607
15794TIP3    H268874   0.108   1.305   1.431  0.4058  1.4422  1.0736
15795TIP3   OH268875   0.965   5.879   2.222 -0.4639  0.2788  0.2700
15795TIP3    H168876   0.985   5.920   2.137 -0.7359  2.2798  1.1072
15795TIP3    H268877   0.870   5.891   2.232 -0.3133  0.8040  1.1930
15796TIP3   OH268878   3.788   0.965  12.283  0.2281  0.5374  0.4709
15796TIP3    H168879   3.813   0.961  12.190  0.1492  1.9542  0.3791
15796TIP3    H268880   3.857   0.915  12.327  0.6856  0.4886 -0.2715
15797TIP3   OH268881   1.998   2.410  15.817 -0.1012 -0.1028 -0.2234
15797TIP3    H168882   2.043   2.365  15.888 -2.0602 -1.0786  0.4880
15797TIP3    H268883   1.988   2.344  15.749  0.5026  0.4192 -0.8235
15798TIP3   OH268884   5.199   0.786   2.659  0.2330  0.3195  0.2293
15798TIP3    H168885   5.290   0.763   2.641 -0.0640 -0.7427  0.0098
15798TIP3    H268886   5.191   0.878   2.632  0.9487  0.0906 -0.7964
15799TIP3   OH268887   5.852   4.794   3.661 -0.1690 -0.3138  0.7513
15799TIP3    H168888   5.829   4.847   3.584 -0.5658  0.0142  1.0916
15799TIP3    H268889   5.917   4.731   3.628  1.0451  0.9958  0.5549
15800TIP3   OH268890   0.782   1.018   5.111  0.6339  0.1889 -0.3387
15800TIP3    H168891   0.815   0.930   5.127 -0.0800 -0.3146 -1.4566
15800TIP3    H268892   0.716   1.032   5.179  0.6125 -0.2290 -0.2718
15801TIP3   OH268893   4.386   4.108   4.442 -0.1032  0.0445 -0.2296
15801TIP3    H168894   4.391   4.112   4.347  0.4489 -0.1327 -0.2161
15801TIP3    H268895   4.370   4.198   4.469 -1.9504 -0.1636 -0.5600
15802TIP3   OH268896   4.008   5.640   4.766  0.4368  0.3670 -0.2166
15802TIP3    H168897   4.028   5.732   4.747 -0.4949  0.7352  0.5230
15802TIP3    H268898   4.020   5.595   4.682 -1.9551  1.6571 -1.3495
15803TIP3   OH268899   1.025   5.531  11.097  0.1481 -0.7179  0.6572
15803TIP3    H168900   1.097   5.570  11.146  0.0882  1.7370 -1.0286
15803TIP3    H268901   1.065   5.496  11.019 -0.3466 -0.0111  0.0671
15804TIP3   OH268902   5.958   0.470  16.965  0.3282  0.3686  0.1479
15804TIP3    H168903   5.964   0.484  16.871  0.6429  0.4783  0.1856
15804TIP3    H268904   5.873   0.426  16.977  0.8261 -0.7530 -0.3145
15805TIP3   OH268905   5.490   3.859   1.101  0.2887  0.3190  0.1397
15805TIP3    H168906   5.464   3.771   1.127  0.0542  0.5655  0.7800
15805TIP3    H268907   5.509   3.853   1.008  1.6751 -0.7296  0.4568
15806TIP3   OH268908   0.405   5.409  11.456  0.0915 -0.1432  0.4367
15806TIP3    H168909   0.360   5.338  11.501  0.0563 -1.6930 -1.8954
15806TIP3    H268910   0.339   5.478  11.447 -0.3639 -0.4550  1.2506
15807TIP3   OH268911   1.039   0.223  15.315 -0.4621 -0.0254  0.7922
15807TIP3    H168912   1.102   0.156  15.290 -0.9200 -0.4772  0.8289
15807TIP3    H268913   1.084   0.306  15.297  0.1693 -0.3379  0.9111
15808TIP3   OH268914   1.518   0.037  14.422 -0.4866 -0.0947  0.2508
15808TIP3    H168915   1.611   0.014  14.427 -0.6413 -0.7309  0.3367
15808TIP3    H268916   1.495   0.023  14.330 -0.3382  0.7084  0.0910
15809TIP3   OH268917   5.237   4.645   2.390  0.5516 -0.1849  0.6460
15809TIP3    H168918   5.206   4.599   2.312 -0.0041  0.0100  0.7482
15809TIP3    H268919   5.213   4.737   2.376  1.8221  0.1201  0.3599
15810TIP3   OH268920   2.507   6.529  11.138 -0.4662  0.1251 -0.0111
15810TIP3    H168921   2.523   6.453  11.081 -2.4341 -0.5665  0.2699
15810TIP3    H268922   2.411   6.531  11.148 -0.3798  2.0934  0.7651
15811TIP3   OH268923   1.828   2.021   0.946 -0.2805 -0.3325  0.5228
15811TIP3    H168924   1.901   2.083   0.941  0.0356 -0.6457  1.1648
15811TIP3    H268925   1.866   1.943   0.988 -1.0010 -0.4785  0.9143
15812TIP3   OH268926   3.095   0.983  15.190  0.2912  0.3001  0.3996
15812TIP3    H168927   3.088   0.889  15.206  0.0588  0.0646 -0.9586
15812TIP3    H268928   3.043   0.998  15.111 -2.1242  2.0761  2.1771
15813TIP3   OH268929   5.510   0.254  12.450 -0.2073 -0.3749 -0.2397
15813TIP3    H168930   5.421   0.241  12.482 -0.7652  2.0245 -0.6113
15813TIP3    H268931   5.498   0.296  12.364  1.2924 -1.8746 -1.2515
15814TIP3   OH268932   1.164   1.589  13.587 -0.3117 -0.2689 -0.5398
15814TIP3    H168933   1.236   1.570  13.647 -0.2995  1.2528 -0.0040
15814TIP3    H268934   1.194   1.557  13.502  1.6337  1.4952 -0.6213
15815TIP3   OH268935   4.458   0.552   1.799 -0.5709 -0.0475 -0.7580
15815TIP3    H168936   4.437   0.645   1.796 -0.6489 -0.0538 -0.4207
15815TIP3    H268937   4.544   0.549   1.842 -1.6014 -0.2863  1.4283
15816TIP3   OH268938   3.786   4.938  16.602 -0.2372  0.5024  0.1213
15816TIP3    H168939   3.707   4.993  16.602  0.8327  2.1333  1.3629
15816TIP3    H268940   3.845   4.982  16.542  0.2243  0.0838  0.2675
15817TIP3   OH268941   2.081   4.371   1.739 -0.2958 -0.1271 -0.3081
15817TIP3    H168942   2.040   4.420   1.811  0.8336 -0.3320  0.5019
15817TIP3    H268943   2.041   4.284   1.745 -1.7270  0.4316 -1.2566
15818TIP3   OH268944   3.973   2.351   0.728  0.2842  0.0697  0.0414
15818TIP3    H168945   3.932   2.429   0.689  0.1186 -0.3000 -0.5413
15818TIP3    H268946   3.943   2.279   0.673  2.8295 -0.0851 -1.2886
15819TIP3   OH268947   5.003   6.191   3.210  0.3127  0.0825 -0.5357
15819TIP3    H168948   5.076   6.192   3.149  0.2874 -0.1194 -0.5713
15819TIP3    H268949   5.036   6.142   3.286  0.1263 -0.2489 -0.6663
15820TIP3   OH268950   1.790   6.335   2.783  0.0062 -0.1994 -0.5169
15820TIP3    H168951   1.798   6.240   2.787 -1.5385 -0.5122 -2.7954
15820TIP3    H268952   1.710   6.354   2.833  0.0700 -0.1543 -0.4321
15821TIP3   OH268953   4.074   2.162  13.413  0.1049 -0.4693  0.2344
15821TIP3    H168954   4.117   2.084  13.378  0.3531  0.4059 -1.5158
15821TIP3    H268955   4.147   2.219  13.438 -0.0263  0.0997 -0.6295
15822TIP3   OH268956   5.599   2.190   5.864 -0.1887  0.3889  0.0953
15822TIP3    H168957   5.509   2.202   5.834 -0.1054  2.1477  0.4290
15822TIP3    H268958   5.614   2.263   5.925  0.8207 -1.0022  1.5951
15823TIP3   OH268959   4.479   4.941   4.771  0.1334 -0.7108 -0.2893
15823TIP3    H168960   4.483   5.036   4.784 -2.0471 -0.6631  0.4025
15823TIP3    H268961   4.532   4.926   4.693  2.5087  0.7304  0.9392
15824TIP3   OH268962   1.401   3.906   0.236 -0.8234  0.1710  0.0144
15824TIP3    H168963   1.345   3.862   0.299 -0.7606 -0.2901 -0.2507
15824TIP3    H268964   1.458   3.838   0.201 -0.4081  0.5464 -0.0585
15825TIP3   OH268965   3.787   2.267  16.843 -0.0954  0.2430 -0.1216
15825TIP3    H168966   3.692   2.257  16.844  0.0485 -2.4317 -2.5015
15825TIP3    H268967   3.820   2.195  16.896  0.6427  0.1997 -0.6230
15826TIP3   OH268968   2.677   3.393   3.395  0.1140 -0.1549  0.1108
15826TIP3    H168969   2.745   3.341   3.438  0.7529  1.5182  1.2233
15826TIP3    H268970   2.673   3.357   3.306  2.1123 -0.6472  0.1599
15827TIP3   OH268971   4.013   6.471  16.280 -0.1649 -0.1483 -0.2806
15827TIP3    H168972   4.082   6.455  16.216  0.8078 -1.8415  1.1159
15827TIP3    H268973   3.972   6.385  16.294 -2.3461  0.7327 -0.7751
15828TIP3   OH268974   1.305   5.360  13.919 -0.3310 -0.3179 -0.3327
15828TIP3    H168975   1.269   5.313  13.994 -1.0702 -1.5109 -1.4055
15828TIP3    H268976   1.352   5.434  13.958  1.4056 -2.2291  1.4618
15829TIP3   OH268977   1.646   4.274   1.518 -0.6770  0.3785 -0.2554
15829TIP3    H168978   1.660   4.320   1.601 -0.9352  0.2881 -0.1588
15829TIP3    H268979   1.702   4.197   1.523  0.0389  0.8632 -0.5717
15830TIP3   OH268980   5.433   3.449  16.312 -0.5963  0.6001  0.3656
15830TIP3    H168981   5.474   3.395  16.245  0.6539  1.1566  0.6493
15830TIP3    H268982   5.341   3.423  16.312 -0.5954  0.5116 -1.4748
15831TIP3   OH268983   0.229   3.602  17.084  0.4734 -0.5076 -0.5000
15831TIP3    H168984   0.266   3.676  17.036  1.0238  0.4931  1.3947
15831TIP3    H268985   0.136   3.624  17.095  0.4320 -0.5554 -0.7468
15832TIP3   OH268986   4.815   1.825  11.232 -0.0545 -0.0188 -0.7165
15832TIP3    H168987   4.844   1.890  11.296  2.6332 -2.4331  0.7600
15832TIP3    H268988   4.737   1.786  11.271 -0.4848  0.9174 -0.6303
15833TIP3   OH268989   5.205   1.119  17.155 -0.2390 -0.3358  0.2672
15833TIP3    H168990   5.229   1.041  17.205  2.9507 -1.8513 -3.1671
15833TIP3    H268991   5.141   1.088  17.091 -0.9803  0.5563  0.5479
15834TIP3   OH268992   3.687   4.612   0.344 -0.2625 -0.2382  0.5727
15834TIP3    H168993   3.684   4.623   0.249 -0.2434 -0.4224  0.5502
15834TIP3    H268994   3.770   4.568   0.360 -0.3233 -0.3205  0.6635
15835TIP3   OH268995   5.126   4.272  11.408  0.4007  0.3935 -0.1199
15835TIP3    H168996   5.086   4.346  11.453 -0.7157 -0.4118  0.2672
15835TIP3    H268997   5.105   4.286  11.316 -1.5890 -0.4449  0.1563
15836TIP3   OH268998   4.885   6.165   6.515  0.2296 -0.5877  0.3001
15836TIP3    H168999   4.797   6.151   6.550 -0.5717 -0.3068 -1.4884
15836TIP3    H269000   4.883   6.255   6.482 -0.3662 -1.8570 -3.7318
15837TIP3   OH269001   3.212   0.557  11.234  0.0924 -0.4516  0.0325
15837TIP3    H169002   3.215   0.520  11.322  2.1899  0.5800  0.4721
15837TIP3    H269003   3.297   0.535  11.196  0.4195  1.6536 -0.6067
15838TIP3   OH269004   5.795   4.978  14.075  0.3157  0.2793  0.3731
15838TIP3    H169005   5.788   5.072  14.091  0.9649 -0.0251  3.0685
15838TIP3    H269006   5.787   4.939  14.162  0.7470 -2.1191 -0.5850
15839TIP3   OH269007   5.621   4.916  13.019 -0.3116 -0.3052  0.3287
15839TIP3    H169008   5.600   4.823  13.020  2.5036 -1.0888 -1.8338
15839TIP3    H269009   5.578   4.950  12.941 -1.2957  0.2635  1.0885
15840TIP3   OH269010   4.950   0.559   3.358 -0.4548  0.5173  0.4526
15840TIP3    H169011   4.947   0.558   3.262 -0.9719  1.6533  0.4370
15840TIP3    H269012   4.891   0.489   3.385  1.1848 -1.1359 -0.0417
15841TIP3   OH269013   0.306   2.516   2.943  0.1418 -0.3725  0.4295
15841TIP3    H169014   0.234   2.456   2.923 -0.6288  0.4260  0.7012
15841TIP3    H269015   0.384   2.461   2.944 -0.4374 -1.2324 -0.0598
15842TIP3   OH269016   5.050   3.034   5.197  0.3048 -0.4509 -0.1234
15842TIP3    H169017   5.125   3.011   5.142  1.7158 -1.8877  2.2319
15842TIP3    H269018   5.088   3.077   5.273 -1.6052  1.6943 -0.2728
15843TIP3   OH269019   3.074   1.543  10.799 -0.1298 -0.3982 -0.0108
15843TIP3    H169020   3.131   1.495  10.738 -0.0065  2.0813 -2.0449
15843TIP3    H269021   2.988   1.503  10.787  0.4321 -1.7850  0.3391
15844TIP3   OH269022   0.294   5.445  16.144  0.1642 -0.0692 -0.0360
15844TIP3    H169023   0.238   5.416  16.073  0.9672  1.1136 -1.1949
15844TIP3    H269024   0.258   5.530  16.171  1.3117  0.6839 -0.7640
15845TIP3   OH269025   1.026   5.590  13.039 -0.1908  0.0959 -0.3208
15845TIP3    H169026   0.974   5.579  12.958  2.2679 -2.2326 -1.7702
15845TIP3    H269027   1.085   5.662  13.020 -0.3219  0.2447 -0.1679
15846TIP3   OH269028   2.234   5.979   1.062  0.4151  0.2578  0.0826
15846TIP3    H169029   2.281   6.061   1.074 -1.3453  1.6299 -1.6816
15846TIP3    H269030   2.283   5.933   0.994  3.2677 -1.8154  3.2062
15847TIP3   OH269031   2.492   5.434   4.076 -0.8475  0.4177  0.2482
15847TIP3    H169032   2.568   5.458   4.022 -0.1448 -1.5775  0.2717
15847TIP3    H269033   2.418   5.438   4.016 -0.5073  0.9373 -0.1490
15848TIP3   OH269034   3.540   1.994   4.491  0.4343  0.5027 -0.0905
15848TIP3    H169035   3.465   2.032   4.535  0.9519  0.1353  1.1365
15848TIP3    H269036   3.615   2.022   4.542  1.1403  0.7509 -1.2212
15849TIP3   OH269037   3.542   6.313  13.506 -0.3382 -0.0442 -0.4566
15849TIP3    H169038   3.599   6.317  13.583 -0.9996 -1.7712  0.1575
15849TIP3    H269039   3.472   6.375  13.525  0.7501  1.3369 -0.7686
15850TIP3   OH269040   2.311   5.722   0.391  0.2083  0.2940  0.4666
15850TIP3    H169041   2.250   5.662   0.433 -1.2958  0.4513 -1.3641
15850TIP3    H269042   2.263   5.805   0.384  0.8225  0.5909 -0.5201
15851TIP3   OH269043   5.384   1.441   0.426  0.6461 -0.0795 -0.2149
15851TIP3    H169044   5.396   1.435   0.520 -2.4654 -0.2876  0.2770
15851TIP3    H269045   5.342   1.526   0.413  1.0366 -0.0501 -1.4315
15852TIP3   OH269046   2.292   2.338  15.199 -0.1153 -0.5409  0.6763
15852TIP3    H169047   2.211   2.300  15.235 -1.0425  0.2329 -0.4907
15852TIP3    H269048   2.361   2.308  15.257 -1.0775 -2.3211  0.9534
15853TIP3   OH269049   5.794   5.243  16.440 -0.6429  0.1014  0.4086
15853TIP3    H169050   5.699   5.257  16.435 -0.3345  3.5972  1.6932
15853TIP3    H269051   5.832   5.319  16.396  1.5575  0.1251  2.1690
15854TIP3   OH269052   5.441   1.929   0.937 -0.0857  0.5931 -0.1542
15854TIP3    H169053   5.395   1.846   0.923  0.0968  0.3837  0.4421
15854TIP3    H269054   5.533   1.904   0.945 -0.1385  0.7122  1.0948
15855TIP3   OH269055   2.355   2.160  15.771 -0.1935  0.0497 -0.3582
15855TIP3    H169056   2.308   2.223  15.826  0.1141  0.1437 -0.2041
15855TIP3    H269057   2.327   2.074  15.803  0.9719  0.0832  0.8093
15856TIP3   OH269058   6.620   5.094  10.557  0.1701  0.4245  0.1387
15856TIP3    H169059   6.539   5.064  10.598  0.6772  0.1202  0.9398
15856TIP3    H269060   6.677   5.017  10.557  0.5032  0.6643 -0.3161
15857TIP3   OH269061   2.186   1.884  13.412  0.0549  0.4285 -0.0679
15857TIP3    H169062   2.120   1.876  13.343  1.2590  1.1214 -1.3230
15857TIP3    H269063   2.242   1.808  13.401  1.7590  1.8089 -1.5421
15858TIP3   OH269064   2.456   3.297   0.895  0.4813  0.3482 -0.5490
15858TIP3    H169065   2.404   3.253   0.828 -0.1906  0.3272 -0.0211
15858TIP3    H269066   2.479   3.228   0.957 -0.4785  0.6998  0.2183
15859TIP3   OH269067   1.923   0.514   5.606  0.2152  0.8054 -0.1194
15859TIP3    H169068   1.924   0.523   5.511  0.3247 -0.6068 -0.2843
15859TIP3    H269069   1.831   0.523   5.630 -0.0967 -0.7476 -0.6083
15860TIP3   OH269070   5.498   1.927  12.426  0.3311 -0.1008  0.3329
15860TIP3    H169071   5.493   1.993  12.495  0.2428 -1.1138  1.3269
15860TIP3    H269072   5.554   1.859  12.463 -0.2036 -0.9357 -0.3680
15861TIP3   OH269073   0.703   4.590   5.456  0.1734  0.2775  0.6218
15861TIP3    H169074   0.644   4.521   5.427 -0.0233 -0.0128  1.6852
15861TIP3    H269075   0.791   4.557   5.438  0.0543  1.1350 -1.9395
15862TIP3   OH269076   0.813   0.559  11.526  0.0134  0.3765  0.4544
15862TIP3    H169077   0.771   0.485  11.482 -0.5252  0.9160  0.0435
15862TIP3    H269078   0.865   0.519  11.596 -0.5203 -0.3640  0.4396
15863TIP3   OH269079   6.091   0.831   3.929  0.4417 -0.1195  0.2613
15863TIP3    H169080   6.040   0.855   4.007  0.9465 -1.2627  0.9764
15863TIP3    H269081   6.084   0.907   3.871  0.9018  1.2129  1.8480
15864TIP3   OH269082   3.788   3.970   5.471 -0.5666  0.5824 -0.0527
15864TIP3    H169083   3.746   4.027   5.406  2.5038  1.6448 -1.2993
15864TIP3    H269084   3.824   3.898   5.419  1.3685  1.0969  0.5052
15865TIP3   OH269085   5.179   4.392   0.558  0.3139  0.3786 -0.2939
15865TIP3    H169086   5.203   4.316   0.612  0.5607 -0.1283 -1.1071
15865TIP3    H269087   5.263   4.435   0.540  0.3877 -0.1650 -1.3109
15866TIP3   OH269088   2.333   5.559  15.613  0.4646  0.2339  0.0548
15866TIP3    H169089   2.348   5.653  15.621  0.0590  0.3282 -0.2794
15866TIP3    H269090   2.301   5.532  15.698  0.5728  0.3975  0.1484
15867TIP3   OH269091   4.710   3.059   5.441  0.3352 -0.3033  0.4371
15867TIP3    H169092   4.673   3.105   5.365  0.4837 -1.5522 -0.4236
15867TIP3    H269093   4.678   2.969   5.432  0.7497 -0.5839  1.6066
15868TIP3   OH269094   1.205   6.308   5.707  0.2498 -0.6071  0.8875
15868TIP3    H169095   1.144   6.369   5.666 -1.6984  0.4175  4.7981
15868TIP3    H269096   1.199   6.229   5.654 -0.6447  1.0438 -1.6947
15869TIP3   OH269097   0.574   4.909   1.369  0.1138 -0.3418  0.3978
15869TIP3    H169098   0.628   4.833   1.391 -1.0439 -1.2217  0.3093
15869TIP3    H269099   0.486   4.883   1.394 -0.7200 -0.0232 -1.9767
15870TIP3   OH269100   4.939   0.809  12.396  0.2407  0.2644 -0.1961
15870TIP3    H169101   5.019   0.764  12.422 -0.0349  0.3355  0.8080
15870TIP3    H269102   4.870   0.743  12.407 -0.2280  0.9886  1.6752
15871TIP3   OH269103   0.812   0.458   1.003  0.3116  0.2962 -0.2322
15871TIP3    H169104   0.742   0.419   0.950  0.9887 -1.6407  0.2283
15871TIP3    H269105   0.788   0.437   1.093  0.6821  1.0146  0.0416
15872TIP3   OH269106   3.774   3.437   2.934  0.0769  0.2275  0.9011
15872TIP3    H169107   3.864   3.469   2.924  0.0894 -0.0455  0.1147
15872TIP3    H269108   3.770   3.407   3.025  1.2366 -1.1140  0.5532
15873TIP3   OH269109   5.457   1.228   0.259  0.6252  0.1421  0.5056
15873TIP3    H169110   5.454   1.294   0.328 -3.1205 -0.9545  1.6738
15873TIP3    H269111   5.498   1.272   0.185  2.4208  2.2288  2.5888
15874TIP3   OH269112   4.097   0.649   1.225  0.8810 -0.0331  0.3261
15874TIP3    H169113   4.165   0.601   1.179  0.2256 -0.1129 -0.5945
15874TIP3    H269114   4.110   0.740   1.199  0.8733  0.0034  0.4509
15875TIP3   OH269115   5.336   1.927   2.492 -0.2490 -0.7443  0.0932
15875TIP3    H169116   5.428   1.919   2.466  0.3790  1.4876  1.3813
15875TIP3    H269117   5.287   1.916   2.411  1.1074 -2.0224 -0.6128
15876TIP3   OH269118   0.734   3.285   2.942  0.2846 -0.8864 -0.2584
15876TIP3    H169119   0.763   3.321   3.026  0.5256 -0.6642 -0.4369
15876TIP3    H269120   0.652   3.240   2.963  0.5462 -1.1677  0.1692
15877TIP3   OH269121   3.895   3.115   4.652 -0.3662  0.5224  0.0564
15877TIP3    H169122   3.901   3.154   4.565 -0.6138 -0.0511 -0.2275
15877TIP3    H269123   3.824   3.162   4.695 -1.5230 -0.4334 -0.7311
15878TIP3   OH269124   1.181   1.644   0.601  0.0411  0.0547 -0.0205
15878TIP3    H169125   1.255   1.648   0.540 -0.7223  2.3339 -0.9332
15878TIP3    H269126   1.221   1.631   0.687  1.1339 -3.4383 -0.9280
15879TIP3   OH269127   1.770   3.191   1.671 -0.2271 -0.5309  0.0139
15879TIP3    H169128   1.794   3.133   1.598  2.7670 -0.4787  0.8546
15879TIP3    H269129   1.695   3.147   1.712 -0.0478 -2.1368 -1.2648
15880TIP3   OH269130   0.154   1.467  13.391  0.3157 -0.3560 -0.1972
15880TIP3    H169131   0.189   1.378  13.397  0.3074 -0.6565 -3.1407
15880TIP3    H269132   0.155   1.487  13.297 -2.6603  1.5498  0.0352
15881TIP3   OH269133   0.920   3.863  12.973  0.2111  0.7860 -0.0546
15881TIP3    H169134   0.865   3.920  13.027  1.6951  2.6470 -0.4366
15881TIP3    H269135   0.858   3.800  12.935 -1.7683  3.0838 -0.8828
15882TIP3   OH269136   3.865   5.396  16.071 -0.2795  0.5528 -0.5757
15882TIP3    H169137   3.884   5.485  16.099 -0.1122  0.4874 -0.4819
15882TIP3    H269138   3.790   5.370  16.125  0.0115  0.4443 -0.2225
15883TIP3   OH269139   3.014   5.915  15.536  0.4657  0.7501 -0.3181
15883TIP3    H169140   3.023   5.866  15.618  2.9699 -0.1944 -1.0692
15883TIP3    H269141   3.095   5.898  15.489 -1.1679  0.6848 -3.3440
15884TIP3   OH269142   0.938   2.756  12.180 -0.1878  0.1439  0.5248
15884TIP3    H169143   0.961   2.705  12.103 -0.7868 -0.7263  0.9032
15884TIP3    H269144   1.022   2.786  12.215  0.0963  0.3410 -0.3278
15885TIP3   OH269145   4.953   0.134   2.395  0.7007 -0.1810  0.1915
15885TIP3    H169146   5.036   0.168   2.364  0.0186  2.8673  1.3968
15885TIP3    H269147   4.963   0.127   2.490 -0.5279  0.6939  0.4181
15886TIP3   OH269148   6.037   2.112  10.885 -0.7365  0.4904  0.3468
15886TIP3    H169149   6.130   2.091  10.889 -0.2693  2.1410 -0.8427
15886TIP3    H269150   5.992   2.028  10.898  0.8279 -0.0486  3.2184
15887TIP3   OH269151   0.444   3.004  16.350 -0.2677  0.5339 -0.3370
15887TIP3    H169152   0.357   3.042  16.359 -1.0467 -0.7195 -2.0754
15887TIP3    H269153   0.466   3.014  16.257  0.6910 -0.6988 -0.2821
15888TIP3   OH269154   0.818   2.878  12.503  0.6104 -0.3045 -0.0019
15888TIP3    H169155   0.826   2.800  12.557 -0.4544  1.0162  2.1708
15888TIP3    H269156   0.905   2.918  12.505  0.3925  0.1174  1.3656
15889TIP3   OH269157   0.025   6.112  11.706 -0.4135 -0.5150  0.1216
15889TIP3    H169158  -0.052   6.071  11.667 -0.9141  0.9938 -0.5292
15889TIP3    H269159   0.016   6.205  11.686  0.9815 -0.1464  1.0592
15890TIP3   OH269160   2.894   2.312  16.671  0.5832  0.9284  1.1635
15890TIP3    H169161   2.806   2.349  16.683 -0.3208 -0.3831 -0.8806
15890TIP3    H269162   2.892   2.228  16.717 -0.4685 -0.7016 -1.6292
15891TIP3   OH269163   3.180   3.510   5.842 -0.4296 -0.1072 -0.4303
15891TIP3    H169164   3.201   3.435   5.898  1.0795  0.4739 -0.1612
15891TIP3    H269165   3.266   3.548   5.821 -1.1196  1.0297 -1.2753
15892TIP3   OH269166   1.213   1.719  14.909 -0.5417  0.2175  0.6790
15892TIP3    H169167   1.140   1.665  14.879 -0.9669 -0.0647  2.1461
15892TIP3    H269168   1.198   1.805  14.869 -1.2615 -0.0530  0.3634
15893TIP3   OH269169   1.885   1.938   1.883 -0.3539 -0.8111 -0.0278
15893TIP3    H169170   1.856   1.956   1.972  0.3261 -3.3656  0.7954
15893TIP3    H269171   1.806   1.951   1.829 -1.1940 -0.8057  1.1663
15894TIP3   OH269172   5.424   3.244   2.492  0.3367  0.0993 -0.5601
15894TIP3    H169173   5.416   3.287   2.407  0.1163  0.2977 -0.4409
15894TIP3    H269174   5.444   3.153   2.471  0.1037  0.1093 -0.8284
15895TIP3   OH269175   3.763   2.566  15.482  0.1738  0.0158  0.0048
15895TIP3    H169176   3.792   2.654  15.455 -1.7769 -0.0385 -2.6453
15895TIP3    H269177   3.696   2.583  15.548  0.7090  0.4367  0.4575
15896TIP3   OH269178   4.358   6.251  11.046  0.4149 -0.0286  0.5466
15896TIP3    H169179   4.418   6.239  10.972  0.6158 -1.7746  0.9437
15896TIP3    H269180   4.320   6.337  11.032 -0.0430 -0.5457 -1.9540
15897TIP3   OH269181   4.861   6.710  12.373 -0.5902  0.0477  0.5956
15897TIP3    H169182   4.947   6.673  12.354 -0.4555  0.5771  0.1285
15897TIP3    H269183   4.801   6.658  12.319 -0.4123  0.4333  0.0093
15898TIP3   OH269184   5.498   5.731  16.021  0.0337 -0.6101  0.1283
15898TIP3    H169185   5.475   5.753  15.931 -1.6989  2.2722  1.1270
15898TIP3    H269186   5.474   5.639  16.031  2.0268 -1.5599 -2.7905
15899TIP3   OH269187   4.613   2.235  12.637  0.4510 -0.3434  0.5214
15899TIP3    H169188   4.518   2.222  12.630  0.5789 -1.1492  0.1628
15899TIP3    H269189   4.623   2.304  12.702 -0.4247  0.4475 -0.1574
15900TIP3   OH269190   3.593   5.248   0.612  0.3860  0.1066  0.3514
15900TIP3    H169191   3.618   5.340   0.604 -0.5205  0.2443 -1.2111
15900TIP3    H269192   3.497   5.250   0.622  0.3163 -0.6684 -0.0943
15901TIP3   OH269193   4.826   4.365  11.963  0.0831 -0.4257  0.1148
15901TIP3    H169194   4.761   4.338  12.028  1.0562 -1.3425  0.7363
15901TIP3    H269195   4.779   4.361  11.879 -0.8862 -0.2732  0.6294
15902TIP3   OH269196   1.023   3.638   1.871 -0.1030  0.0888 -0.3849
15902TIP3    H169197   0.935   3.648   1.835 -0.0225  2.8628  0.0406
15902TIP3    H269198   1.079   3.687   1.811  0.7392  0.6063  0.7985
15903TIP3   OH269199   0.888   1.319   0.369 -0.0696  0.1228  0.4042
15903TIP3    H169200   0.934   1.403   0.359  1.2168 -0.6476 -0.3722
15903TIP3    H269201   0.889   1.303   0.464 -1.6483  1.6704  0.7368
15904TIP3   OH269202   5.326   4.573  13.909  0.2266  0.0911 -0.6015
15904TIP3    H169203   5.318   4.637  13.981  1.2187  1.7081 -1.8365
15904TIP3    H269204   5.386   4.507  13.944  1.3269  1.2609 -0.1588
15905TIP3   OH269205   6.604   1.234  12.154  0.3484  0.1912 -0.3400
15905TIP3    H169206   6.633   1.313  12.200  0.0106  0.7645 -1.0761
15905TIP3    H269207   6.517   1.256  12.120 -0.1229 -0.8157  0.1742
15906TIP3   OH269208   0.597   6.562   3.665  0.2836 -0.1295  0.1659
15906TIP3    H169209   0.612   6.641   3.717 -0.5251 -1.2111  2.1731
15906TIP3    H269210   0.599   6.592   3.574 -0.4412  2.2492  0.8613
15907TIP3   OH269211   6.457   6.622   4.576  0.0245  0.3718 -0.0323
15907TIP3    H169212   6.374   6.606   4.620 -0.4548  0.8844 -0.7210
15907TIP3    H269213   6.503   6.538   4.579 -1.2250 -0.3916 -1.1015
15908TIP3   OH269214   5.253   2.740  11.893 -0.1380 -0.0502 -0.2945
15908TIP3    H169215   5.334   2.787  11.907  0.7997 -1.6086 -0.2548
15908TIP3    H269216   5.192   2.778  11.956  0.6871  0.8382 -0.0144
15909TIP3   OH269217   2.280   2.569  12.339 -0.0100 -0.1529  0.0643
15909TIP3    H169218   2.203   2.541  12.388 -0.7144  2.0631  0.3061
15909TIP3    H269219   2.340   2.603  12.405 -0.0120  0.7379 -0.3777
15910TIP3   OH269220   5.548   3.087   5.926 -0.2218  0.0041  0.1581
15910TIP3    H169221   5.583   3.001   5.904 -1.6422 -0.6711  0.4217
15910TIP3    H269222   5.518   3.079   6.017 -1.5134  0.3673 -0.2066
15911TIP3   OH269223   0.471   0.697  13.551  0.0978  0.3160 -0.3859
15911TIP3    H169224   0.507   0.752  13.481  1.0962  2.8100  1.9296
15911TIP3    H269225   0.534   0.704  13.622 -1.5343 -1.0105  1.2847
15912TIP3   OH269226   3.525   5.052   2.618  0.7687  0.6183  0.0233
15912TIP3    H169227   3.556   5.052   2.708  0.7902  0.4581  0.0163
15912TIP3    H269228   3.435   5.018   2.623  1.6767 -2.1068 -0.3146
15913TIP3   OH269229   5.951   3.058  15.869 -0.2039  0.1810  0.0644
15913TIP3    H169230   5.982   2.968  15.871 -1.2363 -0.2315 -1.3322
15913TIP3    H269231   5.949   3.085  15.961  1.7498 -0.6214  0.3859
15914TIP3   OH269232   6.290   4.165  13.610 -0.1775  0.1965 -0.0805
15914TIP3    H169233   6.230   4.214  13.666  0.9750  2.8148 -0.9890
15914TIP3    H269234   6.235   4.134  13.538 -0.9106  0.2832  0.4222
15915TIP3   OH269235   4.467   6.576  14.445 -0.8405  0.1449  0.5331
15915TIP3    H169236   4.476   6.539  14.357 -1.6591  2.4286 -0.6161
15915TIP3    H269237   4.553   6.566  14.485 -0.3999 -0.7923 -0.5965
15916TIP3   OH269238   4.807   6.673  16.343 -0.1064  0.1039 -0.0489
15916TIP3    H169239   4.893   6.684  16.301  0.2774  0.2499  0.7557
15916TIP3    H269240   4.825   6.680  16.437 -1.2039  1.5508  0.0870
15917TIP3   OH269241   6.280   3.704   1.164  0.3753  0.0449 -0.5047
15917TIP3    H169242   6.238   3.668   1.086  2.2285 -2.1048 -0.6106
15917TIP3    H269243   6.284   3.631   1.226  1.1595  1.0326  0.6633
15918TIP3   OH269244   3.207   2.164   5.412  0.3850  0.4151 -0.1832
15918TIP3    H169245   3.192   2.070   5.406  0.8465  0.3198  0.1095
15918TIP3    H269246   3.199   2.184   5.505 -1.1355  0.9163 -0.4013
15919TIP3   OH269247   4.838   5.828  13.134 -0.2990  0.3498  0.0200
15919TIP3    H169248   4.757   5.858  13.092 -0.0943  0.7264 -0.1040
15919TIP3    H269249   4.829   5.733  13.137 -1.3687  0.4610  1.2421
15920TIP3   OH269250   1.991   0.329  11.205 -0.5269 -0.3286 -0.0459
15920TIP3    H169251   1.938   0.287  11.136  2.4322 -2.0269 -1.4671
15920TIP3    H269252   1.981   0.270  11.280 -1.0444 -0.3505 -0.1223
15921TIP3   OH269253   5.474   4.227   5.043 -0.1843  0.1553  0.1110
15921TIP3    H169254   5.547   4.174   5.012 -0.4196  0.5155 -1.0984
15921TIP3    H269255   5.444   4.182   5.122 -0.7836 -1.9336 -1.2136
15922TIP3   OH269256   1.484   4.093  13.108  0.3980 -0.5145 -0.0842
15922TIP3    H169257   1.480   4.004  13.142 -0.2190 -0.2067  0.6786
15922TIP3    H269258   1.547   4.088  13.035  1.3290 -1.3091  0.7423
15923TIP3   OH269259   6.469   4.160  14.949 -0.4425 -0.3205 -0.2889
15923TIP3    H169260   6.396   4.193  14.896 -0.6806 -0.7618 -0.2360
15923TIP3    H269261   6.547   4.190  14.902 -0.6279  1.2988  0.3500
15924TIP3   OH269262   5.138   3.820   3.609  0.5152  0.2511  0.1826
15924TIP3    H169263   5.076   3.782   3.671  1.1707  1.3033  1.5463
15924TIP3    H269264   5.212   3.759   3.609 -0.0968 -0.5266 -0.7494
15925TIP3   OH269265   1.900   1.049  13.652  0.0016 -0.5693  0.1445
15925TIP3    H169266   1.881   1.141  13.670 -0.5296 -0.6709  0.1206
15925TIP3    H269267   1.974   1.051  13.591 -1.0922 -0.0917 -1.2350
15926TIP3   OH269268   4.187   1.068  11.851  0.4011 -0.2656 -0.0353
15926TIP3    H169269   4.115   1.066  11.788  0.0063  1.1510  0.3530
15926TIP3    H269270   4.265   1.047  11.799 -0.2192 -1.4499 -0.5221
15927TIP3   OH269271   3.055   1.185   1.268  0.0672  0.2321 -0.6166
15927TIP3    H169272   2.994   1.204   1.197  0.1185  0.2633 -0.6527
15927TIP3    H269273   3.138   1.166   1.224 -0.2111 -1.0620 -0.6418
15928TIP3   OH269274   2.885   0.913  11.215 -0.1450 -0.7421 -0.2661
15928TIP3    H169275   2.940   0.872  11.148 -1.0137  0.2571 -1.6584
15928TIP3    H269276   2.897   0.859  11.293  2.0229 -1.1313 -0.7920
15929TIP3   OH269277   1.282   2.192  12.006 -0.4602  0.2800 -0.9176
15929TIP3    H169278   1.368   2.190  11.966 -1.5344 -4.3462 -3.6636
15929TIP3    H269279   1.286   2.126  12.076 -1.9578 -0.7297 -1.7381
15930TIP3   OH269280   3.974   5.090  14.333  0.3799 -0.5304 -0.2149
15930TIP3    H169281   3.976   5.113  14.426  0.9954  1.1968 -0.6048
15930TIP3    H269282   4.005   5.169  14.289  0.8128 -1.5643 -1.8487
15931TIP3   OH269283   2.288   0.361   2.415  0.2744 -0.0022  0.0190
15931TIP3    H169284   2.271   0.417   2.491  1.0796 -0.9024  0.8957
15931TIP3    H269285   2.256   0.275   2.442 -0.0592 -0.1783 -0.9327
15932TIP3   OH269286   0.282   5.804   2.051 -0.1635 -0.6263  0.1522
15932TIP3    H169287   0.355   5.822   2.111  1.7745 -2.2593 -1.5635
15932TIP3    H269288   0.242   5.725   2.087  0.4946 -1.1439 -0.2229
15933TIP3   OH269289   0.480   2.538   1.066  0.0322  0.1374  0.1059
15933TIP3    H169290   0.455   2.449   1.093 -0.5002 -0.8318 -3.1775
15933TIP3    H269291   0.570   2.529   1.034  1.0655  1.4811  2.3766
15934TIP3   OH269292   5.039   0.546   1.888  0.1538 -0.5392  0.2051
15934TIP3    H169293   5.023   0.576   1.978  2.5611  1.3168  0.1449
15934TIP3    H269294   5.129   0.514   1.890  0.6014  0.4820 -1.7353
15935TIP3   OH269295   5.268   6.407  15.439 -0.5286  0.6667 -0.0267
15935TIP3    H169296   5.195   6.404  15.502 -0.7176  2.0830 -0.1449
15935TIP3    H269297   5.295   6.498  15.440 -0.0075  0.5364 -1.4317
15936TIP3   OH269298   3.218   1.216   4.112 -0.3366 -0.1410  0.3568
15936TIP3    H169299   3.223   1.151   4.182  2.0911  0.0588  0.4690
15936TIP3    H269300   3.207   1.300   4.158  0.0966 -0.1315  0.4524
15937TIP3   OH269301   6.378   1.802   4.254 -0.0791 -0.1153 -0.4121
15937TIP3    H169302   6.411   1.804   4.164  0.0460  1.2105 -0.3585
15937TIP3    H269303   6.283   1.806   4.245 -0.1363 -1.3830 -0.5058
15938TIP3   OH269304   1.065   3.556  11.173  0.2692 -0.4401  0.2339
15938TIP3    H169305   1.151   3.518  11.191  0.7826 -0.2700 -1.6866
15938TIP3    H269306   1.040   3.520  11.088  0.4989  2.8835 -1.4023
15939TIP3   OH269307   4.878   2.942   4.973  0.3159 -0.5479  0.3364
15939TIP3    H169308   4.920   2.959   5.057 -0.2249 -3.0292  1.1918
15939TIP3    H269309   4.950   2.947   4.909  0.8534  0.6950  0.9994
15940TIP3   OH269310   6.382   0.094  13.044  0.6437 -0.2339  0.5842
15940TIP3    H169311   6.321   0.022  13.060 -0.5555  0.7164  0.4705
15940TIP3    H269312   6.402   0.128  13.131  2.4813 -1.6589  0.7798
15941TIP3   OH269313   2.299   1.988  15.495  0.0083  0.1585 -0.2838
15941TIP3    H169314   2.343   2.004  15.412 -0.4805  1.0144 -0.3936
15941TIP3    H269315   2.325   2.062  15.550 -1.3543  0.7441 -0.3869
15942TIP3   OH269316   4.168   0.829  13.244 -0.0393  0.2206  0.2143
15942TIP3    H169317   4.161   0.911  13.294  0.8424  0.8051 -0.5917
15942TIP3    H269318   4.260   0.804  13.251 -0.0909 -0.1615 -0.3752
15943TIP3   OH269319   1.548   3.567  16.929  0.3355 -0.8971 -0.1277
15943TIP3    H169320   1.574   3.537  17.016  0.4736  0.3362  0.2842
15943TIP3    H269321   1.623   3.548  16.873  0.3519 -1.4454  0.0744
15944TIP3   OH269322   2.435   4.010  12.032  0.1100 -0.5120  0.0154
15944TIP3    H169323   2.448   4.091  11.982 -0.6877 -0.9045 -0.8861
15944TIP3    H269324   2.522   3.974  12.045  0.2860 -1.2724 -2.6653
15945TIP3   OH269325   5.478   1.881  10.885 -0.4284 -0.3226  0.6062
15945TIP3    H169326   5.387   1.906  10.867 -0.1777  0.7333  0.7341
15945TIP3    H269327   5.529   1.925  10.817  0.1681  0.7125  1.6802
15946TIP3   OH269328   6.601   1.950   1.838 -0.1062 -0.1949 -0.6855
15946TIP3    H169329   6.623   1.864   1.874 -2.3766  0.5699  3.1017
15946TIP3    H269330   6.671   2.008   1.871 -0.6473  0.0128  0.1353
15947TIP3   OH269331   0.685   0.568   5.924  0.1752 -0.1839  0.5205
15947TIP3    H169332   0.764   0.615   5.897 -1.4534  1.9447 -0.9364
15947TIP3    H269333   0.712   0.477   5.931  2.7134  0.4389 -0.0499
15948TIP3   OH269334   3.859   5.168  15.119  0.0188 -0.0899  0.8199
15948TIP3    H169335   3.932   5.185  15.059  0.3350  0.2377  1.2847
15948TIP3    H269336   3.888   5.092  15.170 -0.3703 -0.5460  0.3726
15949TIP3   OH269337   6.227   4.196  16.051  0.7147 -0.6105  0.0940
15949TIP3    H169338   6.133   4.181  16.061  0.9167 -0.3986  3.4471
15949TIP3    H269339   6.232   4.275  15.997 -1.1399  0.4564  1.3573
15950TIP3   OH269340   0.716   4.519   0.698  0.3552  0.1237 -0.1439
15950TIP3    H169341   0.657   4.555   0.764  2.2041  1.9342  0.6053
15950TIP3    H269342   0.718   4.586   0.629  1.9106  0.3756  0.1077
15951TIP3   OH269343   1.778   2.154   5.606 -0.4014  0.4636  0.3155
15951TIP3    H169344   1.824   2.094   5.547  0.0130 -0.4901  1.5723
15951TIP3    H269345   1.835   2.231   5.610  0.1947  0.0244  0.4424
15952TIP3   OH269346   2.319   1.726  15.529  0.2477  0.0243  0.2018
15952TIP3    H169347   2.312   1.820  15.515 -1.2568  0.0988  1.1698
15952TIP3    H269348   2.281   1.687  15.450  0.7534  0.2263 -0.1425
15953TIP3   OH269349   6.568   0.374   0.784  0.3598 -0.0795  0.2308
15953TIP3    H169350   6.630   0.390   0.713 -1.6326 -2.4827 -2.2808
15953TIP3    H269351   6.610   0.306   0.837  1.5746  1.2721  1.1096
15954TIP3   OH269352   5.158   3.287  14.565 -0.4598  0.0975 -0.1320
15954TIP3    H169353   5.224   3.309  14.631 -1.7023 -0.9619  1.5798
15954TIP3    H269354   5.187   3.332  14.486  1.5405  0.7975  0.9095
15955TIP3   OH269355   6.708   4.340  15.225 -0.4086  0.1436 -0.0772
15955TIP3    H169356   6.713   4.387  15.309 -3.6375  0.4467  0.1066
15955TIP3    H269357   6.740   4.402  15.160  1.4819  0.1623  0.8134
15956TIP3   OH269358   1.792   3.521  11.003  0.3845 -0.1043  0.0745
15956TIP3    H169359   1.865   3.492  10.949  1.5361  0.0712  1.4702
15956TIP3    H269360   1.762   3.602  10.961 -0.0245 -0.9669 -1.3595
15957TIP3   OH269361   6.147   5.425  14.901 -0.1440  0.4178 -0.3169
15957TIP3    H169362   6.136   5.438  14.807  3.1104 -0.7867 -1.0222
15957TIP3    H269363   6.089   5.351  14.921 -0.4751  0.3213 -1.5036
15958TIP3   OH269364   2.646   5.645   5.702  0.1507 -0.0208  0.1050
15958TIP3    H169365   2.667   5.618   5.792  0.8457 -0.5294 -0.2035
15958TIP3    H269366   2.727   5.634   5.654 -0.2907 -0.0284 -0.6571
15959TIP3   OH269367   3.217   6.666   4.625 -0.1106 -0.1705 -0.2884
15959TIP3    H169368   3.126   6.670   4.656 -0.3872 -0.5529 -1.0272
15959TIP3    H269369   3.261   6.609   4.687 -0.2625  0.3708  0.3311
15960TIP3   OH269370   1.179   0.595   5.008 -0.3967  0.3337 -0.3446
15960TIP3    H169371   1.193   0.641   5.091  1.3126 -0.8457  0.0771
15960TIP3    H269372   1.250   0.625   4.952 -0.2699 -0.4917 -0.6392
15961TIP3   OH269373   2.031   3.244  13.440  0.3891  0.7485  0.0808
15961TIP3    H169374   1.937   3.237  13.427  0.5956 -2.5253 -0.6060
15961TIP3    H269375   2.066   3.265  13.353  0.3292  1.1294  0.1506
15962TIP3   OH269376   0.764   3.211  16.416 -0.5849 -0.0000 -0.0653
15962TIP3    H169377   0.849   3.240  16.384 -1.0256 -0.4425 -1.7195
15962TIP3    H269378   0.708   3.211  16.339 -1.3004 -2.6350  0.3339
15963TIP3   OH269379   6.481   4.339   6.561  0.0324  0.7295 -0.6970
15963TIP3    H169380   6.514   4.307   6.644 -1.2927 -3.2999 -1.5234
15963TIP3    H269381   6.552   4.324   6.499 -0.3724 -0.0559 -0.9792
15964TIP3   OH269382   2.932   5.621   4.950 -0.0260  0.2495  0.1658
15964TIP3    H169383   2.868   5.671   4.999 -1.4257 -0.9100 -0.4013
15964TIP3    H269384   2.948   5.673   4.871 -0.4780  0.4213  0.1841
15965TIP3   OH269385   0.643   5.616   2.146 -0.2270  0.6125 -0.0866
15965TIP3    H169386   0.587   5.543   2.170  1.9456 -0.9287  0.6167
15965TIP3    H269387   0.596   5.693   2.177 -0.6104 -0.8119  3.3040
15966TIP3   OH269388   2.668   4.230   0.048 -0.2173  0.1919 -0.4722
15966TIP3    H169389   2.734   4.218   0.117 -2.1603  0.2365  1.5095
15966TIP3    H269390   2.655   4.142   0.012 -0.7160 -0.2611  0.7604
15967TIP3   OH269391   5.532   3.404  11.880  0.3658  0.2070  0.1075
15967TIP3    H169392   5.543   3.392  11.786  1.6122  1.0664  0.1091
15967TIP3    H269393   5.502   3.494  11.889 -2.2962 -0.6505  0.4227
15968TIP3   OH269394   1.323   5.756   4.123  0.9679 -0.5735 -0.4025
15968TIP3    H169395   1.240   5.716   4.148  0.6983  1.1492  1.8119
15968TIP3    H269396   1.386   5.724   4.188  1.6140 -0.4034 -0.9317
15969TIP3   OH269397   3.664   3.406  16.106  0.4139  0.2398  0.3603
15969TIP3    H169398   3.594   3.425  16.169  0.1510 -0.3066  0.2356
15969TIP3    H269399   3.733   3.365  16.158  0.5120  0.4856  0.4249
15970TIP3   OH269400   5.950   0.400   2.473  0.0922  0.0585 -0.0829
15970TIP3    H169401   5.859   0.429   2.478  0.7982  2.2879  1.8447
15970TIP3    H269402   5.986   0.445   2.397 -0.8474 -2.6838 -2.3769
15971TIP3   OH269403   4.441   4.960  16.645  0.0077  0.8326  0.4385
15971TIP3    H169404   4.428   4.908  16.566 -0.4416  1.3852  0.1330
15971TIP3    H269405   4.444   4.896  16.716  0.5472  0.3219 -0.0400
15972TIP3   OH269406   5.181   3.945  10.650  0.3640 -0.0957  0.6520
15972TIP3    H169407   5.216   4.033  10.636  0.9484 -0.3654  0.4090
15972TIP3    H269408   5.087   3.955  10.633  0.6952  0.0648 -1.4301
15973TIP3   OH269409   4.851   0.483   5.280  0.0007  0.3118  0.1353
15973TIP3    H169410   4.850   0.415   5.347 -0.3377 -1.3001 -1.4352
15973TIP3    H269411   4.876   0.563   5.327  0.0136 -0.7967  2.1071
15974TIP3   OH269412   3.610   2.117  17.197 -0.3027  0.0970 -0.1968
15974TIP3    H169413   3.631   2.030  17.230 -0.5595 -0.7112 -1.9948
15974TIP3    H269414   3.672   2.176  17.240  0.5463 -1.1226  0.3019
15975TIP3   OH269415   4.868   2.801  15.963 -0.1905  0.6443 -0.2871
15975TIP3    H169416   4.807   2.836  16.027 -1.8862 -2.1553 -0.2211
15975TIP3    H269417   4.818   2.736  15.914  1.8226  0.6624 -2.6003
15976TIP3   OH269418   3.559   1.804   1.447  0.4857  0.4501 -0.3632
15976TIP3    H169419   3.648   1.820   1.479 -0.0621  3.4135  0.0292
15976TIP3    H269420   3.504   1.855   1.506 -1.5660 -1.5707 -0.4091
15977TIP3   OH269421   0.239   4.580  16.374 -0.5050 -0.3565  0.1360
15977TIP3    H169422   0.167   4.623  16.420 -0.8019 -0.5020 -0.1954
15977TIP3    H269423   0.297   4.652  16.348 -0.2717 -0.2796  0.8393
15978TIP3   OH269424   5.796   1.833  13.134 -0.0535 -0.0735 -0.4953
15978TIP3    H169425   5.823   1.755  13.086 -0.6231  0.3073 -1.4682
15978TIP3    H269426   5.841   1.906  13.091 -2.4903  0.5703 -2.1500
15979TIP3   OH269427   1.783   1.138  11.197  0.1635 -0.1260 -0.0295
15979TIP3    H169428   1.762   1.081  11.271  0.2286  1.1367  0.9908
15979TIP3    H269429   1.877   1.153  11.204  0.4784 -1.2859 -1.3374
15980TIP3   OH269430   4.511   4.901   1.944  0.4799  0.5970  0.5443
15980TIP3    H169431   4.514   4.915   1.850  0.5718  1.8605  0.7169
15980TIP3    H269432   4.422   4.869   1.961 -0.7395  3.6115  0.3997
15981TIP3   OH269433   3.368   6.280  12.374  0.4545 -0.1298  0.8335
15981TIP3    H169434   3.321   6.311  12.451 -0.8762  0.8163 -0.3030
15981TIP3    H269435   3.348   6.344  12.306  3.3842  0.3102  0.2235
15982TIP3   OH269436   0.434   2.906   1.904  0.0692 -0.0021 -0.4345
15982TIP3    H169437   0.402   2.958   1.977 -1.0667  0.1444 -1.0100
15982TIP3    H269438   0.390   2.943   1.827  2.3875  0.8698 -1.4466
15983TIP3   OH269439   1.155   3.227   1.519 -0.0473 -0.3135 -0.9725
15983TIP3    H169440   1.105   3.150   1.545 -0.1725 -0.1450 -0.6994
15983TIP3    H269441   1.162   3.279   1.600 -0.8836  0.4703 -1.3881
15984TIP3   OH269442   4.660   0.017   5.099 -0.9470 -0.2162  0.8117
15984TIP3    H169443   4.593   0.083   5.079 -1.2519 -0.6482  0.3767
15984TIP3    H269444   4.623  -0.065   5.068 -0.1912 -0.4571  0.5161
15985TIP3   OH269445   4.580   5.177   5.278  0.0830 -0.4407 -0.3301
15985TIP3    H169446   4.665   5.221   5.277 -0.7815  1.3306 -1.9508
15985TIP3    H269447   4.540   5.205   5.360  0.1760  0.6026 -0.6192
15986TIP3   OH269448   1.665   1.298  15.500  0.3629 -0.1333 -0.3935
15986TIP3    H169449   1.576   1.265  15.499 -0.1176  1.0026  1.2689
15986TIP3    H269450   1.709   1.250  15.429 -1.2126 -1.6198 -0.4348
15987TIP3   OH269451   5.111   1.774  10.462 -0.3527  0.2492  0.5313
15987TIP3    H169452   5.157   1.845  10.419 -1.5508  1.1733  0.7334
15987TIP3    H269453   5.073   1.722  10.391  2.3201 -1.5178  0.2691
15988TIP3   OH269454   5.052   5.958  12.207 -0.3293 -0.0980 -0.2153
15988TIP3    H169455   4.999   6.011  12.265 -1.4535 -0.6716 -0.6831
15988TIP3    H269456   4.989   5.903  12.161  0.6167 -0.3247 -1.2815
15989TIP3   OH269457   5.988   1.058  10.602 -0.1931  0.6637 -0.3559
15989TIP3    H169458   6.008   1.100  10.686 -1.2046  2.0183 -0.7646
15989TIP3    H269459   6.073   1.049  10.559  0.2391  0.6850  0.4684
15990TIP3   OH269460   4.003   5.457   2.482  0.9687  0.0016 -0.0392
15990TIP3    H169461   4.045   5.376   2.454  2.3396  1.4730 -2.6507
15990TIP3    H269462   4.045   5.525   2.430  1.2459  2.7174  3.3334
15991TIP3   OH269463   5.203   4.972   1.321  0.0436 -0.0223 -0.7006
15991TIP3    H169464   5.122   5.001   1.278 -0.5841 -0.2621  0.2917
15991TIP3    H269465   5.244   4.914   1.257 -1.4384 -1.2891 -0.5590
15992TIP3   OH269466   5.186   1.282   5.983 -0.1617  0.5189  0.2101
15992TIP3    H169467   5.109   1.308   5.932  0.7064  2.3457 -0.2490
15992TIP3    H269468   5.190   1.187   5.973 -1.5423  0.5428 -0.9068
15993TIP3   OH269469   4.860   0.592   1.685 -0.5895 -0.2916  0.0766
15993TIP3    H169470   4.779   0.609   1.733 -0.4201 -0.9479  0.6099
15993TIP3    H269471   4.929   0.601   1.751 -0.1174  1.2618 -0.5787
15994TIP3   OH269472   4.179   4.990   0.108 -0.6167 -0.7605  0.3582
15994TIP3    H169473   4.238   5.045   0.057  1.0940 -2.2115  0.6769
15994TIP3    H269474   4.177   5.031   0.195 -2.7355  1.1337 -0.4748
15995TIP3   OH269475   3.233   2.193   1.571  0.5585  0.1813  0.2406
15995TIP3    H169476   3.204   2.150   1.491 -1.1288  0.7701  0.5137
15995TIP3    H269477   3.186   2.276   1.574  1.2429  0.5648  1.4161
15996TIP3   OH269478   0.403   2.189   4.337 -0.0659  0.1562  0.5976
15996TIP3    H169479   0.392   2.108   4.388  0.3163  0.9968  2.1017
15996TIP3    H269480   0.381   2.165   4.248  0.0636 -1.6197  1.0040
15997TIP3   OH269481   6.371   1.714  12.379 -0.2444 -0.2887  0.6592
15997TIP3    H169482   6.406   1.632  12.346 -0.4292 -0.6125  1.2633
15997TIP3    H269483   6.434   1.744  12.444  1.5688  1.7401 -1.7980
15998TIP3   OH269484   0.899   4.402   2.411  0.4010 -0.0647 -0.4543
15998TIP3    H169485   0.807   4.397   2.386  0.2259  0.6546  0.0396
15998TIP3    H269486   0.921   4.495   2.405 -0.0076  0.4039  3.2986
15999TIP3   OH269487   2.872   0.952   3.260 -0.3668  0.0902  0.0320
15999TIP3    H169488   2.779   0.932   3.259 -0.5430  0.7080  1.5529
15999TIP3    H269489   2.876   1.047   3.266  0.3797  0.1197 -0.7593
16000TIP3   OH269490   4.608   5.624   2.683 -0.0819 -0.0809 -0.2613
16000TIP3    H169491   4.529   5.644   2.733  0.7504  2.1487  0.2635
16000TIP3    H269492   4.587   5.543   2.637 -1.5280 -1.2604  2.2793
16001TIP3   OH269493   1.518   3.852  14.669 -0.4257  0.1031  0.6077
16001TIP3    H169494   1.499   3.797  14.593 -0.6206  0.6995  0.2263
16001TIP3    H269495   1.432   3.865  14.711 -0.7406  1.8904 -0.5063
16002TIP3   OH269496   5.745   5.434  12.180 -0.4163 -0.1409 -0.1799
16002TIP3    H169497   5.728   5.361  12.239 -0.0245 -0.0294  0.0741
16002TIP3    H269498   5.789   5.395  12.104  2.8032  0.2194  1.3497
16003TIP3   OH269499   4.963   1.936  14.209  0.0345  0.2626 -0.5928
16003TIP3    H169500   4.980   1.883  14.131 -1.5104 -1.2827  0.0411
16003TIP3    H269501   4.960   2.026  14.177  1.6845 -0.0877 -1.8954
16004TIP3   OH269502   1.746   0.239   5.864  0.2598 -0.0714  0.0006
16004TIP3    H169503   1.817   0.230   5.927  0.5365  1.9463  0.0320
16004TIP3    H269504   1.785   0.284   5.789 -0.4522 -1.0136 -0.9794
16005TIP3   OH269505   4.025   0.061   5.147 -0.0781  0.3298  0.8888
16005TIP3    H169506   4.031   0.157   5.144 -3.3343  0.6122 -0.0217
16005TIP3    H269507   3.986   0.042   5.232  0.8723 -0.2439  1.2097
16006TIP3   OH269508   1.889   0.480  15.707  0.5760 -0.3307  0.6304
16006TIP3    H169509   1.939   0.443  15.780 -0.1128  1.8104  2.2749
16006TIP3    H269510   1.865   0.568  15.736 -1.2580 -0.0507 -1.4757
16007TIP3   OH269511   4.362   4.673  16.578  0.4325  0.6216 -0.6220
16007TIP3    H169512   4.413   4.654  16.500 -0.6771 -0.7330 -1.0461
16007TIP3    H269513   4.278   4.705  16.545 -0.6365 -1.4520 -0.0853
16008TIP3   OH269514   0.822   3.244  14.247 -0.2313 -0.0728  0.0287
16008TIP3    H169515   0.879   3.314  14.213 -1.5662  0.7813 -0.5283
16008TIP3    H269516   0.750   3.291  14.289 -0.3732 -1.1387  1.0224
16009TIP3   OH269517   0.670   5.409  14.561  0.3322 -0.2110 -0.3498
16009TIP3    H169518   0.726   5.338  14.594  0.7803  0.0793 -0.4690
16009TIP3    H269519   0.686   5.482  14.622  0.4301  0.0167 -0.6433
16010TIP3   OH269520   4.784   4.203  12.885 -0.0419 -0.6505 -0.1529
16010TIP3    H169521   4.747   4.284  12.920  1.1817  1.3823 -3.2154
16010TIP3    H269522   4.842   4.172  12.954  1.6232  2.6535  0.1154
16011TIP3   OH269523   3.333   4.780   1.783  0.0069  0.0620  0.3694
16011TIP3    H169524   3.327   4.700   1.732  0.0984  0.9496 -1.1007
16011TIP3    H269525   3.422   4.812   1.769  0.0225  0.3534  1.0595
16012TIP3   OH269526   2.952   3.806  16.772 -0.3251 -0.2722  0.0441
16012TIP3    H169527   3.046   3.806  16.753 -0.2779  0.8029  0.2007
16012TIP3    H269528   2.911   3.780  16.690  0.0649  0.3239 -0.3497
16013TIP3   OH269529   4.234   1.520  15.272 -0.5449  0.0409 -0.3404
16013TIP3    H169530   4.153   1.469  15.278 -0.9039  0.7105  0.9668
16013TIP3    H269531   4.302   1.459  15.298 -0.8280 -0.1099  0.0660
16014TIP3   OH269532   4.391   6.245  15.061 -0.1007 -0.1236 -0.0707
16014TIP3    H169533   4.302   6.277  15.043  0.1085 -0.3482 -1.7136
16014TIP3    H269534   4.378   6.159  15.100 -0.6190  0.0118  0.0609
16015TIP3   OH269535   0.707   1.981  14.766  1.0538 -0.1152  0.5597
16015TIP3    H169536   0.682   1.889  14.771 -0.3395  0.2307  0.2205
16015TIP3    H269537   0.669   2.021  14.844  1.2731  0.2689  0.4718
16016TIP3   OH269538   4.135   1.737  15.799 -0.4131 -0.7696  0.1776
16016TIP3    H169539   4.049   1.769  15.824 -0.2728 -0.5049  0.3251
16016TIP3    H269540   4.157   1.786  15.719 -0.0704 -0.2784  0.5708
16017TIP3   OH269541   0.895   2.051   5.460 -0.0089  0.4548 -0.3703
16017TIP3    H169542   0.960   1.990   5.495 -0.6145  1.0246  1.9156
16017TIP3    H269543   0.811   2.017   5.493 -0.5274  1.5443 -0.5341
16018TIP3   OH269544   2.496   0.810  15.486  0.0527 -0.0104 -0.2674
16018TIP3    H169545   2.557   0.807  15.412 -0.8451 -0.3313 -1.0203
16018TIP3    H269546   2.412   0.835  15.447 -0.4015 -0.0119  0.6704
16019TIP3   OH269547   0.184   4.000   4.299 -0.2248 -0.0267 -0.0341
16019TIP3    H169548   0.107   4.057   4.307  0.0738  0.2229  1.4665
16019TIP3    H269549   0.148   3.912   4.287 -0.6956  0.4144 -2.4980
16020TIP3   OH269550   0.761   4.456   4.630 -0.4848 -0.3151  0.2618
16020TIP3    H169551   0.762   4.374   4.680 -1.0731 -1.1574 -1.0652
16020TIP3    H269552   0.846   4.459   4.587 -0.3276 -0.0448  0.5882
16021TIP3   OH269553   1.364   5.341   4.245  0.2187 -0.2108 -0.2451
16021TIP3    H169554   1.273   5.315   4.232  0.2384 -1.4968  1.7249
16021TIP3    H269555   1.360   5.434   4.266 -0.6173 -0.2054 -0.3813
16022TIP3   OH269556   0.403   4.142  11.910  0.1314  0.0329  0.0701
16022TIP3    H169557   0.473   4.186  11.861  0.5125 -1.1764 -0.5235
16022TIP3    H269558   0.447   4.103  11.985 -0.4650  1.9286  1.4711
16023TIP3   OH269559   1.107   6.166  14.059  0.1118  0.1731 -0.2781
16023TIP3    H169560   1.038   6.225  14.029  0.0558 -0.1241 -0.7373
16023TIP3    H269561   1.063   6.107  14.120  0.0379  0.2247 -0.2812
16024TIP3   OH269562   3.158   5.592  16.999 -0.1817 -0.1490 -0.3451
16024TIP3    H169563   3.146   5.506  17.038 -1.5189  0.5009  0.7694
16024TIP3    H269564   3.070   5.620  16.974  0.0297  1.4793  0.6288
16025TIP3   OH269565   5.227   6.584  13.568 -0.5247  0.6597  0.4833
16025TIP3    H169566   5.144   6.632  13.566 -0.4039  0.9582 -3.0673
16025TIP3    H269567   5.202   6.492  13.556 -0.3864  0.6028  0.6203
16026TIP3   OH269568   4.082   6.434   5.368  0.3603 -0.1003  0.4380
16026TIP3    H169569   4.050   6.379   5.440 -0.2821 -0.4229 -0.0930
16026TIP3    H269570   4.155   6.385   5.331  0.1427 -0.3331  0.3188
16027TIP3   OH269571   4.709   4.503   4.153  0.5458 -0.1997  0.0031
16027TIP3    H169572   4.654   4.483   4.229  0.3391 -1.1876 -0.3876
16027TIP3    H269573   4.753   4.585   4.176 -0.4440  0.1666  0.6733
16028TIP3   OH269574   5.740   0.017  11.858  0.2520 -0.7433  0.0926
16028TIP3    H169575   5.728   0.064  11.775 -0.0545  0.1772  0.6406
16028TIP3    H269576   5.832  -0.009  11.859  0.4387 -0.1072 -0.2079
16029TIP3   OH269577   4.166   4.186   1.194  0.5108 -0.6279 -0.1101
16029TIP3    H169578   4.228   4.253   1.224  0.9084 -0.8736 -0.3752
16029TIP3    H269579   4.164   4.196   1.099 -2.2654  1.4915  0.0377
16030TIP3   OH269580   4.787   1.173  15.059  0.0863 -0.0732  0.3962
16030TIP3    H169581   4.778   1.227  15.138 -0.9802  0.0450  0.2163
16030TIP3    H269582   4.766   1.232  14.987  0.7203 -0.2689  0.0486
16031TIP3   OH269583   2.009   1.926  14.638 -0.0493  0.0975 -0.1274
16031TIP3    H169584   1.955   1.965  14.570  0.1620  0.3720 -0.1382
16031TIP3    H269585   1.989   1.977  14.717  0.5539  0.5174 -0.2388
16032TIP3   OH269586   1.606   2.887   1.705 -0.1475 -0.1753  0.1696
16032TIP3    H169587   1.585   2.794   1.700  0.0414 -0.3435  1.9722
16032TIP3    H269588   1.700   2.889   1.727 -0.1358  0.4362  0.0711
16033TIP3   OH269589   3.958   4.229   3.800  0.2163 -0.6075  0.1922
16033TIP3    H169590   3.970   4.135   3.811 -1.6124 -1.1040 -1.4670
16033TIP3    H269591   3.991   4.248   3.713 -0.0334  0.1518  0.2543
16034TIP3   OH269592   0.728   3.668  14.361  0.2288 -0.6732 -0.0663
16034TIP3    H169593   0.700   3.670  14.269 -1.7531  2.0962  0.4430
16034TIP3    H269594   0.659   3.619  14.406  0.4714 -0.8481  0.1149
16035TIP3   OH269595   6.748   2.047   2.267 -0.1436 -0.4295 -0.7079
16035TIP3    H169596   6.735   2.117   2.330 -0.6426 -1.5945  0.5506
16035TIP3    H269597   6.828   2.004   2.295 -0.9134 -1.5947 -0.1937
16036TIP3   OH269598   4.925   4.417   2.642 -0.1020 -0.1901 -0.2157
16036TIP3    H169599   4.989   4.368   2.693 -1.0612 -1.9007 -0.5886
16036TIP3    H269600   4.841   4.374   2.660 -0.5555 -0.5628 -2.8039
16037TIP3   OH269601   3.965   2.641  10.814 -0.2657 -0.5108 -0.1467
16037TIP3    H169602   4.005   2.644  10.727  0.9060 -1.3139  0.3388
16037TIP3    H269603   3.999   2.719  10.859  0.0601 -0.7180 -0.0296
16038TIP3   OH269604   3.378   0.021  12.917 -0.3382  0.7368  0.3900
16038TIP3    H169605   3.421   0.038  13.001 -0.0316 -0.2346  0.4380
16038TIP3    H269606   3.444   0.043  12.852  0.7666 -1.9850  0.4791
16039TIP3   OH269607   3.002   5.262  16.102 -0.3364 -0.0903 -0.0729
16039TIP3    H169608   3.016   5.192  16.037  2.4331 -0.9409  1.2709
16039TIP3    H269609   2.953   5.219  16.172  0.8123 -0.5489  0.4694
16040TIP3   OH269610   1.435   2.183   5.337 -0.2570  0.3247  0.4774
16040TIP3    H169611   1.404   2.272   5.354  1.8969  1.1317  0.4880
16040TIP3    H269612   1.502   2.193   5.270 -0.2405 -1.3542  0.1933
16041TIP3   OH269613   5.389   1.259  15.643 -0.4275 -0.3466 -0.4287
16041TIP3    H169614   5.316   1.206  15.676 -1.3471 -0.2873 -2.2310
16041TIP3    H269615   5.350   1.345  15.626  0.7100  0.5131  1.0502
16042TIP3   OH269616   4.737   6.339   0.051 -0.8052  0.2403 -0.0371
16042TIP3    H169617   4.781   6.270   0.102 -0.8109  0.1917 -0.0978
16042TIP3    H269618   4.720   6.298  -0.034 -0.2828  0.4995 -0.2732
16043TIP3   OH269619   0.154   5.896   1.050  0.4429 -0.1182 -0.3843
16043TIP3    H169620   0.070   5.914   1.093 -0.8423 -2.3092 -1.8073
16043TIP3    H269621   0.195   5.829   1.105  0.7825  0.2021 -0.2480
16044TIP3   OH269622   5.199   2.103  17.104  0.0508 -0.2567  0.0537
16044TIP3    H169623   5.167   2.090  17.015  1.3217 -0.3684 -0.4119
16044TIP3    H269624   5.220   2.015  17.135  1.6136 -0.0718 -0.3550
16045TIP3   OH269625   4.729   0.171  15.350 -0.5185 -0.4233  0.1467
16045TIP3    H169626   4.782   0.238  15.307 -1.0835  0.6091  1.0224
16045TIP3    H269627   4.792   0.104  15.378  0.2652  0.5876  0.8241
16046TIP3   OH269628   3.215   6.120   0.586 -0.3588  0.3413 -0.1662
16046TIP3    H169629   3.282   6.128   0.518  1.1328 -0.9790  1.0661
16046TIP3    H269630   3.159   6.196   0.573  2.8861  3.0737  0.3701
16047TIP3   OH269631   2.085   3.688  16.907 -0.6949  0.7140 -0.5045
16047TIP3    H169632   2.116   3.631  16.837 -0.2197  0.4211 -0.0716
16047TIP3    H269633   2.108   3.776  16.879  1.1929  0.4608  0.1010
16048TIP3   OH269634   6.044   2.808  12.775 -0.2473 -0.0219  0.0590
16048TIP3    H169635   5.993   2.748  12.830 -1.6705  2.3664  1.5591
16048TIP3    H269636   5.992   2.819  12.696  0.8252 -1.9242 -0.9805
16049TIP3   OH269637   1.946   2.293  11.177 -0.0361 -0.3174  0.1615
16049TIP3    H169638   1.916   2.373  11.136 -1.5406 -1.2701 -0.6916
16049TIP3    H269639   1.898   2.223  11.132  0.2748 -1.6011  1.7180
16050TIP3   OH269640   1.085   4.982   1.053 -0.3211 -0.2098  0.0172
16050TIP3    H169641   1.146   5.019   1.117  2.1649 -1.4839 -1.4808
16050TIP3    H269642   1.129   4.903   1.021 -1.3609  0.4633 -3.3770
16051TIP3   OH269643   3.883   0.711  15.951 -0.1406  0.4954  0.1137
16051TIP3    H169644   3.962   0.677  15.995  0.3332  2.0013  0.4768
16051TIP3    H269645   3.845   0.634  15.908  0.9431 -0.4700  0.8128
16052TIP3   OH269646   4.588   6.158  16.426 -0.0939  0.4872  0.4174
16052TIP3    H169647   4.602   6.073  16.385  1.0120  0.4638  0.8012
16052TIP3    H269648   4.661   6.168  16.488 -1.5227  0.6592  2.1709
16053TIP3   OH269649   0.868   3.747  16.875  0.4581 -0.5076  0.5225
16053TIP3    H169650   0.916   3.737  16.957 -0.0771  0.3795  0.9622
16053TIP3    H269651   0.776   3.730  16.898 -0.2583  3.0725  0.9423
16054TIP3   OH269652   3.568   4.703   0.726 -0.3646 -0.3022 -0.2159
16054TIP3    H169653   3.494   4.650   0.698 -0.5551  0.0525 -0.3954
16054TIP3    H269654   3.528   4.775   0.776 -0.0944 -0.4561  0.2281
16055TIP3   OH269655   5.660   6.688   0.990  0.4433  0.0741 -0.2085
16055TIP3    H169656   5.652   6.598   1.023 -0.3154  0.2005 -0.0163
16055TIP3    H269657   5.753   6.700   0.975  0.9146  0.0935  2.2069
16056TIP3   OH269658   2.648   2.832  16.796  0.2514 -0.4982 -0.6379
16056TIP3    H169659   2.578   2.771  16.819  0.5434 -0.9765 -0.9815
16056TIP3    H269660   2.729   2.782  16.812  0.5128 -0.0059 -0.3882
16057TIP3   OH269661   0.795   6.723   5.817 -0.4203 -0.0803  1.1175
16057TIP3    H169662   0.762   6.795   5.871 -0.3915  0.1362  0.8495
16057TIP3    H269663   0.846   6.669   5.878  0.1179  0.4914  1.1824
16058TIP3   OH269664   0.691   4.229   4.782 -0.2872 -0.4215 -0.0540
16058TIP3    H169665   0.697   4.164   4.712  0.0073  1.3425 -1.7486
16058TIP3    H269666   0.600   4.260   4.779 -0.3946 -0.6280  0.6633
16059TIP3   OH269667   5.727   1.683  13.354  0.0364  0.3161 -0.3098
16059TIP3    H169668   5.773   1.745  13.298 -0.5052  0.1401 -0.9734
16059TIP3    H269669   5.634   1.698  13.335 -0.1237 -0.2609 -0.0092
16060TIP3   OH269670   0.241   1.672  14.771  0.0514 -0.2578 -0.3654
16060TIP3    H169671   0.197   1.624  14.841  0.6349 -0.5994 -0.2244
16060TIP3    H269672   0.187   1.749  14.757 -0.6879 -0.7616 -0.3242
16061TIP3   OH269673   5.773   4.647  16.557 -0.1596 -0.0986 -0.0451
16061TIP3    H169674   5.860   4.681  16.538 -0.7251  1.1952 -0.4926
16061TIP3    H269675   5.788   4.570  16.611  1.2439  0.2690  0.1348
16062TIP3   OH269676   0.268   3.824  16.278  0.1459  0.1579 -0.6602
16062TIP3    H169677   0.224   3.785  16.354  0.3990 -0.0054 -0.5970
16062TIP3    H269678   0.212   3.898  16.254 -0.4107 -0.3115 -0.8529
16063TIP3   OH269679   6.690   5.750  12.313 -0.1267  0.0819  0.1715
16063TIP3    H169680   6.641   5.702  12.246  1.7446  0.0124 -1.2201
16063TIP3    H269681   6.711   5.834  12.271 -0.7438  0.9310  1.4811
16064TIP3   OH269682   2.287   6.307   6.858  0.5880  0.0320  0.0773
16064TIP3    H169683   2.260   6.335   6.771  0.3133  0.6638  0.3568
16064TIP3    H269684   2.232   6.231   6.877  2.4071 -1.7313 -1.3175
16065TIP3   OH269685   5.056   3.544  16.927 -0.6130 -0.7455  0.5210
16065TIP3    H169686   5.108   3.489  16.985 -1.1797 -0.9501  0.8413
16065TIP3    H269687   4.982   3.488  16.901 -0.9745 -0.2725  0.5244
16066TIP3   OH269688   2.981   0.060   1.363  0.3362 -0.4234  0.3234
16066TIP3    H169689   2.900   0.099   1.333  0.8462 -0.1720 -0.7592
16066TIP3    H269690   3.050   0.121   1.336  0.7574  0.7182  3.4919
16067TIP3   OH269691   4.465   4.312  16.627  0.2147 -0.1104  0.1171
16067TIP3    H169692   4.495   4.224  16.605  2.2117  0.6120 -0.2497
16067TIP3    H269693   4.440   4.351  16.543 -3.4021 -1.1674  0.5359
16068TIP3   OH269694   5.000   2.133   2.092 -0.2414 -0.0091 -0.1869
16068TIP3    H169695   4.948   2.214   2.094 -1.9160 -1.0413  0.4356
16068TIP3    H269696   4.985   2.094   2.178  0.6316 -0.9353 -0.4494
16069TIP3   OH269697   1.834   2.343  11.635 -0.3092 -0.2237 -0.9234
16069TIP3    H169698   1.813   2.360  11.727 -1.4994 -0.1780 -1.1792
16069TIP3    H269699   1.879   2.423  11.606 -0.5325  0.0431 -0.5525
16070TIP3   OH269700   0.522   6.408  15.177 -0.1957  0.2830  0.1137
16070TIP3    H169701   0.602   6.365  15.147  0.1233  0.2574  0.9607
16070TIP3    H269702   0.553   6.474  15.239 -0.8590 -0.2644  1.0658
16071TIP3   OH269703   6.505   2.791   0.798 -0.0990  0.0738 -0.1587
16071TIP3    H169704   6.579   2.805   0.856 -0.6026 -2.2623  1.1856
16071TIP3    H269705   6.542   2.741   0.725  0.0038  0.6368 -0.4998
16072TIP3   OH269706   0.300   5.776  13.781 -0.0154  0.7701 -0.2175
16072TIP3    H169707   0.342   5.709  13.726 -1.3548  1.5869 -2.3315
16072TIP3    H269708   0.231   5.729  13.827  0.7902  0.1752  0.4130
16073TIP3   OH269709   0.844   6.653  16.868  0.2879 -0.2251 -0.5831
16073TIP3    H169710   0.918   6.658  16.928  0.0913  1.2634 -0.4286
16073TIP3    H269711   0.866   6.581  16.808  1.8216  0.1450 -0.4954
16074TIP3   OH269712   3.854   5.724   0.363  0.1472  0.1787  0.1805
16074TIP3    H169713   3.765   5.744   0.389 -0.0555 -1.0912  0.5229
16074TIP3    H269714   3.906   5.738   0.442  0.2622  0.8786 -0.0082
16075TIP3   OH269715   0.979   5.869   3.648  0.9866  0.0751 -0.1950
16075TIP3    H169716   1.072   5.887   3.665  0.6054  0.8872  1.1556
16075TIP3    H269717   0.934   5.948   3.677  0.0389  0.7816 -3.2241
16076TIP3   OH269718   5.190   1.865   3.360 -0.1814  0.0349  0.4157
16076TIP3    H169719   5.249   1.830   3.293 -2.0518  0.3148 -1.4612
16076TIP3    H269720   5.131   1.923   3.312 -0.7849  1.2690  2.5422
16077TIP3   OH269721   3.054   5.273   4.439  0.3451  0.7348 -0.0200
16077TIP3    H169722   3.109   5.252   4.363  1.1035  0.7465  0.5190
16077TIP3    H269723   3.115   5.277   4.513  0.1167  3.7424  0.1241
16078TIP3   OH269724   4.522   5.338   0.241 -0.0897 -0.2667 -0.9191
16078TIP3    H169725   4.471   5.288   0.177  0.3367 -0.5865 -1.0062
16078TIP3    H269726   4.476   5.324   0.324 -0.4795 -0.0822 -1.1021
16079TIP3   OH269727   4.816   0.303   3.405  0.2549  0.1145 -0.5111
16079TIP3    H169728   4.904   0.272   3.424  0.5534  1.2699  0.1179
16079TIP3    H269729   4.761   0.263   3.472  0.3596 -0.3409 -0.6973
16080TIP3   OH269730   2.229   6.570  12.988  0.1805 -0.2224  0.2853
16080TIP3    H169731   2.289   6.526  13.048  0.2916  0.0695  0.3894
16080TIP3    H269732   2.283   6.593  12.913  0.3457  0.6294  0.6643
16081TIP3   OH269733   0.522   0.666  11.465  0.1881  0.0288 -0.2198
16081TIP3    H169734   0.510   0.572  11.448 -3.0409 -0.1087  1.9556
16081TIP3    H269735   0.561   0.700  11.385  1.3705 -3.1142 -1.1325
16082TIP3   OH269736   2.776   2.061  15.344 -0.7754  0.1926  0.0081
16082TIP3    H169737   2.812   2.043  15.257  1.2224 -0.6657  0.9212
16082TIP3    H269738   2.729   1.981  15.368  0.7337 -0.5671  0.6147
16083TIP3   OH269739   1.789   2.648   0.791 -0.3059  0.5613  0.3206
16083TIP3    H169740   1.825   2.608   0.711 -1.6915  0.5549 -0.3270
16083TIP3    H269741   1.746   2.727   0.761  0.0494  1.1171  1.2318
16084TIP3   OH269742   2.322   2.698  14.309  0.0343  0.1458  0.2626
16084TIP3    H169743   2.326   2.793  14.321  0.4416  0.2472 -0.5639
16084TIP3    H269744   2.306   2.687  14.215  2.2721 -0.6068 -0.1004
16085TIP3   OH269745   5.390   2.890  15.840  0.5911 -0.6064  0.4278
16085TIP3    H169746   5.436   2.961  15.795  0.5466 -0.5528  0.4668
16085TIP3    H269747   5.299   2.897  15.809  0.0721  0.7211  2.0881
16086TIP3   OH269748   6.257   5.602   0.974 -0.0594  0.0124 -0.5131
16086TIP3    H169749   6.180   5.546   0.980 -0.0934  0.0719 -0.3938
16086TIP3    H269750   6.331   5.543   0.989 -0.1496  0.1870  0.7203
16087TIP3   OH269751   2.769   5.380  14.951 -0.0601 -0.1187 -0.1516
16087TIP3    H169752   2.842   5.322  14.974 -0.6755 -1.4302 -1.3272
16087TIP3    H269753   2.766   5.377  14.856 -2.2955 -0.9803 -0.1131
16088TIP3   OH269754   6.365   1.887   5.536  0.1994  0.4583 -0.2643
16088TIP3    H169755   6.382   1.860   5.626 -1.5204 -0.7629 -0.2712
16088TIP3    H269756   6.270   1.880   5.526  0.3207  0.8891 -2.0816
16089TIP3   OH269757   3.834   0.284   2.836 -0.3860 -0.0202  0.1307
16089TIP3    H169758   3.844   0.354   2.900  0.9245 -1.4222  1.5373
16089TIP3    H269759   3.908   0.226   2.851 -1.2500 -1.5711 -1.1843
16090TIP3   OH269760   4.859   6.689   5.650 -0.3012  0.0689 -0.4438
16090TIP3    H169761   4.842   6.658   5.561 -0.3175  1.4166 -0.9207
16090TIP3    H269762   4.773   6.715   5.683 -0.0176  1.4999 -0.7914
16091TIP3   OH269763   6.162   5.261   2.623  0.1395 -0.1643 -0.4751
16091TIP3    H169764   6.084   5.207   2.637  0.7900 -0.5428  2.0054
16091TIP3    H269765   6.142   5.310   2.542 -1.7010 -1.8770 -1.1406
16092TIP3   OH269766   4.112   4.592  17.136  0.1567 -0.0267 -0.5331
16092TIP3    H169767   4.182   4.530  17.159 -0.2241 -0.0456  0.6727
16092TIP3    H269768   4.129   4.614  17.045  1.1707 -0.7722 -0.5519
16093TIP3   OH269769   0.453   5.692   2.767  0.6044 -0.1433  0.0471
16093TIP3    H169770   0.542   5.729   2.769  0.4077  0.5872 -2.3563
16093TIP3    H269771   0.396   5.768   2.765  0.0675 -0.5534 -1.6656
16094TIP3   OH269772   5.555   5.159  15.910  0.1383  0.4816  0.6222
16094TIP3    H169773   5.612   5.147  15.986  1.6908 -0.6746 -0.6504
16094TIP3    H269774   5.511   5.075  15.899 -2.0146  1.3939  1.6638
16095TIP3   OH269775   6.397   2.585   0.325 -0.2004  0.1190  0.1125
16095TIP3    H169776   6.305   2.578   0.300  0.0165 -0.0806 -0.6757
16095TIP3    H269777   6.398   2.573   0.420 -1.0299  0.5560  0.1877
16096TIP3   OH269778   3.007   4.665  16.332  0.3578 -0.0080 -0.0034
16096TIP3    H169779   2.950   4.655  16.408  1.3165  0.7280  0.8292
16096TIP3    H269780   3.085   4.613  16.353  1.0621  1.0047 -0.0207
16097TIP3   OH269781   6.709   3.864   3.528  0.6468 -0.1537 -0.0171
16097TIP3    H169782   6.766   3.856   3.604  1.4206 -0.1608 -0.5858
16097TIP3    H269783   6.719   3.955   3.500  0.3319 -0.1377 -0.0859
16098TIP3   OH269784   2.621   5.587   4.610  0.1069 -0.2798 -0.4865
16098TIP3    H169785   2.585   5.582   4.522 -1.0521  0.8873 -0.1037
16098TIP3    H269786   2.565   5.530   4.663 -0.9987  1.2190  0.0267
16099TIP3   OH269787   3.126   5.576  12.242  0.5588  0.5810 -0.9688
16099TIP3    H169788   3.065   5.559  12.170 -0.8452  0.6418  0.1563
16099TIP3    H269789   3.183   5.499  12.244  1.6629  1.2684 -3.1063
16100TIP3   OH269790   2.085   0.761  15.634  0.0898  0.2106 -0.5050
16100TIP3    H169791   2.114   0.686  15.582  0.1143 -0.2294  0.1378
16100TIP3    H269792   1.994   0.742  15.655  0.1349  0.2963 -0.2321
16101TIP3   OH269793   1.856   0.940   4.302  0.7381  0.2780  0.2405
16101TIP3    H169794   1.796   1.013   4.317  0.2728  0.2625 -1.2854
16101TIP3    H269795   1.859   0.892   4.385 -2.6815 -0.6560 -0.0373
16102TIP3   OH269796   3.474   5.919   0.210 -0.2385  0.0980  0.0251
16102TIP3    H169797   3.514   5.969   0.139  2.0821 -0.6551  0.7188
16102TIP3    H269798   3.508   5.830   0.199  0.2268 -0.0296  2.0845
16103TIP3   OH269799   1.919   1.827   3.793  0.6161  0.0162  0.2998
16103TIP3    H169800   1.847   1.867   3.746  0.9291  1.6548  1.1348
16103TIP3    H269801   1.904   1.732   3.786 -0.6971  0.2925 -0.8951
16104TIP3   OH269802   5.560   5.115  14.266  0.0702  0.4915 -0.2686
16104TIP3    H169803   5.632   5.161  14.222 -0.2642  2.3643  1.0514
16104TIP3    H269804   5.579   5.123  14.359  0.3923 -2.8176  0.0696
16105TIP3   OH269805   4.959   0.464  10.757  0.0912  0.3936 -0.1859
16105TIP3    H169806   5.019   0.392  10.777  0.2872  1.3206  3.0503
16105TIP3    H269807   5.012   0.525  10.705  1.3228  0.2078  0.7974
16106TIP3   OH269808   6.043   2.713   1.962  0.1006  0.0930  0.2557
16106TIP3    H169809   6.031   2.620   1.983  0.0658  0.5219  2.2427
16106TIP3    H269810   6.089   2.750   2.036 -2.1355  2.1953  0.7512
16107TIP3   OH269811   0.778   2.995   4.575  0.5553 -0.4617  0.8704
16107TIP3    H169812   0.844   3.053   4.536  0.8804 -0.4685  1.4060
16107TIP3    H269813   0.781   2.916   4.522  0.9083 -0.4214  0.8308
16108TIP3   OH269814   5.323   3.436  15.836  0.1526  0.0488 -0.5594
16108TIP3    H169815   5.412   3.445  15.800 -0.2144 -0.8428 -1.7530
16108TIP3    H269816   5.304   3.522  15.873  1.0292  0.6481 -1.4407
16109TIP3   OH269817   4.465   0.029   3.139  0.2193 -0.2752  0.0208
16109TIP3    H169818   4.441   0.070   3.222  0.1091 -0.1038 -0.0953
16109TIP3    H269819   4.383  -0.008   3.106  0.5103 -1.5729  0.6578
16110TIP3   OH269820   5.333   6.446  17.257  0.0801 -0.4094  0.8131
16110TIP3    H169821   5.255   6.391  17.246  0.2758 -0.7647  1.1693
16110TIP3    H269822   5.403   6.384  17.277  0.7436 -0.2302 -0.8042
16111TIP3   OH269823   4.750   5.427  11.007  0.2492  0.1508  0.0403
16111TIP3    H169824   4.835   5.422  11.049  0.1656 -0.0186  0.1939
16111TIP3    H269825   4.764   5.393  10.919  0.8850  2.3942 -0.8176
16112TIP3   OH269826   2.141   1.741   4.681  0.0638  0.4390 -0.3061
16112TIP3    H169827   2.089   1.686   4.622  0.0421 -0.4086  0.4649
16112TIP3    H269828   2.161   1.683   4.755  2.0015  0.7861 -0.5092
16113TIP3   OH269829   0.311   2.437   0.686 -0.0987  0.1757 -0.5314
16113TIP3    H169830   0.340   2.525   0.709 -1.5131  0.9293 -1.4544
16113TIP3    H269831   0.326   2.385   0.765 -1.3561  1.7684  0.8151
16114TIP3   OH269832   3.501   1.655   1.218  0.1914  0.0363 -0.2194
16114TIP3    H169833   3.448   1.583   1.253  0.3282 -0.7850 -1.6403
16114TIP3    H269834   3.529   1.704   1.295  1.3431 -2.3020  0.9197
16115TIP3   OH269835   3.722   4.314   1.296 -0.0053 -0.3173 -0.4131
16115TIP3    H169836   3.722   4.259   1.218  0.4795 -1.4365  0.3441
16115TIP3    H269837   3.635   4.354   1.297 -0.9079 -2.1773 -0.2497
16116TIP3   OH269838   0.604   6.274  16.868  0.4828  0.2165 -0.2246
16116TIP3    H169839   0.645   6.204  16.919  1.4447  0.0064 -1.2294
16116TIP3    H269840   0.549   6.227  16.805 -0.7274  0.4712  0.6320
16117TIP3   OH269841   4.369   0.599   5.436  0.2914  0.0644 -0.4354
16117TIP3    H169842   4.368   0.511   5.397  1.1321  0.2227 -0.8371
16117TIP3    H269843   4.461   0.626   5.432  0.4681  0.0115  1.8478
16118TIP3   OH269844   1.923   1.474   3.427 -0.6941  0.1077 -0.0964
16118TIP3    H169845   1.952   1.547   3.372 -0.3204  0.1810  0.1905
16118TIP3    H269846   1.834   1.496   3.452  0.1850  1.6887  1.9646
16119TIP3   OH269847   5.808   1.749  14.854  0.4114 -0.3196 -0.2954
16119TIP3    H169848   5.736   1.745  14.917 -0.4409 -1.4237 -1.2984
16119TIP3    H269849   5.874   1.688  14.888  1.0362  0.8796  0.7570
16120TIP3   OH269850   6.603   1.051  16.971 -0.2192 -0.0974 -0.3415
16120TIP3    H169851   6.543   1.018  17.039 -1.6961  0.0472 -1.5162
16120TIP3    H269852   6.606   1.145  16.986 -0.4215 -0.0829 -0.3952
16121TIP3   OH269853   3.813   1.586   2.843 -0.5809 -0.4020 -0.0552
16121TIP3    H169854   3.878   1.602   2.775 -0.2035  0.3616  0.4749
16121TIP3    H269855   3.772   1.671   2.858 -1.8804 -0.9278 -0.5566
16122TIP3   OH269856   5.838   1.001  14.463 -0.0525  0.2524  0.3283
16122TIP3    H169857   5.874   0.938  14.525 -0.9662  0.4236  1.0443
16122TIP3    H269858   5.884   0.983  14.381 -0.5482 -1.5827  0.4211
16123TIP3   OH269859   1.043   1.771  15.344  0.5528  0.3727  0.3052
16123TIP3    H169860   1.136   1.772  15.324  0.3141  0.3579 -0.9236
16123TIP3    H269861   1.001   1.754  15.259 -0.5712  0.6145  0.7978
16124TIP3   OH269862   3.213   0.560   3.358 -0.0990 -0.0823 -0.4796
16124TIP3    H169863   3.206   0.474   3.316  1.0871  0.2326 -1.3965
16124TIP3    H269864   3.306   0.582   3.350  0.3277 -0.2376  2.8178
16125TIP3   OH269865   0.863   6.271  15.354  0.0568  0.0994 -0.4463
16125TIP3    H169866   0.859   6.246  15.446  1.3645 -3.7821 -1.2405
16125TIP3    H269867   0.784   6.234  15.315  0.5295 -0.1255 -1.2217
16126TIP3   OH269868   6.305   2.872  12.731  0.2531  0.4187  0.2729
16126TIP3    H169869   6.354   2.806  12.682  1.4238  1.4326  0.0244
16126TIP3    H269870   6.219   2.833  12.743  1.0251 -1.3303  0.5191
16127TIP3   OH269871   5.522   4.651  12.162 -0.4236  0.1332  0.1220
16127TIP3    H169872   5.467   4.674  12.088 -0.3389 -0.5906 -0.1677
16127TIP3    H269873   5.557   4.565  12.141 -0.5096 -0.1443  1.0679
16128TIP3   OH269874   6.662   1.854   3.231  0.0243  0.3689 -0.0932
16128TIP3    H169875   6.712   1.777   3.257  0.4133  0.6357 -0.0535
16128TIP3    H269876   6.570   1.826   3.239  0.1587 -0.4269 -1.0905
16129TIP3   OH269877   1.153   2.356  12.997  0.6039  0.5663 -0.2171
16129TIP3    H169878   1.232   2.394  12.958  2.6033 -1.3955  1.6621
16129TIP3    H269879   1.129   2.285  12.938  1.1573  0.2007 -0.0017
16130TIP3   OH269880   5.785   5.281   5.160 -0.6507 -0.5101  0.3943
16130TIP3    H169881   5.841   5.326   5.097  0.3057 -1.5192  0.4933
16130TIP3    H269882   5.706   5.335   5.165 -0.3772  0.0610 -0.9909
16131TIP3   OH269883   5.476   2.652  12.369  0.0005  0.6364  0.5757
16131TIP3    H169884   5.528   2.727  12.341 -1.2781  1.0295 -0.8520
16131TIP3    H269885   5.430   2.623  12.290 -0.2171 -1.1090  1.2890
16132TIP3   OH269886   4.666   1.694  15.101  0.0574  0.4976 -0.2147
16132TIP3    H169887   4.737   1.689  15.164 -0.1273  3.2590  0.3223
16132TIP3    H269888   4.709   1.685  15.016  0.5109 -1.6045  0.1855
16133TIP3   OH269889   6.480   1.624   6.712 -0.4731  0.1118  0.2627
16133TIP3    H169890   6.419   1.562   6.672 -0.5631  0.4280 -0.1000
16133TIP3    H269891   6.480   1.601   6.805  0.6694 -1.4368 -0.0761
16134TIP3   OH269892   2.144   0.826   4.866 -0.7930  0.0549 -0.0352
16134TIP3    H169893   2.071   0.778   4.904 -2.3232  2.0161 -0.3181
16134TIP3    H269894   2.175   0.882   4.937  1.4697 -1.7657  0.5247
16135TIP3   OH269895   1.589   0.044   4.068 -0.0020  0.3039  0.2088
16135TIP3    H169896   1.651   0.085   4.007 -0.5820  1.4537  0.3708
16135TIP3    H269897   1.518   0.013   4.012 -0.7081  1.6824  0.3066
16136TIP3   OH269898   0.180   3.663   3.059 -0.4312  0.1190 -0.3910
16136TIP3    H169899   0.158   3.575   3.088 -0.4694 -0.0393 -0.8927
16136TIP3    H269900   0.259   3.652   3.006 -0.2492  0.4292 -0.1925
16137TIP3   OH269901   0.382   1.526   4.037  0.0878  0.3853  0.2442
16137TIP3    H169902   0.381   1.565   4.125  0.8266  0.2857  0.2965
16137TIP3    H269903   0.306   1.467   4.037  0.3514  0.0351  0.9691
16138TIP3   OH269904   6.109   3.658   2.695  0.2482  0.0594  0.7448
16138TIP3    H169905   6.192   3.647   2.742  0.6718  0.0995  0.0256
16138TIP3    H269906   6.135   3.673   2.604 -0.5306  0.5708  0.5931
16139TIP3   OH269907   6.786   6.062   4.770 -0.0581 -0.1970 -0.5109
16139TIP3    H169908   6.762   6.054   4.678 -4.5851  2.7460  0.0630
16139TIP3    H269909   6.833   6.145   4.776 -0.4914  0.0223 -0.0879
16140TIP3   OH269910   3.142   1.563  15.677 -0.0878 -0.4402 -0.2106
16140TIP3    H169911   3.094   1.515  15.610  0.4523 -1.9124  0.4173
16140TIP3    H269912   3.218   1.598  15.632 -0.9006  0.5753 -0.8548
16141TIP3   OH269913   3.508   3.188   0.043 -0.3205  0.4105 -0.1718
16141TIP3    H169914   3.504   3.141  -0.040 -0.8315  0.6263 -0.2759
16141TIP3    H269915   3.598   3.219   0.049 -0.5814  1.5034 -1.2845
16142TIP3   OH269916   1.948   6.467  14.451  0.3770 -0.7286 -0.0388
16142TIP3    H169917   1.872   6.410  14.441  0.1357 -0.2862 -0.7977
16142TIP3    H269918   2.023   6.408  14.442  0.1286 -0.9814 -0.5312
16143TIP3   OH269919   2.658   4.602   3.084  0.3163 -0.3791 -0.9786
16143TIP3    H169920   2.673   4.517   3.043 -0.6530 -0.3767 -1.3624
16143TIP3    H269921   2.618   4.655   3.014 -1.5038 -0.4153 -0.0276
16144TIP3   OH269922   3.529   0.995  12.662 -0.2325  0.2166 -0.1741
16144TIP3    H169923   3.502   0.982  12.753  0.9448  1.1614  0.3293
16144TIP3    H269924   3.455   1.041  12.622 -0.3545  0.6989  0.5742
16145TIP3   OH269925   0.889   1.051  10.923 -0.3763 -0.7170  0.4604
16145TIP3    H169926   0.976   1.064  10.962 -0.8068 -0.7289  1.4584
16145TIP3    H269927   0.862   1.139  10.897 -0.1894 -0.6740  0.4067
16146TIP3   OH269928   6.464   4.105   4.138 -0.0021  0.7600 -0.2647
16146TIP3    H169929   6.429   4.066   4.218 -1.0260  1.1446 -0.5109
16146TIP3    H269930   6.463   4.033   4.074 -0.1707  0.7206 -0.2181
16147TIP3   OH269931   6.821   1.547  16.428  0.8359  0.2442 -0.3084
16147TIP3    H169932   6.889   1.523  16.490  0.6462 -0.7289 -0.4548
16147TIP3    H269933   6.748   1.489  16.449  0.3784  0.6511 -0.7373
16148TIP3   OH269934   3.227   6.636   5.208  0.7263  0.2331 -0.2594
16148TIP3    H169935   3.215   6.695   5.282  0.4778  3.0070 -2.3675
16148TIP3    H269936   3.143   6.591   5.199  0.8790 -0.4367  1.3045
16149TIP3   OH269937   5.775   3.844  15.479 -0.3150  0.4231 -0.2578
16149TIP3    H169938   5.770   3.931  15.440  0.7560  1.5440  1.9341
16149TIP3    H269939   5.836   3.854  15.553  0.9589 -2.5114 -0.7744
16150TIP3   OH269940   4.805   6.083  14.039 -0.2921 -0.2875 -0.0318
16150TIP3    H169941   4.800   6.039  13.953 -0.8823 -0.4388  0.0733
16150TIP3    H269942   4.898   6.101  14.051 -0.0216 -1.5931 -0.0453
16151TIP3   OH269943   2.642   4.781  11.657  0.2571  0.3898  0.1808
16151TIP3    H169944   2.728   4.750  11.629  0.3469 -1.4511  2.2729
16151TIP3    H269945   2.654   4.876  11.667  1.5961  0.3850 -0.9556
16152TIP3   OH269946   6.310   6.066  14.300 -0.0380 -0.0669 -0.6615
16152TIP3    H169947   6.229   6.059  14.249  0.1513  0.0902 -0.9871
16152TIP3    H269948   6.284   6.045  14.389 -0.3403 -0.5172 -0.8516
16153TIP3   OH269949   5.175   6.163  15.208  0.1013  0.4918  0.4129
16153TIP3    H169950   5.267   6.175  15.229 -0.2259 -0.2950  2.4903
16153TIP3    H269951   5.172   6.084  15.155  0.7174  1.2050 -0.7204
16154TIP3   OH269952   5.782   2.326  16.254 -0.1760  0.6382  0.2441
16154TIP3    H169953   5.863   2.369  16.225 -0.7771  1.3951 -0.3772
16154TIP3    H269954   5.807   2.278  16.333  0.5240  2.1794  1.0102
16155TIP3   OH269955   3.887   2.743  13.818 -0.0549 -0.4080  0.1290
16155TIP3    H169956   3.902   2.823  13.869 -0.4726  0.1216 -0.5518
16155TIP3    H269957   3.828   2.771  13.748  1.4973 -0.8202 -1.3866
16156TIP3   OH269958   3.167   5.267  12.409 -0.9088  0.2372  0.3573
16156TIP3    H169959   3.255   5.290  12.379 -0.5393 -0.0399  1.2153
16156TIP3    H269960   3.159   5.174  12.390 -1.3682  0.4526 -0.5601
16157TIP3   OH269961   4.151   2.430   4.183 -0.1402  0.7909  0.3153
16157TIP3    H169962   4.202   2.371   4.127 -1.7936  1.0085 -1.5128
16157TIP3    H269963   4.215   2.493   4.215  1.0327  0.0785 -0.5415
16158TIP3   OH269964   1.712   2.749   1.203  1.1260 -0.0136  0.0734
16158TIP3    H169965   1.787   2.712   1.249  0.8674  0.6599  1.0699
16158TIP3    H269966   1.748   2.822   1.152  1.6009 -1.4308 -1.7295
16159TIP3   OH269967   6.335   5.031  14.377  0.6410 -0.6173  0.1229
16159TIP3    H169968   6.312   4.952  14.329 -2.0394  1.0583 -1.6029
16159TIP3    H269969   6.264   5.043  14.439  0.6498  0.7700 -0.1125
16160TIP3   OH269970   1.025   1.690   6.068  0.6250 -0.0338  0.1461
16160TIP3    H169971   1.039   1.639   6.148 -0.2831 -0.9523 -0.2699
16160TIP3    H269972   0.943   1.738   6.085  0.5088 -0.1205 -0.1735
16161TIP3   OH269973   2.841   6.618  11.118  0.2735  0.0941 -0.4056
16161TIP3    H169974   2.935   6.623  11.137 -0.2053  2.6508  1.9992
16161TIP3    H269975   2.826   6.527  11.096  3.3152 -0.3953 -0.9419
16162TIP3   OH269976   3.917   5.365   0.706 -0.2870  0.4439 -0.4073
16162TIP3    H169977   3.998   5.339   0.664  0.4644  1.4593  0.3615
16162TIP3    H269978   3.944   5.417   0.781 -1.5490 -1.3674  1.4488
16163TIP3   OH269979   1.776   1.006  11.439  0.8076 -0.2630  0.4223
16163TIP3    H169980   1.701   0.966  11.485 -0.4867 -0.0508 -1.4055
16163TIP3    H269981   1.845   0.941  11.445  0.3344 -0.6724  1.7504
16164TIP3   OH269982   5.412   5.664   3.396 -0.2831 -0.2538 -0.4084
16164TIP3    H169983   5.477   5.689   3.462 -0.6656  1.2087 -0.5485
16164TIP3    H269984   5.462   5.618   3.329  0.2515 -0.9872  0.4773
16165TIP3   OH269985   4.481   4.834  14.489  0.1297  0.0549 -0.2540
16165TIP3    H169986   4.482   4.750  14.535  0.3626  0.3253  0.2382
16165TIP3    H269987   4.396   4.872  14.510  0.1079  0.0382 -0.3106
16166TIP3   OH269988   6.662   6.380   6.054 -0.0974  0.4048  0.4394
16166TIP3    H169989   6.663   6.397   6.149 -0.8521 -0.4677  0.6142
16166TIP3    H269990   6.613   6.299   6.045  0.4752  0.1676 -0.6625
16167TIP3   OH269991   5.168   4.685  12.363 -0.2008  0.2554 -0.5941
16167TIP3    H169992   5.143   4.772  12.394 -1.4032 -0.1306 -0.4483
16167TIP3    H269993   5.150   4.687  12.269 -3.5820 -0.8708 -0.1296
16168TIP3   OH269994   1.535   0.862   1.213 -0.0152  0.0564 -0.1677
16168TIP3    H169995   1.457   0.915   1.199 -0.5252 -0.8574 -0.8734
16168TIP3    H269996   1.601   0.902   1.156  0.5158  1.7657  1.5678
16169TIP3   OH269997   1.256   0.726   0.975  0.2471  0.2498 -0.2789
16169TIP3    H169998   1.234   0.704   0.884  1.8002 -0.5797 -0.4961
16169TIP3    H269999   1.230   0.817   0.984  0.6833  0.5586 -1.7891
16170TIP3   OH270000   6.553   6.723   5.056 -0.8339  0.3055  0.3393
16170TIP3    H170001   6.606   6.707   4.978  0.2926  1.6580  0.7805
16170TIP3    H270002   6.465   6.696   5.032  0.0468 -2.1629 -0.3890
16171TIP3   OH270003   4.089   5.684   0.239  0.1635 -0.3339 -0.3545
16171TIP3    H170004   4.042   5.766   0.221 -1.3013 -1.5332 -2.4648
16171TIP3    H270005   4.028   5.633   0.291  0.7561 -0.4043  0.2766
16172TIP3   OH270006   4.050   5.055  15.899 -0.0832 -0.1394  0.6092
16172TIP3    H170007   3.966   5.099  15.908  1.2120  2.2826  1.7351
16172TIP3    H270008   4.096   5.074  15.981  1.8248 -0.8309 -0.2466
16173TIP3   OH270009   0.561   2.390  15.088 -0.2919  0.4075  0.1491
16173TIP3    H170010   0.652   2.417  15.074 -0.7110  2.0090  0.3698
16173TIP3    H270011   0.553   2.381  15.183 -0.5985  1.1282  0.1913
16174TIP3   OH270012   5.873   5.806   5.259  0.5687  0.2659  0.2504
16174TIP3    H170013   5.810   5.867   5.221 -1.4592 -0.1151  2.6554
16174TIP3    H270014   5.866   5.727   5.205 -2.5246 -0.4193  1.4069
16175TIP3   OH270015   0.454   1.156   2.288 -0.8852 -0.4249 -0.0167
16175TIP3    H170016   0.538   1.193   2.263 -1.2879  1.2005  0.9173
16175TIP3    H270017   0.474   1.065   2.312  0.8055  0.2458  1.2846
16176TIP3   OH270018   6.430   1.279   6.090 -0.2481  0.2417  0.3677
16176TIP3    H170019   6.445   1.339   6.164 -0.7581  1.2059 -0.2959
16176TIP3    H270020   6.369   1.214   6.125 -0.1265  0.4211  0.9348
16177TIP3   OH270021   4.192   5.117   3.099  0.1333 -0.7583 -0.1434
16177TIP3    H170022   4.097   5.109   3.105 -0.0315  0.3674 -0.9105
16177TIP3    H270023   4.206   5.199   3.051  1.4867 -0.9754 -0.1542
16178TIP3   OH270024   5.667   0.230  16.660  0.2671 -0.6340 -0.1670
16178TIP3    H170025   5.726   0.195  16.727 -1.9178 -1.6736  1.3365
16178TIP3    H270026   5.706   0.314  16.636  1.9380 -0.9100  1.2987
16179TIP3   OH270027   3.728   0.823   5.060  0.2067 -0.1838 -0.1103
16179TIP3    H170028   3.777   0.762   5.114 -1.3651  0.3527  2.0411
16179TIP3    H270029   3.736   0.908   5.104 -0.5037  0.4454 -1.1237
16180TIP3   OH270030   2.685   5.454   3.039  0.2819 -0.4562  0.1270
16180TIP3    H170031   2.659   5.362   3.041  0.6774 -0.5587  1.0898
16180TIP3    H270032   2.708   5.470   2.947  2.0905 -1.8795  0.2701
16181TIP3   OH270033   5.102   0.646   5.731  0.4309  0.1087 -0.0743
16181TIP3    H170034   5.144   0.715   5.782 -1.0233 -0.7908  2.5022
16181TIP3    H270035   5.009   0.657   5.748 -0.3581  0.6414 -3.8001
16182TIP3   OH270036   1.650   5.978   3.479  0.7409  0.3242 -0.0511
16182TIP3    H170037   1.645   5.890   3.440 -0.8861  0.9345 -1.3541
16182TIP3    H270038   1.713   6.025   3.425  1.1882  0.1398  0.3013
16183TIP3   OH270039   1.275   2.142  10.974 -0.5000 -0.0795  0.2342
16183TIP3    H170040   1.225   2.181  10.903 -1.8368  0.5505  1.4672
16183TIP3    H270041   1.351   2.200  10.985 -1.7575  1.4660  1.1458
16184TIP3   OH270042   0.343   4.627   1.859 -0.5007 -0.5540 -0.6181
16184TIP3    H170043   0.255   4.663   1.847 -0.8691 -0.8911  0.8572
16184TIP3    H270044   0.357   4.572   1.782 -2.1115 -1.5075 -0.2842
16185TIP3   OH270045   1.236   0.271   3.833 -0.0260  0.0166  0.1059
16185TIP3    H170046   1.209   0.359   3.860 -0.7824 -0.3430  0.5691
16185TIP3    H270047   1.203   0.213   3.902  0.6505 -0.6147 -0.0816
16186TIP3   OH270048   3.179   3.370   0.556  0.0165  0.4755  0.0169
16186TIP3    H170049   3.206   3.353   0.646  2.8107  2.2185 -0.3724
16186TIP3    H270050   3.220   3.300   0.505 -0.0283  0.5244 -0.0868
16187TIP3   OH270051   4.535   0.143  14.676  0.1596 -0.3916  0.0228
16187TIP3    H170052   4.585   0.172  14.599  2.4859  0.1212  1.6377
16187TIP3    H270053   4.598   0.092  14.728 -0.4060  1.7194  3.0081
16188TIP3   OH270054   2.181   2.488  13.096  0.5527 -0.0855  0.1213
16188TIP3    H170055   2.145   2.546  13.163  1.6449  1.7314 -0.7951
16188TIP3    H270056   2.263   2.456  13.133  0.5314 -0.1024  0.1542
16189TIP3   OH270057   5.722   2.624  11.172 -0.3080  0.0282 -0.8749
16189TIP3    H170058   5.636   2.623  11.215  0.4545  0.4074  0.7266
16189TIP3    H270059   5.781   2.661  11.238  1.1184 -0.3693 -1.8941
16190TIP3   OH270060   5.564   3.732  14.050 -0.5214 -0.0587  0.3161
16190TIP3    H170061   5.628   3.771  13.991  0.7318 -1.2242  0.8642
16190TIP3    H270062   5.569   3.638  14.032 -2.3891 -0.1440  0.0866
16191TIP3   OH270063   2.468   6.813   2.122 -0.4717 -0.1050  0.0923
16191TIP3    H170064   2.533   6.782   2.059 -0.0510  2.5771 -0.9371
16191TIP3    H270065   2.385   6.806   2.075 -0.4671 -0.2498  0.1051
16192TIP3   OH270066   3.574   2.529  13.302 -0.0319  0.7190 -0.1212
16192TIP3    H170067   3.605   2.451  13.348 -2.1305 -0.5174 -0.6427
16192TIP3    H270068   3.652   2.565  13.260  1.1415 -0.6407  0.8056
16193TIP3   OH270069   5.251   4.035   5.539 -0.3229  0.2487 -0.2330
16193TIP3    H170070   5.183   3.994   5.485 -0.2033 -2.8646  1.7678
16193TIP3    H270071   5.207   4.059   5.620  0.8002 -1.4566  0.9381
16194TIP3   OH270072   4.308   0.579  11.632  0.0457  0.3011 -0.7280
16194TIP3    H170073   4.373   0.646  11.608 -0.5262  0.5252 -1.7152
16194TIP3    H270074   4.358   0.498  11.635  0.9463  0.8672  1.4373
16195TIP3   OH270075   5.742   2.077  10.945  0.0439  0.2284  0.0663
16195TIP3    H170076   5.689   2.058  11.022  1.9248  2.1825  1.9812
16195TIP3    H270077   5.805   2.005  10.940 -1.0127 -0.6947 -0.6396
16196TIP3   OH270078   5.734   0.202  17.108 -0.2579 -0.1660 -0.4924
16196TIP3    H170079   5.798   0.175  17.043  1.3859  0.6225  0.7088
16196TIP3    H270080   5.711   0.121  17.154 -1.1228 -0.6582 -1.7521
16197TIP3   OH270081   4.176   1.487  16.640  0.0693  0.1124  0.9219
16197TIP3    H170082   4.102   1.431  16.615 -0.9864  1.0149  1.8949
16197TIP3    H270083   4.158   1.570  16.597  0.6055  0.2997  1.0548
16198TIP3   OH270084   1.539   5.860  14.348 -0.2190  0.2467  0.3463
16198TIP3    H170085   1.476   5.851  14.277  0.2597 -1.1687  0.0564
16198TIP3    H270086   1.612   5.803  14.322  0.5138  0.6765  1.3827
16199TIP3   OH270087   0.643   5.928  15.505  0.2676  0.0849 -0.3508
16199TIP3    H170088   0.649   5.905  15.412 -0.1255 -0.5491 -0.2276
16199TIP3    H270089   0.594   6.010  15.507  1.0453  0.5599 -0.7607
16200TIP3   OH270090   2.319   6.186   4.580 -0.2719  0.1566  0.7717
16200TIP3    H170091   2.346   6.098   4.607  0.3815  0.2228  0.3562
16200TIP3    H270092   2.307   6.180   4.485  2.1013  1.0534  0.3269
16201TIP3   OH270093   2.719   2.491   1.449  0.0099  0.1204 -0.1750
16201TIP3    H170094   2.779   2.453   1.385 -0.6636  0.4172 -1.0051
16201TIP3    H270095   2.766   2.486   1.532  1.2849  0.5535 -0.8426
16202TIP3   OH270096   3.160   5.896   0.320 -0.0361 -0.1514  0.5510
16202TIP3    H170097   3.220   5.824   0.338 -0.6159 -1.0449 -0.9341
16202TIP3    H270098   3.215   5.974   0.319  0.7507 -0.6819  1.2276
16203TIP3   OH270099   6.060   6.314   1.059  0.1946  0.0301 -0.4310
16203TIP3    H170100   6.028   6.351   0.977 -0.6416 -0.3531 -0.2858
16203TIP3    H270101   6.155   6.313   1.050  0.1196  0.3049 -1.2582
16204TIP3   OH270102   5.679   5.078   2.246  0.6014 -0.3393 -0.3052
16204TIP3    H170103   5.649   4.987   2.244  0.5588 -0.3761  1.0979
16204TIP3    H270104   5.756   5.077   2.302  0.5580  0.5004 -0.2180
16205TIP3   OH270105   2.195   1.373  13.209 -0.2896  0.5220 -0.0272
16205TIP3    H170106   2.120   1.425  13.238  0.8187  2.3209 -0.2192
16205TIP3    H270107   2.223   1.415  13.128  1.4519  0.4480  0.4995
16206TIP3   OH270108   6.012   1.665  12.580  0.0597 -0.5929  0.5515
16206TIP3    H170109   6.042   1.716  12.505  0.3112  0.7518  1.5274
16206TIP3    H270110   6.088   1.660  12.638 -0.5824 -0.1599  1.4639
16207TIP3   OH270111   1.925   1.333   3.915  0.1241  0.1946  0.1499
16207TIP3    H170112   1.865   1.290   3.975  0.5793  0.7740  1.0343
16207TIP3    H270113   1.965   1.262   3.865  0.0482 -0.3257  0.8254
16208TIP3   OH270114   1.740   5.365   2.276 -0.2138  0.9833 -0.1127
16208TIP3    H170115   1.755   5.374   2.370 -1.3939  0.7361  0.1236
16208TIP3    H270116   1.649   5.335   2.269 -0.4297  1.8412 -1.3707
16209TIP3   OH270117   6.291   4.504  14.913  0.5351  0.0043 -0.3922
16209TIP3    H170118   6.279   4.418  14.874 -1.0024  0.2693 -0.5528
16209TIP3    H270119   6.273   4.492  15.006 -0.3085  0.2602 -0.5134
16210TIP3   OH270120   4.361   1.957   6.367 -0.5892  0.1259 -0.7623
16210TIP3    H170121   4.379   1.934   6.276 -1.4982 -1.7875 -0.5062
16210TIP3    H270122   4.279   1.914   6.388  0.5847 -1.2164  1.5519
16211TIP3   OH270123   4.433   3.426  13.060 -0.1643  0.2333  0.1500
16211TIP3    H170124   4.493   3.470  13.000  0.2735  0.1294  0.5013
16211TIP3    H270125   4.357   3.404  13.007  0.5555 -0.5993 -0.5765
16212TIP3   OH270126   4.548   6.419  10.503  0.2056  0.2593  0.4115
16212TIP3    H170127   4.627   6.368  10.485 -0.0362 -0.2240  0.6857
16212TIP3    H270128   4.579   6.495  10.551  0.4873 -0.0282  0.6947
16213TIP3   OH270129   5.275   3.906  13.629  0.4261 -0.2808 -0.1683
16213TIP3    H170130   5.348   3.883  13.687  1.3420 -0.3157 -1.3048
16213TIP3    H270131   5.235   3.983  13.670  0.8223 -0.5152  0.6919
16214TIP3   OH270132   4.026   6.438  12.912 -0.1196  0.2392  0.4571
16214TIP3    H170133   3.967   6.507  12.942  0.6093  0.0037  2.6049
16214TIP3    H270134   4.003   6.362  12.964  0.3519 -0.6185 -0.5501
16215TIP3   OH270135   4.829   4.047   0.129 -0.4055 -0.5914 -0.2130
16215TIP3    H170136   4.882   3.973   0.099  0.9891  0.6442 -0.9567
16215TIP3    H270137   4.817   4.101   0.050 -0.7068  0.3748  0.4826
16216TIP3   OH270138   3.351   3.592  11.502 -0.5999  0.6670  0.3572
16216TIP3    H170139   3.374   3.683  11.482  0.7283  0.3885  0.5200
16216TIP3    H270140   3.420   3.562  11.562 -1.7871 -0.0331  1.4215
16217TIP3   OH270141   2.276   5.060   4.562 -0.4924  0.4488  0.0219
16217TIP3    H170142   2.310   5.056   4.652 -0.4973  1.9109  0.1081
16217TIP3    H270143   2.338   5.114   4.514 -1.0379  0.5457 -0.5957
16218TIP3   OH270144   2.452   2.846   0.002 -0.0354 -0.6204  0.4986
16218TIP3    H170145   2.406   2.843   0.085  1.9506  0.0258  1.7081
16218TIP3    H270146   2.481   2.937  -0.006  0.5786 -0.8818 -0.4386
16219TIP3   OH270147   6.066   2.300   2.679  0.2632  0.1825 -0.0550
16219TIP3    H170148   6.067   2.382   2.728 -0.6642 -0.2616  0.7438
16219TIP3    H270149   6.156   2.290   2.648  0.4865  1.2807  0.2047
16220TIP3   OH270150   3.815   5.820   5.957 -0.2622 -0.2020  0.2090
16220TIP3    H170151   3.819   5.842   6.050  0.4549  2.8806 -0.4554
16220TIP3    H270152   3.785   5.900   5.914  0.5277 -1.1738 -2.3580
16221TIP3   OH270153   5.655   5.755   2.686 -0.0637  0.3597 -0.1032
16221TIP3    H170154   5.675   5.691   2.617 -1.4470 -0.5259  0.2629
16221TIP3    H270155   5.728   5.817   2.684  0.5915 -0.4124 -1.4524
16222TIP3   OH270156   5.977   4.527   1.900  0.1884  0.0405 -0.3247
16222TIP3    H170157   5.967   4.520   1.995 -2.4618 -3.5355 -0.6389
16222TIP3    H270158   5.932   4.609   1.878 -2.0347 -0.6271  1.3148
16223TIP3   OH270159   2.516   0.850  15.220  0.2149 -0.1458 -0.1450
16223TIP3    H170160   2.519   0.941  15.190 -0.2156 -0.8001 -2.4029
16223TIP3    H270161   2.596   0.811  15.184  0.0364 -0.8211  0.1848
16224TIP3   OH270162   2.415   6.815   4.550  0.4191  0.5123 -0.5009
16224TIP3    H170163   2.444   6.879   4.485  0.8180  1.8374  0.8891
16224TIP3    H270164   2.428   6.730   4.509  0.8448  1.2873 -2.0463
16225TIP3   OH270165   3.435   3.379  14.965  0.1300 -0.6951 -0.2232
16225TIP3    H170166   3.433   3.293  15.008 -2.7163 -0.7684 -0.3025
16225TIP3    H270167   3.363   3.428  15.007  0.8763  1.2153 -1.0547
16226TIP3   OH270168   0.595   3.499  14.748 -0.2964  0.1413 -0.7415
16226TIP3    H170169   0.667   3.439  14.726 -0.5688  0.6668 -3.3920
16226TIP3    H270170   0.538   3.447  14.805  0.9326 -1.1239 -0.6000
16227TIP3   OH270171   6.754   1.392   5.487 -0.2259 -0.1841  0.1846
16227TIP3    H170172   6.840   1.391   5.530 -1.7189 -2.0037  3.4746
16227TIP3    H270173   6.713   1.473   5.518 -0.0616  0.2469 -0.6885
16228TIP3   OH270174   2.320   4.945   5.437 -0.0357 -0.4290 -0.4945
16228TIP3    H170175   2.251   4.919   5.498  1.8521  0.2773  2.1367
16228TIP3    H270176   2.375   4.867   5.430  0.9920  0.1564  0.6192
16229TIP3   OH270177   6.639   1.566  16.067 -0.1925  0.0408 -0.0913
16229TIP3    H170178   6.574   1.572  15.997  0.0378 -0.3198 -0.3377
16229TIP3    H270179   6.723   1.563  16.021  0.0000  0.4846  0.2244
16230TIP3   OH270180   3.510   4.893   1.542  0.3071 -0.0525  0.2176
16230TIP3    H170181   3.593   4.894   1.590 -0.3711 -0.3184  1.4309
16230TIP3    H270182   3.505   4.804   1.506 -0.4138 -0.7438  1.9260
16231TIP3   OH270183   3.510   2.873   2.126 -0.5176  0.3531  0.0589
16231TIP3    H170184   3.534   2.797   2.073  0.2488  1.3695 -1.0900
16231TIP3    H270185   3.420   2.855   2.153 -1.0088 -0.1370 -1.7338
16232TIP3   OH270186   2.181   3.568  16.675 -0.5084 -0.3242  1.0394
16232TIP3    H170187   2.266   3.594  16.709 -0.0536  2.2010 -1.5883
16232TIP3    H270188   2.193   3.479  16.642  1.6171  0.4752 -0.5582
16233TIP3   OH270189   0.954   1.942  12.479  0.5505  0.0539 -0.3187
16233TIP3    H170190   0.895   1.951  12.554 -0.0080 -0.2568 -0.7125
16233TIP3    H270191   0.917   2.000  12.413 -0.2425 -1.3122 -1.1250
16234TIP3   OH270192   1.571   4.430   6.301 -0.5089  0.2023  0.4747
16234TIP3    H170193   1.618   4.347   6.310  0.5072  0.8519  1.3521
16234TIP3    H270194   1.512   4.433   6.376 -1.5844 -0.3360 -0.3062
16235TIP3   OH270195   2.702   5.058  14.415 -0.3108 -0.1019  0.4125
16235TIP3    H170196   2.682   4.994  14.346 -0.6876 -0.1333  0.5480
16235TIP3    H270197   2.647   5.133  14.395 -0.4991 -0.1509  0.7379
16236TIP3   OH270198   3.354   4.026   4.051  0.6695 -0.2184  0.5735
16236TIP3    H170199   3.424   4.025   4.117  1.0474 -1.0535  0.1814
16236TIP3    H270200   3.327   4.117   4.047  0.6823 -0.1335  1.8338
16237TIP3   OH270201   6.118   5.938   5.784 -0.2675  0.1833  0.1508
16237TIP3    H170202   6.035   5.974   5.752  0.4198  1.7552  0.0108
16237TIP3    H270203   6.124   5.969   5.875 -0.9623 -2.0192  1.0053
16238TIP3   OH270204   5.017   5.796   2.610 -0.0442  0.2659 -0.5709
16238TIP3    H170205   4.953   5.777   2.542  0.3665 -2.0352 -0.3927
16238TIP3    H270206   4.973   5.776   2.692  0.0493  1.2855 -0.2598
16239TIP3   OH270207   3.332   6.518   3.525 -0.6496 -0.4577 -0.2766
16239TIP3    H170208   3.370   6.543   3.440 -1.0240  4.4488  0.6624
16239TIP3    H270209   3.256   6.464   3.503  0.3674 -0.9491 -2.9010
16240TIP3   OH270210   2.758   0.906  10.894  0.2452  0.4099  0.4292
16240TIP3    H170211   2.763   0.934  10.803 -0.6417  0.0231  0.2493
16240TIP3    H270212   2.839   0.938  10.934  0.3036  1.2203 -0.3133
16241TIP3   OH270213   6.693   3.406  12.909  0.7390 -0.1062  0.5502
16241TIP3    H170214   6.664   3.467  12.842  0.0057  0.4548  1.3587
16241TIP3    H270215   6.627   3.412  12.978  0.3464 -2.2121  0.4344
16242TIP3   OH270216   4.510   3.498  13.353 -0.3355 -0.0476 -0.5496
16242TIP3    H170217   4.544   3.516  13.440  0.3491  0.3928 -0.9009
16242TIP3    H270218   4.472   3.410  13.360  0.3364 -0.3035  0.0088
16243TIP3   OH270219   6.165   1.580   6.006 -0.3741  0.0228 -0.6303
16243TIP3    H170220   6.084   1.630   6.001 -0.1114  0.7270  1.1888
16243TIP3    H270221   6.163   1.541   6.094  1.3563  0.2684 -0.4510
16244TIP3   OH270222   5.499   4.651   1.936 -0.1261 -0.3887  0.1960
16244TIP3    H170223   5.554   4.662   1.858  0.2137  0.4890  0.5484
16244TIP3    H270224   5.431   4.718   1.927 -2.1796 -2.4751 -1.0553
16245TIP3   OH270225   5.058   4.284   3.659 -0.5890 -0.5237 -0.0117
16245TIP3    H170226   5.023   4.246   3.740 -0.8663  0.7236  0.4861
16245TIP3    H270227   5.063   4.211   3.598 -0.2875 -1.5264  1.1552
16246TIP3   OH270228   2.950   1.661  14.789 -0.5409 -0.2251 -0.2356
16246TIP3    H170229   2.993   1.576  14.798  0.1004  0.2556  1.6085
16246TIP3    H270230   2.857   1.641  14.799 -0.7705 -1.1124 -3.1471
16247TIP3   OH270231   2.469   0.394  16.131  0.6270  0.3620  0.5175
16247TIP3    H170232   2.381   0.357  16.140  0.6216  0.0951 -0.5435
16247TIP3    H270233   2.456   0.488  16.130  0.2858  0.3136 -0.1725
16248TIP3   OH270234   6.401   5.985   5.750  0.6286 -0.0571 -0.3094
16248TIP3    H170235   6.433   5.983   5.840  0.2479  0.9187 -0.1441
16248TIP3    H270236   6.314   5.946   5.754  1.3636 -1.8062 -0.5956
16249TIP3   OH270237   5.854   5.762  11.450  0.0426 -0.3129  0.0049
16249TIP3    H170238   5.824   5.672  11.455 -3.9106  0.7978  0.0118
16249TIP3    H270239   5.825   5.802  11.532 -0.3031  1.4232 -0.8990
16250TIP3   OH270240   0.246   3.344  14.937 -0.0706  0.0982  0.4140
16250TIP3    H170241   0.342   3.345  14.947 -0.1742 -0.3164  1.6261
16250TIP3    H270242   0.232   3.313  14.847  0.9207 -0.6356  0.4928
16251TIP3   OH270243   4.282   0.909   0.530  0.5227  0.1346  0.0241
16251TIP3    H170244   4.226   0.863   0.468  1.3242 -0.4970 -0.2551
16251TIP3    H270245   4.293   0.996   0.493  1.2907 -0.3520 -0.9244
16252TIP3   OH270246   3.231   4.647  14.225 -0.0444  0.0813  0.3118
16252TIP3    H170247   3.168   4.586  14.263  1.2776 -1.2914  0.3978
16252TIP3    H270248   3.283   4.677  14.299  0.0342  0.4217  0.1191
16253TIP3   OH270249   1.495   4.424  10.664 -0.4858  0.4671  0.0200
16253TIP3    H170250   1.551   4.404  10.739 -0.5650 -1.4153 -0.3732
16253TIP3    H270251   1.547   4.396  10.588 -1.5000 -0.2980 -0.4135
16254TIP3   OH270252   0.873   2.124  12.280 -0.0248  0.0709 -0.1528
16254TIP3    H170253   0.837   2.210  12.260 -0.1877  0.1915  0.6150
16254TIP3    H270254   0.840   2.067  12.211 -2.5600 -0.0441  1.0494
16255TIP3   OH270255   0.613   1.276   2.862 -0.1121  0.0967  0.5787
16255TIP3    H170256   0.526   1.315   2.851 -0.1418 -0.3453 -0.9680
16255TIP3    H270257   0.622   1.216   2.788  1.6900  0.4230  0.4991
16256TIP3   OH270258   2.172   0.405  16.481  0.5494 -0.7405  0.3920
16256TIP3    H170259   2.238   0.470  16.454 -0.3749 -0.1310 -0.5044
16256TIP3    H270260   2.183   0.333  16.418 -0.3927 -0.1168 -0.5303
16257TIP3   OH270261   2.641   4.889   1.660 -0.0075  0.3276  0.4318
16257TIP3    H170262   2.597   4.954   1.605  2.7596  0.9783 -1.1629
16257TIP3    H270263   2.703   4.940   1.713  0.4460 -0.7650  0.9871
16258TIP3   OH270264   0.238   2.611   1.455  0.1477  0.2130 -0.5220
16258TIP3    H170265   0.147   2.633   1.434  0.0513 -0.7845 -1.2169
16258TIP3    H270266   0.241   2.609   1.550 -0.9476 -1.1984 -0.4906
16259TIP3   OH270267   4.945   6.084  13.223 -0.1387 -0.2005 -0.0815
16259TIP3    H170268   4.942   6.114  13.133  1.0084  0.5982  0.1296
16259TIP3    H270269   4.900   5.999  13.222 -3.6868  1.5099 -0.6477
16260TIP3   OH270270   1.583   1.641  16.791 -0.0350 -0.0272 -0.7859
16260TIP3    H170271   1.491   1.669  16.789  0.0605  0.2833 -2.5147
16260TIP3    H270272   1.632   1.719  16.816 -0.0262  0.6475 -2.7301
16261TIP3   OH270273   2.045   5.195  14.794 -0.2644  0.1083  0.3123
16261TIP3    H170274   1.984   5.122  14.808 -0.0955 -0.6614 -2.3767
16261TIP3    H270275   2.131   5.157  14.809 -0.2735  0.4033  1.1706
16262TIP3   OH270276   4.776   5.058   3.145  0.4083  0.3546 -0.3420
16262TIP3    H170277   4.807   4.989   3.087  1.5142  0.5857 -0.0524
16262TIP3    H270278   4.686   5.075   3.116  1.0201  0.6690 -2.1728
16263TIP3   OH270279   0.198   0.358   1.939 -0.0151 -0.3428 -0.1287
16263TIP3    H170280   0.229   0.432   1.888  0.2664  0.4624  1.1761
16263TIP3    H270281   0.277   0.317   1.974 -0.2514 -0.0770  0.7483
16264TIP3   OH270282   5.635   5.902  14.249  0.3763 -0.1946 -0.0464
16264TIP3    H170283   5.634   5.809  14.230  0.8605 -0.0488 -0.8451
16264TIP3    H270284   5.637   5.908  14.344  1.0223 -1.0021 -0.0054
16265TIP3   OH270285   3.739   3.143  10.774 -0.3007  0.3138 -0.1662
16265TIP3    H170286   3.689   3.118  10.852 -0.4394 -0.4102 -0.4775
16265TIP3    H270287   3.779   3.226  10.797  2.7364 -1.5601  2.1356
16266TIP3   OH270288   1.833   3.196  14.787 -0.5338  0.7013  1.0208
16266TIP3    H170289   1.772   3.141  14.738 -1.5742  3.1400 -0.6279
16266TIP3    H270290   1.844   3.151  14.871 -1.0310 -2.1132 -0.3231
16267TIP3   OH270291   2.382   2.349  11.378  0.3928  0.3217 -0.0942
16267TIP3    H170292   2.452   2.285  11.389 -0.1836 -0.2808  0.1842
16267TIP3    H270293   2.422   2.422  11.331  0.5486 -1.1440 -2.3847
16268TIP3   OH270294   3.324   1.749   1.020  0.3522  0.5484  0.0217
16268TIP3    H170295   3.368   1.808   0.959 -0.0344  2.4209  1.4557
16268TIP3    H270296   3.395   1.706   1.067  0.6379  0.2114 -0.7025
16269TIP3   OH270297   4.387   2.323  17.031  0.1475 -0.1658  0.1682
16269TIP3    H170298   4.431   2.240  17.015  0.5797 -0.0246  0.5963
16269TIP3    H270299   4.458   2.384  17.052 -0.2594  0.0254  1.0248
16270TIP3   OH270300   3.472   3.212   5.256 -0.2614  0.0086  0.1760
16270TIP3    H170301   3.502   3.296   5.289  0.9302 -0.0188 -0.7831
16270TIP3    H270302   3.378   3.223   5.244  0.1424  1.8431 -1.7001
16271TIP3   OH270303   0.717   1.608  15.966  0.5317 -0.1849 -0.6721
16271TIP3    H170304   0.768   1.530  15.988  1.2085  0.6410  0.8088
16271TIP3    H270305   0.724   1.615  15.871  0.1356 -2.1284 -0.8841
16272TIP3   OH270306   4.680   5.868   3.589  0.6603 -0.2246 -0.5194
16272TIP3    H170307   4.773   5.878   3.569  0.7288  1.8379  0.6174
16272TIP3    H270308   4.636   5.923   3.525  0.2588 -0.5284 -0.5068
16273TIP3   OH270309   1.674   2.997  14.972 -0.3526 -0.0349  0.2589
16273TIP3    H170310   1.624   3.079  14.968 -0.4138 -0.1148 -1.3227
16273TIP3    H270311   1.752   3.019  15.022 -0.0483  1.2057 -0.6885
16274TIP3   OH270312   2.566   5.245   4.298 -0.2087 -0.5476 -0.0638
16274TIP3    H170313   2.637   5.294   4.339 -0.0399  0.0530 -1.0360
16274TIP3    H270314   2.525   5.308   4.239  0.2173 -1.6375 -1.5903
16275TIP3   OH270315   0.317   0.120  13.861  0.1144 -0.6508 -0.2521
16275TIP3    H170316   0.287   0.118  13.951 -1.1237 -1.7811 -0.6509
16275TIP3    H270317   0.279   0.041  13.821  1.0279 -0.4390 -1.6318
16276TIP3   OH270318   3.503   4.641   1.469 -0.2447 -0.3622  0.1834
16276TIP3    H170319   3.544   4.598   1.544  1.5413 -0.0155 -0.5616
16276TIP3    H270320   3.497   4.572   1.402  0.6540 -0.0006 -0.2753
16277TIP3   OH270321   4.511   4.287  16.130  0.2060  0.3457  0.3366
16277TIP3    H170322   4.558   4.368  16.112 -0.8598  1.0013  0.4488
16277TIP3    H270323   4.561   4.219  16.085  1.8224  0.8618  1.2627
16278TIP3   OH270324   2.842   2.813   1.232  0.0090 -0.6131 -0.2092
16278TIP3    H170325   2.880   2.856   1.155  1.2096 -0.8705  0.2307
16278TIP3    H270326   2.809   2.730   1.198 -2.6889  0.7237 -1.1519
16279TIP3   OH270327   3.532   6.647  14.173 -0.0997 -0.5313 -0.2260
16279TIP3    H170328   3.535   6.642  14.078  0.5323  2.6692 -0.4964
16279TIP3    H270329   3.442   6.675  14.192  0.1348  0.1347 -0.0400
16280TIP3   OH270330   1.391   1.573  10.243 -0.4184 -0.1569 -0.1831
16280TIP3    H170331   1.382   1.664  10.214  0.3522  0.1337  0.4444
16280TIP3    H270332   1.350   1.572  10.330 -0.1909 -0.3471 -0.0774
16281TIP3   OH270333   0.732   4.966   6.177  0.1892  0.2239 -0.1396
16281TIP3    H170334   0.786   4.960   6.255 -0.5569  0.8836  0.4373
16281TIP3    H270335   0.644   4.946   6.207  0.0757 -0.7504 -1.0538
16282TIP3   OH270336   5.644   2.222   5.590 -0.5599  0.7596 -0.6810
16282TIP3    H170337   5.628   2.239   5.683 -0.5060  1.8493 -0.8533
16282TIP3    H270338   5.605   2.136   5.574  0.7275 -0.1291  0.6777
16283TIP3   OH270339   1.940   2.611   4.937 -0.1452  0.4042 -0.0534
16283TIP3    H170340   1.976   2.637   4.853  0.1642 -0.5228 -0.2162
16283TIP3    H270341   2.002   2.645   5.002 -0.0551  0.5721 -0.2271
16284TIP3   OH270342   1.113   4.707  15.246  0.2944 -0.0589  0.4195
16284TIP3    H170343   1.089   4.788  15.201 -0.5873 -1.0050 -0.8722
16284TIP3    H270344   1.074   4.637  15.193  1.5602 -1.3765  1.1606
16285TIP3   OH270345   0.943   1.549   5.831 -0.2072  0.0425 -0.3549
16285TIP3    H170346   0.879   1.615   5.807 -2.2533 -1.6390  0.2011
16285TIP3    H270347   0.988   1.586   5.907 -1.4498  0.7046  0.0769
16286TIP3   OH270348   1.839   0.723  15.760 -0.3406 -0.5529 -0.0868
16286TIP3    H170349   1.893   0.767  15.826  0.3298  0.3140 -1.1767
16286TIP3    H270350   1.750   0.754  15.777 -0.1611 -0.2425  0.3095
16287TIP3   OH270351   1.887   0.299  15.325  0.3951 -0.0321 -0.6047
16287TIP3    H170352   1.901   0.213  15.364 -0.9466 -0.0483 -0.1256
16287TIP3    H270353   1.872   0.281  15.232 -1.2139 -0.4653 -0.2842
16288TIP3   OH270354   6.703   3.991  16.888 -0.0441  0.2108 -0.4401
16288TIP3    H170355   6.659   4.010  16.970  1.3542 -0.6491  0.5649
16288TIP3    H270356   6.650   4.034  16.821 -3.5114 -2.3801  0.3959
16289TIP3   OH270357   2.521   0.433  12.803  0.1297 -0.2423 -0.0379
16289TIP3    H170358   2.439   0.386  12.784  0.1476 -0.8004  1.1766
16289TIP3    H270359   2.552   0.462  12.717 -0.3200 -1.7507 -0.7530
16290TIP3   OH270360   1.818   6.391   2.231  0.2632 -0.2637  0.4018
16290TIP3    H170361   1.755   6.425   2.294 -0.4359 -0.8226  0.0201
16290TIP3    H270362   1.901   6.433   2.254 -0.3696  0.9335  0.5426
16291TIP3   OH270363   4.214   1.334   0.158  0.8376 -0.9026 -0.0164
16291TIP3    H170364   4.269   1.360   0.084  0.7733  2.6325  0.9626
16291TIP3    H270365   4.125   1.357   0.131  0.6594 -0.7395  0.6830
16292TIP3   OH270366   2.338   3.794   5.901 -0.2684  0.3014  0.0414
16292TIP3    H170367   2.336   3.789   5.805 -0.8596  2.5032 -0.1229
16292TIP3    H270368   2.390   3.718   5.928  1.5077  0.6415 -2.1237
16293TIP3   OH270369   5.820   2.987   1.923 -0.2710 -0.5538  0.2834
16293TIP3    H170370   5.880   2.941   1.864  1.8577  0.0796  1.8165
16293TIP3    H270371   5.823   2.937   2.004 -3.9112 -1.9760 -0.2665
16294TIP3   OH270372   2.991   6.029  12.953  0.0680  0.0054 -0.2326
16294TIP3    H170373   2.918   6.088  12.970  0.9038  0.6920  1.1293
16294TIP3    H270374   2.954   5.941  12.965 -0.4707  0.3485  0.7748
16295TIP3   OH270375   3.105   6.353   0.474  0.4189  0.4456 -0.0768
16295TIP3    H170376   3.049   6.430   0.485  0.5734  0.5992 -0.3445
16295TIP3    H270377   3.089   6.326   0.383  0.8179  0.5183 -0.1686
16296TIP3   OH270378   4.160   6.076  11.786 -0.2326 -0.0901  0.6556
16296TIP3    H170379   4.094   6.058  11.853 -1.0224  0.9360  0.1718
16296TIP3    H270380   4.111   6.078  11.704  0.5197 -0.0038  0.2012
16297TIP3   OH270381   0.216   4.053  14.877 -0.5264  0.1913  0.0284
16297TIP3    H170382   0.287   4.090  14.826 -1.8459  2.4214 -0.3083
16297TIP3    H270383   0.200   4.117  14.946 -0.1764 -1.7676  2.0236
16298TIP3   OH270384   6.780   5.817  17.243  0.0852 -0.0338  0.3447
16298TIP3    H170385   6.759   5.731  17.207  0.8696  0.7909 -2.2811
16298TIP3    H270386   6.800   5.800  17.335 -0.1864 -2.5774  0.0023
16299TIP3   OH270387   2.734   2.574   1.085  0.2734 -0.6155 -0.0876
16299TIP3    H170388   2.782   2.499   1.121  0.5525 -0.8675 -0.9744
16299TIP3    H270389   2.725   2.555   0.992  0.6592  0.6291 -0.3965
16300TIP3   OH270390   0.129   1.012   4.383 -0.1608  0.1804  0.0905
16300TIP3    H170391   0.115   1.033   4.291  0.8660 -0.1809 -0.1602
16300TIP3    H270392   0.201   0.949   4.383 -0.1750  0.1431  1.1362
16301TIP3   OH270393   5.811   2.308   0.664 -0.2433 -0.2260 -0.1865
16301TIP3    H170394   5.898   2.340   0.640 -0.4114 -0.3920 -1.0511
16301TIP3    H270395   5.827   2.220   0.699 -0.0473 -0.1899 -0.1829
16302TIP3   OH270396   2.472   5.418   1.214  0.6678  0.0419 -0.4271
16302TIP3    H170397   2.525   5.486   1.172 -0.6318  1.1486 -0.3469
16302TIP3    H270398   2.431   5.463   1.288 -1.0466 -0.5387 -0.9935
16303TIP3   OH270399   6.766   0.819   3.232 -0.5274 -0.0744 -0.5144
16303TIP3    H170400   6.845   0.766   3.238 -0.5180 -0.0047  0.1030
16303TIP3    H270401   6.790   0.892   3.175  0.2800  0.6552  0.7003
16304TIP3   OH270402   2.731   6.543  11.699  0.6476 -0.5659  0.5969
16304TIP3    H170403   2.795   6.613  11.684  0.6074 -0.4996  0.7354
16304TIP3    H270404   2.691   6.565  11.783 -1.9098  1.2164 -0.9470
16305TIP3   OH270405   4.687   2.645   3.227  0.1276 -0.2510  0.2267
16305TIP3    H170406   4.675   2.578   3.294 -2.0910 -1.9310 -1.6770
16305TIP3    H270407   4.641   2.610   3.150 -0.9794  3.3840 -0.9493
16306TIP3   OH270408   3.161   0.221   3.976 -0.7609 -0.4831  0.5915
16306TIP3    H170409   3.196   0.208   3.888  0.1403 -0.8700  0.9855
16306TIP3    H270410   3.108   0.300   3.970  2.8436  2.2095  0.6509
16307TIP3   OH270411   4.359   0.702   2.920 -0.6465 -0.7930 -0.6166
16307TIP3    H170412   4.388   0.792   2.908 -2.4795 -0.3909 -2.9189
16307TIP3    H270413   4.385   0.679   3.009  1.8154  1.2223 -0.7181
16308TIP3   OH270414   4.787   2.335   0.274  0.1794  0.0669  0.1910
16308TIP3    H170415   4.771   2.272   0.344 -0.9478  0.5970  0.4317
16308TIP3    H270416   4.700   2.359   0.242  0.6653 -1.3159 -2.4903
16309TIP3   OH270417   5.292   1.306   1.209 -0.0122 -0.2967  0.0124
16309TIP3    H170418   5.268   1.394   1.180  1.1493  0.3778  0.9899
16309TIP3    H270419   5.379   1.292   1.171  0.2174 -0.6241  0.6495
16310TIP3   OH270420   5.680   5.898  15.594  0.4428  0.4750 -0.5190
16310TIP3    H170421   5.711   5.929  15.679  0.5086 -1.5065  0.2226
16310TIP3    H270422   5.659   5.978  15.545 -1.3274  1.6799  1.9934
16311TIP3   OH270423   4.586   1.974  15.517 -0.5541  0.0137  0.5052
16311TIP3    H170424   4.499   2.013  15.528 -1.3378 -1.5723  0.2046
16311TIP3    H270425   4.587   1.943  15.426 -0.0719 -0.8883  0.8084
16312TIP3   OH270426   1.902   2.498   5.396  0.1172  0.1901  0.0168
16312TIP3    H170427   1.929   2.463   5.311  1.0852  0.4979  0.1879
16312TIP3    H270428   1.901   2.592   5.384 -0.6321  0.1990  0.0989
16313TIP3   OH270429   6.671   3.333   2.241  0.2757  0.0697  0.5607
16313TIP3    H170430   6.674   3.258   2.301 -3.0566  0.2731  1.1580
16313TIP3    H270431   6.672   3.293   2.154 -1.8788 -0.7891  0.8720
16314TIP3   OH270432   1.873   0.022   1.811 -0.2853 -0.1456 -0.0445
16314TIP3    H170433   1.849   0.029   1.719 -1.1998 -0.7462  0.1394
16314TIP3    H270434   1.836   0.100   1.852 -0.8839 -0.4541  0.0145
16315TIP3   OH270435   0.110   3.689   2.739  0.1306 -0.1531  0.2628
16315TIP3    H170436   0.095   3.743   2.817  0.4239 -0.6806  0.6892
16315TIP3    H270437   0.127   3.752   2.669 -0.2525  0.3305  0.5975
16316TIP3   OH270438   3.070   6.226  13.977  0.5608  0.3120 -0.1452
16316TIP3    H170439   3.055   6.132  13.989  1.0484  0.1199 -0.9410
16316TIP3    H270440   2.990   6.258  13.934  0.6238  0.1434 -0.3917
16317TIP3   OH270441   5.216   1.644  14.924  0.2116 -0.0718 -0.1749
16317TIP3    H170442   5.249   1.711  14.984  1.7289 -0.2394 -0.7640
16317TIP3    H270443   5.273   1.651  14.847 -0.9427 -0.6493 -1.1078
16318TIP3   OH270444   4.018   4.324   0.139 -0.0140 -0.1733  0.3877
16318TIP3    H170445   4.006   4.264   0.212 -0.5283 -0.5354  0.0116
16318TIP3    H270446   4.113   4.338   0.135 -0.0389  0.5510  1.6612
16319TIP3   OH270447   1.775   6.363  13.576 -0.5535 -0.4816 -0.1549
16319TIP3    H170448   1.867   6.361  13.550 -0.9963  0.2987 -1.9834
16319TIP3    H270449   1.727   6.368  13.493 -2.1388  2.1063  0.8051
16320TIP3   OH270450   3.812   4.171   0.645 -0.4489 -0.2211 -0.2706
16320TIP3    H170451   3.775   4.088   0.617 -1.5380  0.2932 -0.4188
16320TIP3    H270452   3.738   4.218   0.684  0.2679  0.4578  0.3118
16321TIP3   OH270453   2.054   3.018   4.601  0.2705 -0.3183  0.3780
16321TIP3    H170454   2.005   2.994   4.680  2.0163 -2.7034  0.8715
16321TIP3    H270455   2.098   3.099   4.624  0.4335 -0.7672  1.7446
16322TIP3   OH270456   1.099   5.056  14.434  0.1245 -0.0914  0.1989
16322TIP3    H170457   1.044   4.986  14.400  0.0328 -0.1144  0.3926
16322TIP3    H270458   1.184   5.043  14.392  0.1297 -0.3613  0.2932
16323TIP3   OH270459   3.456   1.730  16.313  0.0801 -0.1795  0.7747
16323TIP3    H170460   3.528   1.692  16.262  0.9296  1.3599  0.7577
16323TIP3    H270461   3.477   1.824  16.318 -3.6478  1.0676 -2.1520
16324TIP3   OH270462   2.097   1.883  10.694 -0.1257 -0.3341  0.2848
16324TIP3    H170463   2.092   1.978  10.697 -1.4193 -0.3805 -0.0546
16324TIP3    H270464   2.181   1.863  10.735 -0.5289  0.8821  1.8159
16325TIP3   OH270465   0.198   0.038   0.116 -0.3800  0.2724  0.1228
16325TIP3    H170466   0.272  -0.011   0.151 -1.1202 -2.0875 -1.3472
16325TIP3    H270467   0.220   0.054   0.025  0.1305  3.4684  0.6919
16326TIP3   OH270468   1.256   6.565   3.986 -0.4824  0.2308 -0.6439
16326TIP3    H170469   1.201   6.512   3.928 -1.1100  0.9125 -0.6958
16326TIP3    H270470   1.205   6.573   4.066  1.5226 -2.9823  1.1406
16327TIP3   OH270471   0.192   6.729  15.867 -0.3613 -0.5020  0.0929
16327TIP3    H170472   0.233   6.756  15.784 -0.7961  0.2259  0.1118
16327TIP3    H270473   0.245   6.655  15.896  1.6958  1.1323  0.7072
16328TIP3   OH270474   3.182   6.146  15.020 -0.1741  0.4717 -0.1077
16328TIP3    H170475   3.262   6.189  14.989  1.4299 -0.9811  1.7699
16328TIP3    H270476   3.196   6.053  15.002 -0.6428 -0.0075  1.8176
16329TIP3   OH270477   1.804   4.183  11.857  0.0031  0.3240 -0.3751
16329TIP3    H170478   1.857   4.163  11.934 -1.1705 -0.8547  0.1814
16329TIP3    H270479   1.733   4.118  11.860 -0.3815  0.6165 -2.1475
16330TIP3   OH270480   6.552   1.461   3.976 -0.1099 -0.8316  0.4732
16330TIP3    H170481   6.465   1.474   4.013  0.7301 -0.3517  2.4389
16330TIP3    H270482   6.604   1.429   4.049  1.6734  0.1875 -0.2799
16331TIP3   OH270483   5.566   4.256   3.296 -0.5161 -0.2932  0.2215
16331TIP3    H170484   5.593   4.244   3.388 -2.9179  0.9900  1.1874
16331TIP3    H270485   5.627   4.322   3.263 -0.0372 -0.2686  1.0967
16332TIP3   OH270486   5.398   5.012  16.349  0.2427  0.1468 -0.2006
16332TIP3    H170487   5.462   5.000  16.279 -0.7570  1.0205 -1.2964
16332TIP3    H270488   5.439   4.972  16.426  1.2608 -1.0593 -1.3241
16333TIP3   OH270489   3.194   4.925  12.994  0.8508 -1.2649  0.1979
16333TIP3    H170490   3.163   5.010  12.960  0.9172 -0.3114  2.3568
16333TIP3    H270491   3.116   4.870  12.996  0.6236 -0.9694 -0.4178
16334TIP3   OH270492   0.313   1.093   2.896  0.0915  0.3886  0.5411
16334TIP3    H170493   0.370   1.028   2.937  1.1774  0.9409 -0.0236
16334TIP3    H270494   0.327   1.172   2.949 -0.0100  0.5756  0.2891
16335TIP3   OH270495   1.772   1.172   4.068  0.1840 -0.0077  0.1479
16335TIP3    H170496   1.759   1.092   4.120 -0.5125  0.6024  0.9364
16335TIP3    H270497   1.738   1.242   4.124  0.4712  0.7989 -0.6815
16336TIP3   OH270498   3.100   6.244  16.309  0.1701 -0.1349 -0.1780
16336TIP3    H170499   3.164   6.233  16.379 -0.9463 -0.9707  0.7494
16336TIP3    H270500   3.152   6.244  16.229  1.3653 -0.3265  0.5681
16337TIP3   OH270501   5.770   4.086   2.899 -0.0294  0.2590 -0.1645
16337TIP3    H170502   5.689   4.120   2.938  0.5290  1.8420 -0.2838
16337TIP3    H270503   5.781   3.999   2.937 -0.8112  0.7626  1.3054
16338TIP3   OH270504   6.088   3.837   5.609  0.5937  0.1621 -0.4089
16338TIP3    H170505   6.009   3.865   5.654  0.8390 -0.0918  0.1854
16338TIP3    H270506   6.131   3.918   5.582  0.8941  0.3439  0.5924
16339TIP3   OH270507   0.738   3.862   3.895  0.1151  0.0724 -0.1107
16339TIP3    H170508   0.720   3.917   3.972  1.7111 -0.2658  0.5411
16339TIP3    H270509   0.768   3.924   3.828  0.6561  0.1546  0.2013
16340TIP3   OH270510   3.091   5.689  11.904 -0.5037 -0.8832  0.6856
16340TIP3    H170511   3.102   5.597  11.928 -0.1411 -1.4141 -1.3582
16340TIP3    H270512   3.168   5.709  11.851 -2.2522 -0.4646 -1.8469
16341TIP3   OH270513   1.141   1.258  16.298 -0.1203  0.1108  0.0900
16341TIP3    H170514   1.062   1.311  16.311 -0.0935  0.8934 -2.3161
16341TIP3    H270515   1.206   1.298  16.356 -1.1189  0.3296  1.0867
16342TIP3   OH270516   3.030   0.720   1.880  0.0503 -0.2825  0.4302
16342TIP3    H170517   3.042   0.674   1.797  0.2966  0.7104 -0.1020
16342TIP3    H270518   2.964   0.668   1.927 -0.4949 -0.5702 -0.6125
16343TIP3   OH270519   0.492   3.255   1.416 -0.0330 -0.3782 -0.1251
16343TIP3    H170520   0.574   3.213   1.392 -0.9252 -1.5517 -1.3202
16343TIP3    H270521   0.468   3.306   1.339 -0.7248 -0.5499 -0.0302
16344TIP3   OH270522   2.269   3.248  13.948  0.2588 -0.2209  0.1852
16344TIP3    H170523   2.358   3.259  13.915  0.8162 -2.5281  0.7459
16344TIP3    H270524   2.230   3.182  13.890 -0.1832 -1.1579  1.4965
16345TIP3   OH270525   3.689   2.842  11.357  0.4510 -0.2977  0.3967
16345TIP3    H170526   3.688   2.935  11.337  1.2646 -0.2646  0.4564
16345TIP3    H270527   3.762   2.831  11.418 -0.1060 -0.8600  0.9779
16346TIP3   OH270528   0.723   4.952  17.297 -0.8018 -0.1330  0.1078
16346TIP3    H170529   0.644   4.909  17.264 -0.7364  0.5822 -0.9943
16346TIP3    H270530   0.793   4.922  17.240 -0.5728  0.5946 -0.0037
16347TIP3   OH270531   5.249   0.792  11.358  0.4194 -0.3366  0.0802
16347TIP3    H170532   5.341   0.768  11.356  1.1055  2.0854  0.1141
16347TIP3    H270533   5.213   0.756  11.277  1.3302 -1.4326  0.1468
16348TIP3   OH270534   1.127   6.339   1.354  0.1434 -0.1781 -0.0160
16348TIP3    H170535   1.168   6.424   1.369  1.5779 -0.7063 -0.7208
16348TIP3    H270536   1.098   6.342   1.262 -1.2176  0.0867  0.3945
16349TIP3   OH270537   5.924   2.924  16.966 -0.1150  0.2961 -0.4511
16349TIP3    H170538   5.886   2.843  16.932  0.3578 -0.2321  0.2468
16349TIP3    H270539   5.849   2.984  16.973 -0.8673 -0.7399  0.9432
16350TIP3   OH270540   6.679   5.795  14.644  0.5961  0.2106 -0.5492
16350TIP3    H170541   6.773   5.807  14.630  0.6862  0.0453 -0.0938
16350TIP3    H270542   6.668   5.700  14.652  0.6796  0.3206  1.3051
16351TIP3   OH270543   3.872   1.557   4.524 -0.1113  0.2653 -0.3769
16351TIP3    H170544   3.911   1.481   4.480  1.1308 -0.3429  1.6272
16351TIP3    H270545   3.781   1.558   4.493 -0.5345 -2.7894  0.3950
16352TIP3   OH270546   1.908   1.873   1.324  0.3198 -0.2023 -0.4453
16352TIP3    H170547   1.971   1.804   1.342  0.1437 -0.2374  0.0377
16352TIP3    H270548   1.952   1.954   1.350 -0.5593 -0.3875  1.9036
16353TIP3   OH270549   3.920   2.823  11.535 -0.0906 -0.8621  0.2979
16353TIP3    H170550   3.990   2.831  11.601  0.2563 -0.7006 -0.0894
16353TIP3    H270551   3.878   2.739  11.555 -0.0675 -0.7602  0.8021
16354TIP3   OH270552   0.636   3.847   2.526 -0.0551 -0.7678  0.3321
16354TIP3    H170553   0.702   3.902   2.484 -0.1404 -1.0009 -0.1072
16354TIP3    H270554   0.639   3.873   2.618 -0.8471  0.7392 -0.0283
16355TIP3   OH270555   4.521   3.129   0.978  0.4669  1.0836  0.8098
16355TIP3    H170556   4.497   3.138   0.886 -1.7705 -0.5497  1.1339
16355TIP3    H270557   4.612   3.100   0.977 -0.3311 -1.7730 -1.1059
16356TIP3   OH270558   4.305   2.882  12.433  0.0302 -0.1751  0.3784
16356TIP3    H170559   4.326   2.912  12.344  2.6437 -0.2515  0.9055
16356TIP3    H270560   4.304   2.962  12.485 -2.2906 -0.0279  0.2303
16357TIP3   OH270561   2.628   4.551  11.168 -0.6698  0.2741  0.3377
16357TIP3    H170562   2.711   4.599  11.166  0.1772 -1.1382  0.4320
16357TIP3    H270563   2.622   4.516  11.257 -1.3576  0.3356  0.3248
16358TIP3   OH270564   3.099   6.128  12.057  0.0440  0.4623 -0.3662
16358TIP3    H170565   3.066   6.104  11.970 -1.4927 -0.3392  0.3891
16358TIP3    H270566   3.190   6.099  12.057 -0.2887 -0.6965 -1.2959
16359TIP3   OH270567   0.012   4.454   0.270 -0.2648 -0.4341 -0.1959
16359TIP3    H170568  -0.044   4.521   0.231  0.6445  1.7587  1.9953
16359TIP3    H270569  -0.003   4.462   0.365  0.3306 -2.9727  0.1835
16360TIP3   OH270570   2.029   2.925   0.831 -0.4942 -0.4710 -0.6381
16360TIP3    H170571   2.069   2.970   0.906 -0.3256  0.0194 -1.0161
16360TIP3    H270572   1.951   2.977   0.812 -1.1100 -1.1999 -0.1477
16361TIP3   OH270573   1.016   5.742  13.405  0.5338  0.0501 -0.1216
16361TIP3    H170574   1.051   5.749  13.317  0.2861 -0.6710 -0.2860
16361TIP3    H270575   1.033   5.827  13.445 -0.7345  0.9295 -1.3768
16362TIP3   OH270576   1.979   3.890   2.289 -0.2164 -0.0575  0.1776
16362TIP3    H170577   1.962   3.796   2.281  1.3444 -0.2853 -1.1833
16362TIP3    H270578   2.037   3.898   2.364 -0.4658 -0.1659  0.3816
16363TIP3   OH270579   2.049   6.649  14.261 -0.7103  0.0203 -0.0783
16363TIP3    H170580   2.114   6.579  14.255  0.5822  1.0550  1.2648
16363TIP3    H270581   1.993   6.623  14.334  1.5816  1.7246  2.4557
16364TIP3   OH270582   5.332   4.620  15.426 -0.1282 -0.7634 -0.2932
16364TIP3    H170583   5.365   4.709  15.414 -0.8844 -0.3904  0.2522
16364TIP3    H270584   5.263   4.611  15.360 -0.9438 -0.4608  0.4937
16365TIP3   OH270585   3.786   3.786  11.570 -0.0798  0.9364  0.4054
16365TIP3    H170586   3.740   3.844  11.630 -1.6063  0.7485 -0.5098
16365TIP3    H270587   3.728   3.780  11.493  0.6053 -0.7922 -0.0374
16366TIP3   OH270588   0.053   5.542  12.169 -0.1565 -0.4569 -0.1393
16366TIP3    H170589  -0.002   5.581  12.236  2.1178 -0.7188  2.0627
16366TIP3    H270590   0.108   5.614  12.138 -1.7343 -0.1537 -2.4348
16367TIP3   OH270591   4.045   5.678  17.269  0.2271  0.4681 -0.0907
16367TIP3    H170592   4.107   5.711  17.333  1.7625  0.8440 -1.7043
16367TIP3    H270593   3.991   5.616  17.317  1.1391  0.9528  1.6136
16368TIP3   OH270594   1.049   2.041  10.287 -0.4279 -0.1198  0.1081
16368TIP3    H170595   1.107   2.068  10.215 -0.4715  0.7090  0.3812
16368TIP3    H270596   1.015   2.122  10.323 -2.0692 -0.6034 -0.2677
16369TIP3   OH270597   3.081   1.357   5.395  0.7511  0.0633  0.3346
16369TIP3    H170598   3.071   1.302   5.472  0.7263  1.0811  1.0676
16369TIP3    H270599   3.175   1.367   5.384  0.7471  0.7866  0.8764
16370TIP3   OH270600   0.051   3.147   1.982 -0.5586 -0.2723 -0.0590
16370TIP3    H170601   0.146   3.160   1.987 -0.6490  1.9915 -2.2238
16370TIP3    H270602   0.040   3.058   1.947  0.7191 -0.8187  0.8851
16371TIP3   OH270603   1.222   1.151   2.405 -0.0711 -0.0008 -0.1000
16371TIP3    H170604   1.209   1.088   2.476 -0.5529  1.6132  1.3114
16371TIP3    H270605   1.158   1.125   2.338 -0.8913 -0.4656  0.8390
16372TIP3   OH270606   6.080   1.012  16.015 -0.0587  0.3991 -0.3877
16372TIP3    H170607   6.140   1.087  16.011  0.4489  0.1033  1.2076
16372TIP3    H270608   6.074   0.982  15.924  0.7709  1.5498 -0.8529
16373TIP3   OH270609   4.944   4.723  15.910  0.1512  0.0933 -0.1881
16373TIP3    H170610   4.994   4.784  15.857 -0.0118 -0.1327 -0.6008
16373TIP3    H270611   4.873   4.775  15.947 -0.3533  0.0158 -1.0417
16374TIP3   OH270612   4.676   4.099  11.185  0.0088 -0.3257 -0.0317
16374TIP3    H170613   4.724   4.020  11.158 -0.1172 -0.3608 -0.1508
16374TIP3    H270614   4.730   4.135  11.256 -0.5230 -1.1386  0.8107
16375TIP3   OH270615   4.354   0.859  17.173 -0.8024  0.2229 -0.5102
16375TIP3    H170616   4.342   0.780  17.225 -0.5953  0.8497  0.5127
16375TIP3    H270617   4.448   0.876  17.175 -0.9542  1.0483  0.1372
16376TIP3   OH270618   0.876   4.322   4.081  0.3066 -0.1617 -0.3790
16376TIP3    H170619   0.935   4.306   4.155 -0.3337 -1.8958 -0.2038
16376TIP3    H270620   0.932   4.319   4.004  0.4407 -2.0379 -0.2320
16377TIP3   OH270621   4.410   0.684  15.937  0.8259 -0.3741  0.0855
16377TIP3    H170622   4.438   0.764  15.980 -0.4191  0.7396 -1.1073
16377TIP3    H270623   4.492   0.642  15.908  1.7613 -1.3070  3.5616
16378TIP3   OH270624   4.343   0.369  17.209  0.4211  0.2116 -0.2282
16378TIP3    H170625   4.313   0.287  17.247 -0.1137  1.2179  1.6578
16378TIP3    H270626   4.290   0.380  17.131 -1.2459 -0.0861  0.8023
16379TIP3   OH270627   4.262   4.413  13.218 -0.3041  0.1150  0.2649
16379TIP3    H170628   4.288   4.503  13.238  0.1839 -0.0209  0.2554
16379TIP3    H270629   4.233   4.416  13.127 -0.9503  0.4004  0.4737
16380TIP3   OH270630   2.740   0.744  15.136 -0.1493  0.2657 -0.2333
16380TIP3    H170631   2.732   0.652  15.161  0.2548  0.7032  1.6497
16380TIP3    H270632   2.813   0.745  15.074  0.9077 -0.4976  0.9396
16381TIP3   OH270633   6.570   5.484  12.813 -0.3117  0.1739 -0.1767
16381TIP3    H170634   6.578   5.532  12.895  1.3081 -0.3849  0.0305
16381TIP3    H270635   6.614   5.401  12.829  1.0209  0.4870 -1.9320
16382TIP3   OH270636   5.501   5.382   0.031 -0.1125 -0.6651  0.4713
16382TIP3    H170637   5.447   5.307   0.005 -0.0424 -1.2098  1.8194
16382TIP3    H270638   5.461   5.413   0.113  2.7107 -2.3510  2.6674
16383TIP3   OH270639   1.504   0.904   2.586 -0.0554 -0.1811 -0.2186
16383TIP3    H170640   1.442   0.977   2.582 -0.8468 -0.8850 -2.0162
16383TIP3    H270641   1.524   0.894   2.679 -2.2383  0.4039  0.3557
16384TIP3   OH270642   5.345   6.666   5.283 -0.1250 -0.8292  0.0356
16384TIP3    H170643   5.361   6.710   5.366  0.8586 -0.0454 -0.5491
16384TIP3    H270644   5.269   6.610   5.300 -1.0995  0.6974  0.9586
16385TIP3   OH270645   1.716   0.426  14.755 -0.3497  0.2692  0.2663
16385TIP3    H170646   1.711   0.342  14.709 -1.8222 -0.2236  1.2553
16385TIP3    H270647   1.630   0.466  14.741 -0.3696  0.6854  1.4921
16386TIP3   OH270648   2.420   3.460  11.682 -0.1009 -0.3737 -0.1468
16386TIP3    H170649   2.417   3.547  11.722 -1.1392 -1.0529  1.3303
16386TIP3    H270650   2.465   3.473  11.599  0.0047  1.5237  0.1791
16387TIP3   OH270651   3.215   4.466  11.588  0.2388  0.4613 -0.6139
16387TIP3    H170652   3.205   4.496  11.678 -0.6973  0.8969 -0.8500
16387TIP3    H270653   3.301   4.498  11.560  0.4961  0.3886  0.0943
16388TIP3   OH270654   4.220   6.664   3.012  0.3123  0.2569  0.6728
16388TIP3    H170655   4.173   6.587   2.981 -1.6785  1.7728 -0.3435
16388TIP3    H270656   4.263   6.699   2.935  0.5379  0.6025  0.9544
16389TIP3   OH270657   5.901   2.971  12.284 -0.2687 -0.6564  0.4529
16389TIP3    H170658   5.874   2.914  12.212 -0.2025  0.1007 -0.1811
16389TIP3    H270659   5.961   3.033  12.244 -1.1635  0.5214  0.9062
16390TIP3   OH270660   2.879   3.547  14.235  0.4747  0.0842 -0.1081
16390TIP3    H170661   2.809   3.586  14.287  0.6892  0.1213  0.1556
16390TIP3    H270662   2.835   3.512  14.158  0.4084  1.9074 -0.9574
16391TIP3   OH270663   3.909   2.597  12.866 -0.4709 -0.0316 -0.4559
16391TIP3    H170664   4.001   2.568  12.859 -0.6021 -0.5666 -0.0600
16391TIP3    H270665   3.859   2.516  12.865 -1.0596  0.3168 -2.2354
16392TIP3   OH270666   4.768   0.064   0.758 -0.2645  0.1207  0.3972
16392TIP3    H170667   4.848   0.041   0.804 -0.6788 -0.1273  1.0113
16392TIP3    H270668   4.779   0.156   0.735  0.9846 -0.3784 -1.1904
16393TIP3   OH270669   0.740   3.815  13.595  0.3251  0.4078  0.7178
16393TIP3    H170670   0.774   3.901  13.571  0.6427 -0.0318 -0.4692
16393TIP3    H270671   0.807   3.779  13.654  0.2107  0.9526  1.1880
16394TIP3   OH270672   5.418   5.994   1.016 -0.0880  0.5355  0.0771
16394TIP3    H170673   5.337   5.995   1.068 -0.9248  0.1651 -1.1856
16394TIP3    H270674   5.488   6.006   1.081 -1.1103  0.3033  1.2616
16395TIP3   OH270675   4.431   3.917   5.988 -0.3031 -0.2762 -0.8403
16395TIP3    H170676   4.422   3.981   5.917  1.7850  1.1096  0.0493
16395TIP3    H270677   4.382   3.954   6.061  1.9392  1.0579  0.0823
16396TIP3   OH270678   4.056   2.871  10.929 -0.8074 -0.2433 -0.2029
16396TIP3    H170679   4.101   2.952  10.955 -1.0249  0.9695 -3.1702
16396TIP3    H270680   3.966   2.884  10.958 -1.0204  1.0028 -1.3123
16397TIP3   OH270681   0.845   0.704   5.688 -0.1685 -0.2084 -0.1797
16397TIP3    H170682   0.787   0.695   5.613 -0.0637 -0.0376 -0.2802
16397TIP3    H270683   0.842   0.797   5.710 -0.1709 -0.2514  0.0049
16398TIP3   OH270684   5.652   1.021   2.189 -0.1310 -0.0620 -0.0591
16398TIP3    H170685   5.660   1.094   2.251 -0.0211 -0.6676  0.6500
16398TIP3    H270686   5.697   1.052   2.110 -0.0791  0.6349  0.2390
16399TIP3   OH270687   4.635   2.462  12.805  0.1056 -0.2811  0.6047
16399TIP3    H170688   4.698   2.519  12.849 -0.0405 -0.4565  1.0346
16399TIP3    H270689   4.550   2.485  12.842 -0.0816 -0.0962  0.0728
16400TIP3   OH270690   0.857   1.318   2.657  0.3119 -0.1704 -0.0371
16400TIP3    H170691   0.939   1.353   2.622  1.3491 -0.8139  1.6522
16400TIP3    H270692   0.868   1.223   2.653  0.3547 -0.2683  1.7272
16401TIP3   OH270693   0.580   4.764   5.197 -0.4608 -0.2921 -0.2550
16401TIP3    H170694   0.511   4.707   5.233 -0.6189 -1.3729 -2.1383
16401TIP3    H270695   0.631   4.706   5.141  0.7602  0.9603 -0.4706
16402TIP3   OH270696   3.500   1.800  15.991 -0.2199 -0.1312 -0.2780
16402TIP3    H170697   3.428   1.770  15.936  0.0654 -0.3895 -0.5140
16402TIP3    H270698   3.542   1.719  16.021  1.1104  0.0287 -1.6430
16403TIP3   OH270699   3.068   0.470   0.389 -0.2316 -0.3732  0.1398
16403TIP3    H170700   3.127   0.408   0.345  1.1306 -0.5203  2.0630
16403TIP3    H270701   2.982   0.452   0.351  0.6257 -1.3829 -1.4641
16404TIP3   OH270702   0.559   5.498   1.896  0.5981 -0.7080  0.0569
16404TIP3    H170703   0.550   5.470   1.805  0.5490 -1.0174  0.1531
16404TIP3    H270704   0.484   5.556   1.911  1.5114  0.6525 -0.5676
16405TIP3   OH270705   0.020   0.207   5.938  0.6544  0.1902  0.2432
16405TIP3    H170706   0.088   0.272   5.920  1.7607 -1.2150 -0.9781
16405TIP3    H270707  -0.032   0.205   5.857  0.2971 -0.0405  0.4776
16406TIP3   OH270708   6.011   1.100  15.686 -0.0762 -0.1753  0.4523
16406TIP3    H170709   5.926   1.132  15.658  0.7090  0.3394 -1.5001
16406TIP3    H270710   6.004   1.005  15.685 -1.0709 -0.1452  1.8765
16407TIP3   OH270711   3.590   5.602   4.503  0.4875 -0.1506  0.1486
16407TIP3    H170712   3.663   5.624   4.561  1.7895 -1.7899 -0.7779
16407TIP3    H270713   3.543   5.532   4.548 -0.0814  0.3886  0.4036
16408TIP3   OH270714   0.270   0.695   5.753  0.3722  0.3228  0.2856
16408TIP3    H170715   0.181   0.665   5.772  0.1520  2.4712  3.6211
16408TIP3    H270716   0.261   0.747   5.674 -1.3489  0.4342  0.5005
16409TIP3   OH270717   1.255   0.886  12.383 -0.4459 -0.3978 -0.3809
16409TIP3    H170718   1.273   0.965  12.332  3.0651 -0.8674 -0.1179
16409TIP3    H270719   1.303   0.817  12.337 -0.7169 -1.7128  1.2298
16410TIP3   OH270720   5.093   6.732   1.069 -0.3390  0.1529  0.2801
16410TIP3    H170721   5.133   6.662   1.018 -0.0514  2.3278 -2.8168
16410TIP3    H270722   5.017   6.692   1.109 -0.0440 -2.0018 -1.1290
16411TIP3   OH270723   6.469   1.045  10.556 -0.1474  0.5057  0.1649
16411TIP3    H170724   6.473   0.988  10.480  0.3400  2.1735 -1.1048
16411TIP3    H270725   6.560   1.060  10.581 -0.3072 -0.2405  1.2660
16412TIP3   OH270726   2.091   3.907   2.025  0.4723 -0.5225 -0.6064
16412TIP3    H170727   2.055   3.891   2.113  1.0077 -0.8811 -0.4433
16412TIP3    H270728   2.090   4.002   2.016 -0.4964 -0.5250 -0.6033
16413TIP3   OH270729   3.735   0.105  16.725  0.0649  0.1222  0.0342
16413TIP3    H170730   3.691   0.069  16.803  0.1777 -0.1373 -0.0188
16413TIP3    H270731   3.674   0.089  16.653 -1.3046  2.8442  0.4627
16414TIP3   OH270732   6.088   2.451  13.210  0.6983 -0.0144  0.1531
16414TIP3    H170733   6.167   2.420  13.253  1.9638  3.1640  0.4065
16414TIP3    H270734   6.090   2.546  13.221 -2.6995  0.2923 -0.6632
16415TIP3   OH270735   3.924   2.926  14.054  0.0758 -0.2635  0.7380
16415TIP3    H170736   4.001   2.941  14.108  0.2175 -0.4536  0.5904
16415TIP3    H270737   3.862   2.881  14.112  0.3876 -0.8497  0.6243
16416TIP3   OH270738   3.464   3.131  15.108  0.2860  0.7456 -0.0642
16416TIP3    H170739   3.527   3.086  15.164  1.0633  1.1737 -0.5738
16416TIP3    H270740   3.380   3.093  15.131  0.7277  0.1792  0.6508
16417TIP3   OH270741   2.626   1.012  14.400 -0.0959  0.0711  0.3468
16417TIP3    H170742   2.706   1.035  14.351 -0.8732  1.7508 -0.2071
16417TIP3    H270743   2.658   0.958  14.472  1.4297 -0.1029 -0.4026
16418TIP3   OH270744   3.442   5.399  14.387 -0.1669  0.4754  0.4839
16418TIP3    H170745   3.469   5.352  14.465  1.2731 -2.2029 -1.4518
16418TIP3    H270746   3.357   5.362  14.365 -0.4225  0.9929  0.5836
16419TIP3   OH270747   4.432   6.498   1.161 -0.3814  0.1660  0.1573
16419TIP3    H170748   4.515   6.543   1.173 -1.6348  2.6487  0.2976
16419TIP3    H270749   4.372   6.567   1.132 -2.2428 -1.6569 -0.5598
16420TIP3   OH270750   1.964   0.626   3.687 -0.1100 -0.3036  0.0966
16420TIP3    H170751   2.053   0.636   3.653 -0.4298  0.4354 -0.5486
16420TIP3    H270752   1.976   0.599   3.778  0.8090  2.0552  0.7296
16421TIP3   OH270753   6.273   5.900  11.242 -0.2510  0.1523 -0.4850
16421TIP3    H170754   6.206   5.863  11.299  0.3362  1.8072  1.4038
16421TIP3    H270755   6.318   5.964  11.297  1.6660  0.4202 -2.2498
16422TIP3   OH270756   2.547   0.697   2.638  0.1491  0.3226  1.0008
16422TIP3    H170757   2.512   0.766   2.694  1.0817  0.0672  1.9309
16422TIP3    H270758   2.615   0.740   2.586  0.1498  0.2920  0.9762
16423TIP3   OH270759   2.140   1.994   0.182 -0.8253  0.2086 -0.0326
16423TIP3    H170760   2.160   1.943   0.103 -2.9381  0.4548 -0.7929
16423TIP3    H270761   2.175   1.941   0.253 -1.4568 -1.5255 -0.9369
16424TIP3   OH270762   0.586   5.686  16.335 -0.4791 -0.5026  0.1300
16424TIP3    H170763   0.556   5.603  16.372 -0.5271  0.1062  1.5088
16424TIP3    H270764   0.512   5.719  16.285 -1.4729  0.0292  1.8665
16425TIP3   OH270765   4.557   5.675  13.623 -0.0489 -0.2018 -0.6733
16425TIP3    H170766   4.530   5.584  13.614  0.5344 -0.4752  0.2467
16425TIP3    H270767   4.597   5.680  13.710 -1.1033  1.1874 -0.2174
16426TIP3   OH270768   1.030   0.865  14.606  0.2860 -0.2768 -0.1011
16426TIP3    H170769   1.086   0.940  14.585 -1.0293  1.3265  1.7924
16426TIP3    H270770   1.092   0.797  14.633  1.4164  1.0649  0.8669
16427TIP3   OH270771   2.788   5.868   4.813 -0.0748  0.0230  0.0941
16427TIP3    H170772   2.876   5.852   4.780 -0.4730 -1.5116 -0.2975
16427TIP3    H270773   2.734   5.877   4.735 -0.4418 -0.1366  0.3250
16428TIP3   OH270774   1.171   3.067   0.043  0.5678  0.3425  0.4187
16428TIP3    H170775   1.240   3.024  -0.008  0.1500 -1.0873  1.0427
16428TIP3    H270776   1.175   3.026   0.129 -0.5237  0.8339  0.7172
16429TIP3   OH270777   2.164   4.618   5.263  0.9477 -0.4145 -0.1800
16429TIP3    H170778   2.081   4.666   5.255  0.8524  0.1075  2.9178
16429TIP3    H270779   2.151   4.540   5.208 -1.3479 -0.0495 -0.2690
16430TIP3   OH270780   4.340   2.364  16.728  0.3655 -0.0583  0.3130
16430TIP3    H170781   4.294   2.281  16.729 -1.4310  0.8742  1.5246
16430TIP3    H270782   4.319   2.404  16.813  2.2463  1.0750  0.3056
16431TIP3   OH270783   0.043   3.508  14.720  0.1115  0.0031 -0.8158
16431TIP3    H170784   0.085   3.554  14.793  1.1365  1.0753 -2.0362
16431TIP3    H270785   0.007   3.428  14.759 -1.7902  1.8052  1.4122
16432TIP3   OH270786   3.334   2.896  16.439 -0.9226 -0.1793 -0.3612
16432TIP3    H170787   3.415   2.845  16.445  0.6234  2.2508  1.0169
16432TIP3    H270788   3.314   2.896  16.345 -0.4351 -2.3473 -0.5416
16433TIP3   OH270789   2.319   2.287  14.924 -0.0050 -0.6062  0.4239
16433TIP3    H170790   2.412   2.266  14.928  0.4854  1.1310 -0.5841
16433TIP3    H270791   2.299   2.322  15.011  1.0842  1.8025 -0.2050
16434TIP3   OH270792   3.234   5.701   4.344  0.3947 -0.0965  0.1369
16434TIP3    H170793   3.296   5.632   4.321  0.5897 -0.1574  0.8278
16434TIP3    H270794   3.159   5.655   4.381 -0.3149 -0.0606 -1.1881
16435TIP3   OH270795   6.811   6.362  11.628 -0.3539  0.2163 -0.2807
16435TIP3    H170796   6.716   6.357  11.615 -0.6183  1.0352  1.1139
16435TIP3    H270797   6.843   6.415  11.555 -1.0563  0.4659 -0.4151
16436TIP3   OH270798   0.151   6.549  14.190  0.0624  0.0557 -0.5692
16436TIP3    H170799   0.229   6.496  14.207  0.4905  0.4667 -1.1891
16436TIP3    H270800   0.110   6.559  14.276  1.8929  1.6942  0.1996
16437TIP3   OH270801   3.822   5.590   0.114  0.3314 -0.1609  0.8074
16437TIP3    H170802   3.757   5.634   0.059 -0.6986 -0.3507  1.8479
16437TIP3    H270803   3.793   5.605   0.204  0.9542 -1.4060  1.2480
16438TIP3   OH270804   0.534   2.904   0.125 -0.1077  0.1293 -0.1578
16438TIP3    H170805   0.514   2.883   0.216 -0.3020  0.8987 -0.0216
16438TIP3    H270806   0.525   2.820   0.079 -1.0117 -0.0678  0.3576
16439TIP3   OH270807   2.952   4.978   3.499 -0.3966  0.4695 -0.3916
16439TIP3    H170808   2.891   4.958   3.570 -1.6067  2.5129 -0.7871
16439TIP3    H270809   2.969   5.072   3.508  0.6260  0.4571 -1.8936
16440TIP3   OH270810   3.949   0.701   4.898  0.3499 -0.1365  0.0023
16440TIP3    H170811   3.906   0.763   4.839 -1.2618  0.3813  1.6374
16440TIP3    H270812   3.968   0.752   4.976  1.2039 -1.1373  0.4661
16441TIP3   OH270813   2.768   2.588   5.149 -0.2650 -0.1580 -0.0501
16441TIP3    H170814   2.691   2.547   5.187 -0.0497 -1.3554 -0.8536
16441TIP3    H270815   2.794   2.654   5.213 -1.7551  0.0424  0.3826
16442TIP3   OH270816   0.997   1.887   5.892 -0.6178 -0.6248 -0.0977
16442TIP3    H170817   1.031   1.823   5.955  0.5982 -0.2730 -0.3758
16442TIP3    H270818   1.049   1.966   5.908  0.4392 -0.8318 -2.2223
16443TIP3   OH270819   1.334   4.519   4.479  0.2132  0.3764  0.1513
16443TIP3    H170820   1.348   4.424   4.473  2.3787  0.6021  0.9080
16443TIP3    H270821   1.357   4.540   4.569  0.4262  1.7192 -0.2039
16444TIP3   OH270822   3.945   1.702  16.133 -0.1884  0.1483  0.7389
16444TIP3    H170823   3.863   1.738  16.167 -0.1853 -1.4071  2.5594
16444TIP3    H270824   3.919   1.621  16.089  0.0476  1.2042 -1.4781
16445TIP3   OH270825   0.295   1.098  16.608  0.0348  0.8570 -0.7801
16445TIP3    H170826   0.269   1.179  16.650  2.0981  1.4314 -0.4874
16445TIP3    H270827   0.214   1.061  16.574 -1.0373  2.7115 -0.3671
16446TIP3   OH270828   4.142   1.778  15.229  0.0258 -0.0954  0.0312
16446TIP3    H170829   4.171   1.687  15.243  1.0307  0.3242  0.9110
16446TIP3    H270830   4.080   1.773  15.157 -0.8253 -1.6461  0.8014
16447TIP3   OH270831   3.247   2.822   3.728 -0.7225 -0.2170  0.3780
16447TIP3    H170832   3.227   2.820   3.821  1.9043 -0.7853  1.0252
16447TIP3    H270833   3.250   2.730   3.702  0.2719 -0.1388  0.1805
16448TIP3   OH270834   6.672   4.336   3.042 -0.0420  0.2223  0.2932
16448TIP3    H170835   6.590   4.385   3.044  0.1799  0.5805  2.1844
16448TIP3    H270836   6.659   4.270   2.974 -2.2689 -0.3605  1.2164
16449TIP3   OH270837   6.422   5.796   1.237  0.6733  0.0101 -0.0378
16449TIP3    H170838   6.466   5.769   1.318  0.2331  0.5629  0.3931
16449TIP3    H270839   6.444   5.727   1.174  0.2642 -0.9175  0.8040
16450TIP3   OH270840   5.052   1.557   5.158 -0.4722  0.0310 -0.1891
16450TIP3    H170841   4.993   1.623   5.195  0.6436  0.4540  0.9536
16450TIP3    H270842   5.136   1.603   5.151  0.0656 -0.9696 -0.4030
16451TIP3   OH270843   1.830   2.337  12.244  0.0456 -0.4563  0.7469
16451TIP3    H170844   1.766   2.400  12.276  0.1701  0.0129  0.0857
16451TIP3    H270845   1.910   2.388  12.231  0.0254 -0.6528 -0.2138
16452TIP3   OH270846   5.833   2.425   2.778  0.5080  0.4682 -0.2574
16452TIP3    H170847   5.802   2.385   2.859  2.3346 -0.6652 -0.0487
16452TIP3    H270848   5.828   2.354   2.713  1.0419  0.7359 -0.5998
16453TIP3   OH270849   4.125   0.265  12.535 -0.6364  0.1289 -0.0320
16453TIP3    H170850   4.157   0.213  12.462  1.0986  1.1689 -0.0879
16453TIP3    H270851   4.188   0.249  12.606 -1.4815  0.2272  0.7681
16454TIP3   OH270852   0.471   1.610  13.963 -0.8174 -0.0085  0.1886
16454TIP3    H170853   0.521   1.633  13.884 -0.6846 -0.4477  0.1379
16454TIP3    H270854   0.385   1.584  13.930 -0.3134 -1.6013  0.0267
16455TIP3   OH270855   5.617   6.253  15.054  0.4850  0.2966 -0.3627
16455TIP3    H170856   5.699   6.259  15.103  0.6466  2.3559 -0.7823
16455TIP3    H270857   5.640   6.203  14.976  2.1188  3.0845 -1.8085
16456TIP3   OH270858   3.536   3.361  17.062 -0.3393  0.4373 -0.1315
16456TIP3    H170859   3.603   3.421  17.028 -0.2571  1.1241  1.1760
16456TIP3    H270860   3.458   3.380  17.009 -0.4227  1.9958  0.4826
16457TIP3   OH270861   1.531   5.051   5.123  0.2101  0.0087  0.0814
16457TIP3    H170862   1.569   5.091   5.045  0.0662  0.3306  0.1747
16457TIP3    H270863   1.581   5.087   5.196 -0.9809  1.3117  0.2979
16458TIP3   OH270864   1.768   4.006   3.251  0.1330 -0.1896  0.0048
16458TIP3    H170865   1.800   4.091   3.281  1.0952 -0.4578 -0.2172
16458TIP3    H270866   1.734   4.024   3.163  0.5241 -0.0661 -0.1251
16459TIP3   OH270867   0.158   6.515   4.007 -0.3590 -0.0566 -0.0090
16459TIP3    H170868   0.078   6.556   4.039 -0.8674 -0.4204 -0.7633
16459TIP3    H270869   0.204   6.585   3.960  0.0456  0.2948  0.8976
16460TIP3   OH270870   5.369   1.619   4.870 -0.0186  0.0952  0.2006
16460TIP3    H170871   5.315   1.541   4.852  0.1769  0.0462 -0.1800
16460TIP3    H270872   5.315   1.672   4.927  0.1071 -0.6361  1.0231
16461TIP3   OH270873   3.014   6.593  13.465  0.4076 -0.0467  0.1427
16461TIP3    H170874   3.001   6.547  13.382  1.3588 -1.8037  0.8951
16461TIP3    H270875   3.031   6.684  13.440  1.7196 -0.7242 -1.6740
16462TIP3   OH270876   3.482   1.203  11.773 -0.0261 -0.3633  0.1760
16462TIP3    H170877   3.517   1.128  11.726 -1.0932  0.1008 -1.4287
16462TIP3    H270878   3.543   1.215  11.846  0.7774 -2.0968 -0.1424
16463TIP3   OH270879   2.131   2.255   0.373 -0.5215  0.4290 -0.2056
16463TIP3    H170880   2.135   2.233   0.466  2.5459  1.0017 -0.1198
16463TIP3    H270881   2.112   2.172   0.329  0.1739 -0.2710  0.7905
16464TIP3   OH270882   6.739   1.617  13.482 -0.7728  0.0028  0.8963
16464TIP3    H170883   6.816   1.568  13.452 -1.2110  0.0811 -0.4225
16464TIP3    H270884   6.724   1.586  13.571  0.0156 -0.9553  0.7162
16465TIP3   OH270885   1.242   1.113  16.627 -0.5318 -1.0099  0.0960
16465TIP3    H170886   1.307   1.078  16.688 -0.4449  0.4519  0.8923
16465TIP3    H270887   1.244   1.053  16.553  2.1114 -0.7787 -0.1325
16466TIP3   OH270888   3.348   0.803  11.640  0.3662  0.3619 -0.7360
16466TIP3    H170889   3.272   0.828  11.588 -0.4370  0.4928  0.4650
16466TIP3    H270890   3.357   0.709  11.626 -0.9137  0.0727  0.2224
16467TIP3   OH270891   2.414   3.696  16.769  0.6579  0.2868 -0.5820
16467TIP3    H170892   2.346   3.762  16.759  0.2014 -0.1123 -0.1080
16467TIP3    H270893   2.496   3.745  16.757  0.2947  0.7518 -1.2284
16468TIP3   OH270894   1.112   3.170   0.556  0.0712  0.6063 -0.5439
16468TIP3    H170895   1.136   3.107   0.624 -1.3065  1.3731  0.6942
16468TIP3    H270896   1.177   3.156   0.487  0.7939 -1.0100  0.4080
16469TIP3   OH270897   6.433   1.534   0.391 -0.6341  0.2275 -0.1347
16469TIP3    H170898   6.387   1.611   0.426 -1.4973 -1.0071  1.5608
16469TIP3    H270899   6.522   1.543   0.425 -1.0605 -0.1499  1.1129
16470TIP3   OH270900   6.403   4.679  12.745  0.2325 -0.0691  0.1683
16470TIP3    H170901   6.401   4.709  12.654 -0.5329 -1.2792 -0.2337
16470TIP3    H270902   6.329   4.723  12.787  1.6900  1.9775  0.7348
16471TIP3   OH270903   2.771   0.517   4.701  0.1231 -0.6173 -0.0992
16471TIP3    H170904   2.693   0.506   4.754  0.6461  1.2665  1.1666
16471TIP3    H270905   2.783   0.611   4.695  1.5375 -0.8370 -1.4365
16472TIP3   OH270906   2.425   1.063  13.869  0.0968 -0.3191  1.0810
16472TIP3    H170907   2.462   1.045  13.955  2.7137  2.0713  0.5774
16472TIP3    H270908   2.468   1.000  13.811  1.1599  0.4860  0.9744
16473TIP3   OH270909   4.631   3.915  17.226  0.1973 -0.1139  0.0696
16473TIP3    H170910   4.564   3.847  17.227 -0.8972  0.7688  4.4438
16473TIP3    H270911   4.713   3.869  17.242 -0.0288 -0.7069 -0.4394
16474TIP3   OH270912   6.804   6.765   6.033 -0.4166  0.3261 -0.4262
16474TIP3    H170913   6.794   6.731   5.944 -2.0742  0.3031 -0.2634
16474TIP3    H270914   6.822   6.858   6.022  1.9282 -0.1253 -0.8198
16475TIP3   OH270915   6.188   0.411  12.854  0.8360  0.8027 -0.7256
16475TIP3    H170916   6.154   0.451  12.934  1.9671 -0.0053  0.1903
16475TIP3    H270917   6.229   0.484  12.806  0.0583  1.3078 -0.6382
16476TIP3   OH270918   0.899   2.152  14.463 -0.3784 -0.4361 -0.0553
16476TIP3    H170919   0.973   2.125  14.518 -1.2828  1.2713  2.1402
16476TIP3    H270920   0.841   2.075  14.462 -0.8459 -0.1988  2.3733
16477TIP3   OH270921   0.223   6.505  11.764  0.2526 -0.6093 -0.4434
16477TIP3    H170922   0.169   6.475  11.691  0.0590  2.0159 -1.4909
16477TIP3    H270923   0.273   6.578  11.728  1.0870 -0.0232  1.7467
16478TIP3   OH270924   5.865   5.298  15.728  0.0691 -0.0479  0.4672
16478TIP3    H170925   5.899   5.341  15.806 -2.5245  1.2961  0.9592
16478TIP3    H270926   5.791   5.353  15.701 -0.1706 -1.4342 -1.9354
16479TIP3   OH270927   0.947   1.201  15.795 -0.7992  0.0839 -0.4195
16479TIP3    H170928   0.997   1.272  15.756  1.1057 -0.1612  1.3676
16479TIP3    H270929   0.889   1.244  15.858 -1.3397  0.2043 -0.9884
16480TIP3   OH270930   0.653   4.031  16.912  0.2114  0.0492  0.1571
16480TIP3    H170931   0.638   4.007  16.821  2.0013 -1.8465  0.2859
16480TIP3    H270932   0.717   3.967  16.943 -0.3651  0.6372  2.7589
16481TIP3   OH270933   2.417   5.622  13.829 -0.2703  0.4841  0.8339
16481TIP3    H170934   2.423   5.583  13.916  1.8846  0.8124  0.8747
16481TIP3    H270935   2.342   5.681  13.834 -1.3377 -0.8890  1.8633
16482TIP3   OH270936   4.181   5.310  13.501  0.8066  0.0394  0.1071
16482TIP3    H170937   4.117   5.267  13.444  0.3902  0.1852  0.4558
16482TIP3    H270938   4.138   5.391  13.529  0.3280 -0.7802  1.9230
16483TIP3   OH270939   6.771   4.317  11.890  0.0409  0.0390  0.0117
16483TIP3    H170940   6.741   4.388  11.834 -2.4416 -0.8558  0.1073
16483TIP3    H270941   6.858   4.296  11.857  0.7533  2.8871 -0.1956
16484TIP3   OH270942   0.848   0.165   2.586 -0.2178  0.5054  0.3909
16484TIP3    H170943   0.834   0.137   2.677 -0.8812 -1.9770 -0.4129
16484TIP3    H270944   0.761   0.193   2.557  0.2437  2.6490  0.8596
16485TIP3   OH270945   0.560   6.480   4.485  0.1213 -0.5301 -0.4953
16485TIP3    H170946   0.635   6.477   4.426  0.2394  0.1633 -0.3858
16485TIP3    H270947   0.486   6.456   4.430  0.2698 -0.1759 -0.8568
16486TIP3   OH270948   6.259   1.797   1.138  0.4478 -0.3343 -0.1663
16486TIP3    H170949   6.291   1.795   1.048  1.3351 -0.7481  0.1443
16486TIP3    H270950   6.186   1.859   1.136  1.4298  0.8461 -0.8671
16487TIP3   OH270951   3.827   1.313  10.368  0.7821 -0.4547 -0.0572
16487TIP3    H170952   3.827   1.306  10.464 -0.0437 -1.8013 -0.1273
16487TIP3    H270953   3.754   1.258  10.340 -0.2970  1.5540 -1.3921
16488TIP3   OH270954   3.705   0.206   6.240 -0.0781  0.1537  0.2919
16488TIP3    H170955   3.717   0.136   6.305 -0.4881  0.7596  1.0411
16488TIP3    H270956   3.708   0.287   6.292  2.2949  0.8460 -0.7688
16489TIP3   OH270957   1.226   4.267  16.542  0.1276 -0.1988 -0.3131
16489TIP3    H170958   1.208   4.180  16.506  0.1999 -0.6856  0.7913
16489TIP3    H270959   1.174   4.271  16.622  0.6256  0.5351 -0.0153
16490TIP3   OH270960   3.801   2.489   0.573 -0.2005 -0.0890  0.8201
16490TIP3    H170961   3.801   2.534   0.488  1.4820  0.8817  1.2833
16490TIP3    H270962   3.718   2.441   0.575 -1.1182  1.3411 -0.5872
16491TIP3   OH270963   5.077   0.003  16.621  0.3401 -0.1216  0.8954
16491TIP3    H170964   5.130   0.065  16.671  2.0235 -0.4615 -0.3829
16491TIP3    H270965   5.131  -0.076  16.615 -0.3150 -0.5060 -0.3944
16492TIP3   OH270966   0.866   5.934   5.763  0.6349 -0.3673 -0.3871
16492TIP3    H170967   0.906   6.016   5.791 -1.7549  0.5105  0.7169
16492TIP3    H270968   0.871   5.877   5.840 -2.8218  0.8532  0.9701
16493TIP3   OH270969   0.083   0.068  16.773 -0.0643 -0.2096  0.0514
16493TIP3    H170970   0.131  -0.004  16.814 -2.7657 -0.4117  3.2061
16493TIP3    H270971  -0.003   0.066  16.814 -1.5985  2.3864 -2.6846
16494TIP3   OH270972   0.794   1.512  13.825  0.5112  0.0312 -0.1367
16494TIP3    H170973   0.836   1.460  13.894  2.2356 -0.1202 -1.2382
16494TIP3    H270974   0.803   1.602  13.853  1.1012 -0.0371 -0.1027
16495TIP3   OH270975   6.232   1.130   4.244 -0.4943  0.0017 -0.5871
16495TIP3    H170976   6.304   1.178   4.285 -0.7451 -1.7300  2.1754
16495TIP3    H270977   6.273   1.051   4.208 -0.8610 -0.8694  0.7803
16496TIP3   OH270978   1.989   2.646   4.380 -0.5840  0.1976 -0.0846
16496TIP3    H170979   2.048   2.717   4.354 -0.5102  0.6311  1.1691
16496TIP3    H270980   2.039   2.566   4.366  0.8638  0.6079  2.1724
16497TIP3   OH270981   1.397   5.712   5.477  0.5121 -0.8098 -0.0155
16497TIP3    H170982   1.356   5.665   5.550  0.9248  0.1169  0.8413
16497TIP3    H270983   1.484   5.672   5.468  0.4035 -1.0269 -0.1027
16498TIP3   OH270984   0.594   0.510  14.707 -0.1999  0.0605  0.0511
16498TIP3    H170985   0.683   0.486  14.681  0.9299  3.3588  0.3967
16498TIP3    H270986   0.604   0.547  14.795 -2.2492 -1.1314  0.8542
16499TIP3   OH270987   2.909   1.158   3.071  0.2589 -0.1607 -0.7655
16499TIP3    H170988   2.909   1.063   3.065  0.5676 -0.2690  0.5831
16499TIP3    H270989   2.821   1.184   3.046  0.5097 -0.6999 -2.2838
16500TIP3   OH270990   2.436   0.707   1.771  0.0271 -0.2342 -0.2651
16500TIP3    H170991   2.479   0.659   1.701  1.3542  0.5790 -0.0448
16500TIP3    H270992   2.488   0.787   1.781  0.5538 -0.8138  2.3689
16501TIP3   OH270993   6.569   3.336   4.022  0.2917 -0.0759  0.4186
16501TIP3    H170994   6.544   3.244   4.032  4.1758 -1.2893  0.8069
16501TIP3    H270995   6.649   3.345   4.075  0.6132  3.3028 -0.3899
16502TIP3   OH270996   1.594   2.215  16.831  0.5832 -0.6577  0.7182
16502TIP3    H170997   1.640   2.286  16.875  0.0962 -0.0294  0.2295
16502TIP3    H270998   1.601   2.141  16.892  1.5384 -0.3504  1.0056
16503TIP3   OH270999   1.440   0.049   4.993  0.0548  0.1168 -0.4270
16503TIP3    H171000   1.415   0.133   4.953  0.7034 -0.0938 -1.2999
16503TIP3    H271001   1.360   0.020   5.038 -1.1495 -0.2541 -2.6375
16504TIP3   OH271002   2.693   0.312  15.395  0.4920 -0.0957 -0.3614
16504TIP3    H171003   2.636   0.360  15.336  0.9967  0.1370 -0.6625
16504TIP3    H271004   2.712   0.374  15.466  0.2414 -0.2299 -0.1722
16505TIP3   OH271005   1.814   5.387   5.789 -0.4453  0.3128 -0.0359
16505TIP3    H171006   1.760   5.463   5.770 -0.6134  0.1786 -0.1043
16505TIP3    H271007   1.752   5.314   5.791 -0.7445  0.5284  2.8576
16506TIP3   OH271008   3.319   6.709  12.117 -0.1321  0.0322 -0.3258
16506TIP3    H171009   3.407   6.674  12.105  0.4047  1.6214 -1.3099
16506TIP3    H271010   3.285   6.663  12.194  1.9873  0.1971  0.7806
16507TIP3   OH271011   1.181   5.923   2.416  0.1611  0.1583  0.4002
16507TIP3    H171012   1.200   5.847   2.361  2.2568  1.2282 -0.4415
16507TIP3    H271013   1.139   5.985   2.356  0.4680  0.4941  0.5294
16508TIP3   OH271014   5.926   0.039   1.590  0.0956 -0.1631  0.1024
16508TIP3    H171015   5.929   0.024   1.496 -0.1500  1.2291 -0.1430
16508TIP3    H271016   5.847  -0.008   1.619 -0.8618  0.9081 -0.6975
16509TIP3   OH271017   3.340   4.549  13.933  0.1240 -0.1791 -0.2332
16509TIP3    H171018   3.387   4.471  13.903 -1.7615 -0.7606 -1.9009
16509TIP3    H271019   3.383   4.622  13.888 -1.4464 -0.8610 -3.1245
16510TIP3   OH271020   0.419   3.615   1.813 -0.0374 -0.1185  0.0441
16510TIP3    H171021   0.370   3.654   1.885  1.7592  1.1376  0.6552
16510TIP3    H271022   0.375   3.646   1.734 -0.0605  1.2385  0.5631
16511TIP3   OH271023   3.644   1.298  15.748  0.2392 -0.4962 -0.0666
16511TIP3    H171024   3.717   1.346  15.787  0.8133 -0.8549 -0.6764
16511TIP3    H271025   3.682   1.214  15.722 -0.2464 -0.4564 -0.9368
16512TIP3   OH271026   0.452   1.723   5.587  0.2250  0.2520 -0.0930
16512TIP3    H171027   0.386   1.663   5.624 -0.1536  0.5934 -0.2158
16512TIP3    H271028   0.454   1.702   5.494 -0.2191  0.7239 -0.2113
16513TIP3   OH271029   2.106   5.688  12.339  0.3908 -0.3523 -0.2852
16513TIP3    H171030   2.193   5.718  12.367 -1.0265  2.5151  1.5128
16513TIP3    H271031   2.070   5.644  12.416 -0.3614 -0.0301 -0.4472
16514TIP3   OH271032   1.042   4.692  10.632 -0.9017  0.4328  0.1055
16514TIP3    H171033   1.051   4.611  10.682 -0.6956  1.2522  1.4372
16514TIP3    H271034   0.951   4.720  10.648 -1.0769  0.3003 -0.6245
16515TIP3   OH271035   0.720   3.092  11.692  0.4340  0.3547 -0.8648
16515TIP3    H171036   0.710   3.187  11.680 -0.5186  0.5569  1.1403
16515TIP3    H271037   0.696   3.055  11.607  1.4224  1.9231 -1.8708
16516TIP3   OH271038   2.154   3.471   6.244 -0.1589 -0.4142  0.0246
16516TIP3    H171039   2.196   3.396   6.204  1.5814  0.4841  0.0741
16516TIP3    H271040   2.215   3.500   6.312 -0.7349  1.0732 -0.0504
16517TIP3   OH271041   6.354   6.028  16.827 -0.4028 -0.5831  0.1550
16517TIP3    H171042   6.434   6.075  16.848 -0.4272 -0.0777 -0.7969
16517TIP3    H271043   6.285   6.075  16.874 -0.4144  0.3088 -0.7178
16518TIP3   OH271044   4.234   6.134   3.446 -0.2373 -0.0165  0.1615
16518TIP3    H171045   4.153   6.134   3.496 -0.0668  1.2589  0.4498
16518TIP3    H271046   4.205   6.126   3.355 -0.6986  0.5522  0.2513
16519TIP3   OH271047   1.021   3.270  16.357 -0.2634 -0.6178 -0.3039
16519TIP3    H171048   1.035   3.324  16.279 -2.1093  2.3797  1.2130
16519TIP3    H271049   1.089   3.298  16.418 -1.7479  0.7895  0.8027
16520TIP3   OH271050   3.852   1.704   1.852 -0.1638  0.2153 -0.1803
16520TIP3    H171051   3.931   1.731   1.805 -0.0633  0.3779  0.0797
16520TIP3    H271052   3.802   1.785   1.863  0.4951  0.4567  1.2852
16521TIP3   OH271053   3.843   4.287  16.374  0.0019  0.5619 -0.6765
16521TIP3    H171054   3.858   4.319  16.285  2.3892 -0.3170 -0.6825
16521TIP3    H271055   3.823   4.194  16.363 -1.3510  0.7907 -0.3535
16522TIP3   OH271056   1.833   3.902  14.627 -0.3502 -0.5485  0.2006
16522TIP3    H171057   1.876   3.978  14.665 -0.2617 -0.4026 -0.1908
16522TIP3    H271058   1.740   3.923  14.627 -0.2042  0.2717 -1.4483
16523TIP3   OH271059   6.284   1.282   4.920 -0.3860  0.2888  0.5960
16523TIP3    H171060   6.367   1.273   4.872 -0.0438 -0.2579  1.2690
16523TIP3    H271061   6.288   1.213   4.987 -1.0720  0.7229  1.0894
16524TIP3   OH271062   3.278   5.492   6.241  0.5120  0.1399 -0.0556
16524TIP3    H171063   3.319   5.440   6.310  1.2161 -1.0655 -1.3325
16524TIP3    H271064   3.341   5.491   6.169  0.7204  3.0812 -0.0547
16525TIP3   OH271065   5.616   5.866   0.837 -0.4634  0.2672 -0.1861
16525TIP3    H171066   5.581   5.778   0.823 -0.9149  0.6484 -1.6776
16525TIP3    H271067   5.547   5.912   0.885 -1.0622  0.3427 -1.0894
16526TIP3   OH271068   0.868   0.323  14.738  0.0228  0.1060  0.0553
16526TIP3    H171069   0.912   0.240  14.755 -1.3989 -0.9940 -1.2914
16526TIP3    H271070   0.864   0.367  14.823  1.1102 -1.0459  0.7202
16527TIP3   OH271071   3.743   6.739  13.222  0.4288  0.2542 -0.7605
16527TIP3    H171072   3.705   6.819  13.258  0.4215 -0.5640  1.1640
16527TIP3    H271073   3.670   6.693  13.181  0.2962  0.8873 -1.2438
16528TIP3   OH271074   1.896   1.585  11.770  0.4764  0.3063 -0.5096
16528TIP3    H171075   1.931   1.601  11.857 -0.2179  1.6768 -0.4591
16528TIP3    H271076   1.878   1.491  11.768 -1.4935  0.5552  1.6049
16529TIP3   OH271077   2.627   3.396   4.189 -0.9585 -0.5569 -0.0718
16529TIP3    H171078   2.532   3.393   4.186 -0.9673 -0.7617  0.3038
16529TIP3    H271079   2.655   3.316   4.144 -1.0138 -1.6193  1.6910
16530TIP3   OH271080   5.352   0.935  10.845 -0.2801 -0.0109  0.5103
16530TIP3    H171081   5.284   0.870  10.832  0.0605 -0.7679  2.2145
16530TIP3    H271082   5.386   0.953  10.757  0.0702 -2.6460  0.0241
16531TIP3   OH271083   3.362   1.837  17.019 -0.0208 -0.2860  0.4022
16531TIP3    H171084   3.457   1.846  17.022 -0.1439  1.0750  0.6298
16531TIP3    H271085   3.342   1.773  17.088  0.7149 -0.5664  0.3646
16532TIP3   OH271086   2.875   6.049  13.584 -0.8083  0.3012 -0.3406
16532TIP3    H171087   2.854   5.996  13.661  1.7545  0.9352  0.9278
16532TIP3    H271088   2.922   5.989  13.526 -1.9230  0.0593 -1.0065
16533TIP3   OH271089   4.538   3.379  11.475  0.6572 -0.1499  0.3577
16533TIP3    H171090   4.585   3.311  11.522 -1.5213 -0.6400  1.9850
16533TIP3    H271091   4.456   3.389  11.522 -1.3707 -0.0804 -2.8544
16534TIP3   OH271092   0.563   0.296   1.134 -0.0536 -0.2177 -0.0171
16534TIP3    H171093   0.528   0.378   1.100  1.1617  0.5426  0.4672
16534TIP3    H271094   0.525   0.228   1.079 -1.1825  0.6577 -0.3536
16535TIP3   OH271095   0.306   0.190  15.987  0.5560  0.6552  0.3105
16535TIP3    H171096   0.237   0.124  15.995  0.4659  0.4336 -1.7517
16535TIP3    H271097   0.258   0.272  15.973  0.6621  0.5006 -1.1247
16536TIP3   OH271098   2.928   2.164   0.877 -0.0735 -0.3290 -0.0796
16536TIP3    H171099   3.018   2.192   0.895 -0.3576  0.0145  0.8157
16536TIP3    H271100   2.928   2.070   0.898  0.6133 -0.8532 -2.1305
16537TIP3   OH271101   0.371   6.483   2.307  0.2663 -0.1956  0.2794
16537TIP3    H171102   0.386   6.389   2.303  0.6966 -0.0993 -0.7184
16537TIP3    H271103   0.459   6.520   2.320  0.5564  0.2065 -2.3753
16538TIP3   OH271104   2.677   2.567   0.109  0.1663  0.5034 -0.5155
16538TIP3    H171105   2.720   2.490   0.147 -0.6057  0.4889  0.3578
16538TIP3    H271106   2.617   2.531   0.044  0.7857  0.4654 -1.0787
16539TIP3   OH271107   1.369   0.241   5.305  0.3420 -0.0335 -0.2263
16539TIP3    H171108   1.464   0.228   5.300  0.6066  1.7002 -0.2518
16539TIP3    H271109   1.359   0.319   5.359 -1.1106 -0.5491  0.2722
16540TIP3   OH271110   0.620   0.221   3.381 -0.1958 -0.0421  0.4288
16540TIP3    H171111   0.575   0.305   3.393  1.2622  1.1122 -1.6266
16540TIP3    H271112   0.708   0.237   3.416  2.0203  1.3379 -4.8138
16541TIP3   OH271113   6.748   6.021   4.040 -0.7634 -0.3897  0.5206
16541TIP3    H171114   6.778   6.103   4.001  0.9285 -1.6608 -0.9980
16541TIP3    H271115   6.771   6.029   4.133  0.7625  0.2817  0.1237
16542TIP3   OH271116   4.895   2.642  16.994  0.4481  0.2945  0.2699
16542TIP3    H171117   4.965   2.612  17.052  0.6015 -0.5577 -0.3377
16542TIP3    H271118   4.934   2.716  16.946  1.3434 -0.8512 -0.8576
16543TIP3   OH271119   0.926   0.511   4.423 -0.1250 -0.2145  0.2778
16543TIP3    H171120   0.911   0.472   4.509 -1.7529 -0.5274 -0.1285
16543TIP3    H271121   0.886   0.598   4.429 -1.0663 -0.5872 -0.4381
16544TIP3   OH271122   5.829   0.450  11.548  0.3177 -0.0688  0.0449
16544TIP3    H171123   5.869   0.413  11.627  1.3703  0.8184 -0.0566
16544TIP3    H271124   5.769   0.381  11.518  1.3529 -1.2216  0.5164
16545TIP3   OH271125   1.587   2.597   4.317 -0.0709  0.3446  0.1660
16545TIP3    H171126   1.532   2.636   4.385 -0.5459 -0.2593  0.1316
16545TIP3    H271127   1.676   2.622   4.341 -0.2524  0.3346  0.8714
16546TIP3   OH271128   3.045   1.512   1.315 -0.1925 -0.1972  0.5286
16546TIP3    H171129   3.137   1.488   1.331  0.2237  0.6907 -0.4076
16546TIP3    H271130   2.995   1.436   1.345  0.8074 -0.4999  1.5231
16547TIP3   OH271131   4.645   0.532   2.997  0.2876  0.0383 -0.5134
16547TIP3    H171132   4.619   0.441   3.013  0.1163 -0.1838 -1.9017
16547TIP3    H271133   4.618   0.548   2.906  2.5270  0.6856 -1.1092
16548TIP3   OH271134   6.402   1.834   3.284 -0.0479  0.0939 -0.5526
16548TIP3    H171135   6.348   1.910   3.263 -0.7247 -0.2460 -0.0387
16548TIP3    H271136   6.361   1.794   3.360  1.0718 -0.0200  0.0219
16549TIP3   OH271137   1.956   1.858  11.886 -0.2076  0.0868 -0.0758
16549TIP3    H171138   2.018   1.836  11.816 -1.0348 -1.3247 -0.4078
16549TIP3    H271139   1.946   1.953  11.880  2.1021  0.3958  0.1675
16550TIP3   OH271140   4.284   2.299   2.377 -0.0841 -0.1605  0.1068
16550TIP3    H171141   4.262   2.318   2.468  2.0390  0.4682  0.5417
16550TIP3    H271142   4.308   2.207   2.377 -0.7502 -0.3408  0.0212
16551TIP3   OH271143   4.425   6.153   4.566 -0.3732  0.2367  0.4262
16551TIP3    H171144   4.454   6.081   4.624 -1.7169 -0.0138  0.8196
16551TIP3    H271145   4.342   6.122   4.529 -0.0285  0.8175 -0.8863
16552TIP3   OH271146   3.584   5.988  14.014 -0.7216  0.1938  0.2458
16552TIP3    H171147   3.537   5.912  13.980 -0.7659  0.6395 -0.7219
16552TIP3    H271148   3.550   5.998  14.103 -3.5025  1.2589 -0.8138
16553TIP3   OH271149   2.272   2.063  14.387 -0.1289  0.0325 -0.4251
16553TIP3    H171150   2.208   2.028  14.326 -0.6655 -0.8561  0.6204
16553TIP3    H271151   2.356   2.052  14.342 -0.4975 -0.7575 -0.9377
16554TIP3   OH271152   0.947   3.326  13.468 -0.0545 -0.0982  0.2469
16554TIP3    H171153   0.867   3.309  13.417  0.0444 -2.7452  0.8136
16554TIP3    H271154   0.917   3.379  13.542 -1.4524 -1.4132  0.6884
16555TIP3   OH271155   1.720   2.832   5.512  0.4806  0.3635 -0.1370
16555TIP3    H171156   1.687   2.748   5.543  0.8789  0.3986  0.4023
16555TIP3    H271157   1.774   2.812   5.436 -0.1088  0.2229 -0.5260
16556TIP3   OH271158   6.769   1.429   3.815 -0.2882 -0.0359  0.0026
16556TIP3    H171159   6.782   1.511   3.768  0.7699  0.5477  1.2415
16556TIP3    H271160   6.681   1.437   3.853  0.6209  1.5469  1.9471
16557TIP3   OH271161   6.816   3.552   5.950  0.0465  0.2176 -0.1043
16557TIP3    H171162   6.740   3.553   5.891 -0.5558  1.0512  0.6637
16557TIP3    H271163   6.822   3.461   5.979 -1.3371  0.3279  0.6453
16558TIP3   OH271164   4.130   2.845   0.748 -0.1856 -0.2624  0.6975
16558TIP3    H171165   4.131   2.752   0.771 -0.5964 -0.3329  0.4427
16558TIP3    H271166   4.205   2.855   0.690  0.3819 -0.2473  1.4254
16559TIP3   OH271167   1.981   3.659   1.765 -0.4196 -0.3736  0.1102
16559TIP3    H171168   1.899   3.707   1.773  0.0379  0.5861 -0.7393
16559TIP3    H271169   1.957   3.573   1.731 -1.0125  0.1462 -0.8162
16560TIP3   OH271170   6.207   5.836   3.683  0.6539 -0.0838  0.2965
16560TIP3    H171171   6.134   5.821   3.743  1.2684  0.6868  1.2759
16560TIP3    H271172   6.183   5.789   3.603 -0.6986 -0.2143  0.7552
16561TIP3   OH271173   0.415   1.026  11.793  0.5943 -0.3865  0.3655
16561TIP3    H171174   0.452   0.956  11.847 -0.0828 -0.6213  0.5332
16561TIP3    H271175   0.458   1.105  11.824 -0.2700 -0.4137  1.7464
16562TIP3   OH271176   1.350   3.606  13.115 -0.2857  0.5217 -0.2054
16562TIP3    H171177   1.370   3.516  13.140  0.8776  0.6823 -0.4744
16562TIP3    H271178   1.363   3.608  13.020  0.8475  1.2230 -0.0608
16563TIP3   OH271179   4.821   1.282  16.083 -0.3694  0.1389 -0.5448
16563TIP3    H171180   4.804   1.193  16.052 -0.9409  0.2712 -0.6230
16563TIP3    H271181   4.860   1.269  16.170  2.6574 -0.2873 -1.8326
16564TIP3   OH271182   2.130   0.773  13.425 -0.0191 -0.1148  0.1344
16564TIP3    H171183   2.150   0.710  13.356  0.1487  0.0391  0.0449
16564TIP3    H271184   2.109   0.854  13.379  1.0018  0.2508  0.2877
16565TIP3   OH271185   4.673   2.504   5.717 -0.0109  0.4804  0.0216
16565TIP3    H171186   4.672   2.599   5.729  0.0930  0.2867  1.7076
16565TIP3    H271187   4.749   2.488   5.661  0.7656  1.2909  0.7997
16566TIP3   OH271188   1.325   3.744   6.705 -0.6303  0.0989  0.1387
16566TIP3    H171189   1.304   3.766   6.614 -2.6189 -0.3683  0.4388
16566TIP3    H271190   1.402   3.797   6.725 -0.7031  0.9096 -1.5197
16567TIP3   OH271191   0.407   1.215   5.200  0.0814  0.5139 -0.2289
16567TIP3    H171192   0.320   1.178   5.215  0.9449 -1.6332 -0.1129
16567TIP3    H271193   0.423   1.270   5.277 -0.5835 -0.3220  0.5380
16568TIP3   OH271194   4.873   3.141  11.294  0.0191  0.3466  0.1217
16568TIP3    H171195   4.819   3.072  11.331 -0.4150  0.4931 -0.2374
16568TIP3    H271196   4.922   3.176  11.369  1.4225 -1.3707  0.0864
16569TIP3   OH271197   5.118   0.201   2.608  0.0063 -0.1861 -0.5638
16569TIP3    H171198   5.085   0.251   2.683  2.8141 -0.1321  0.7557
16569TIP3    H271199   5.128   0.266   2.538 -1.5466 -0.0213 -0.6725
16570TIP3   OH271200   3.395   4.976   2.256 -0.2759  0.1263 -0.0226
16570TIP3    H171201   3.363   5.067   2.253 -0.0603  0.1943 -0.3348
16570TIP3    H271202   3.329   4.926   2.207 -0.3480  0.1289  0.0717
16571TIP3   OH271203   6.310   2.886   0.259  0.0705  0.0564  0.1379
16571TIP3    H171204   6.259   2.966   0.242  1.7802  0.6577 -2.9031
16571TIP3    H271205   6.272   2.820   0.202  0.5020 -0.4748  0.4534
16572TIP3   OH271206   2.692   3.590   1.587  0.3265 -0.8424 -0.6870
16572TIP3    H171207   2.747   3.594   1.509  0.9963  0.6898 -0.1745
16572TIP3    H271208   2.632   3.517   1.571 -0.0053 -0.1504 -2.9176
16573TIP3   OH271209   2.815   4.336   4.079 -0.1238 -0.1526  0.4965
16573TIP3    H171210   2.833   4.425   4.050 -0.1138  0.0929  1.2225
16573TIP3    H271211   2.720   4.326   4.072 -0.1344 -0.0530  0.5039
16574TIP3   OH271212   2.889   1.013   4.584  0.3929 -0.9128  0.4420
16574TIP3    H171213   2.905   0.997   4.491  0.6846 -1.5767  0.6025
16574TIP3    H271214   2.827   1.086   4.586  1.2617 -0.1413 -0.2485
16575TIP3   OH271215   3.417   3.537   0.519 -0.2327  0.6433  0.1862
16575TIP3    H171216   3.393   3.629   0.531 -1.0893  0.6559 -1.4102
16575TIP3    H271217   3.339   3.488   0.546 -0.0763  0.4250  0.2440
16576TIP3   OH271218   0.115   3.399   5.692  0.3466 -0.3038  0.2905
16576TIP3    H171219   0.049   3.385   5.760  0.4671  0.7990  0.6428
16576TIP3    H271220   0.110   3.492   5.672  1.3234 -0.3409 -0.1744
16577TIP3   OH271221   6.757   0.948  15.228 -0.6951 -0.5189  0.2515
16577TIP3    H171222   6.741   0.901  15.309  0.1242  0.0478  0.7531
16577TIP3    H271223   6.781   1.036  15.255  2.2882 -1.0099 -0.4348
16578TIP3   OH271224   3.785   6.090  12.237  0.2050  0.3191 -0.0804
16578TIP3    H171225   3.740   6.135  12.309 -1.2054  0.5418 -1.0803
16578TIP3    H271226   3.871   6.133  12.233  0.8362 -0.5518  2.2765
16579TIP3   OH271227   2.358   1.427  12.091 -0.1636  0.4495  0.0456
16579TIP3    H171228   2.452   1.424  12.074 -0.2537 -1.4393 -0.3418
16579TIP3    H271229   2.330   1.336  12.086 -2.1360  1.0331 -0.4707
16580TIP3   OH271230   1.794   6.241  14.365  0.5293 -0.1237 -0.5907
16580TIP3    H171231   1.770   6.191  14.443 -0.2042 -0.2078 -0.8635
16580TIP3    H271232   1.712   6.281  14.336  1.1133  1.3739 -0.2928
16581TIP3   OH271233   6.605   4.462  16.383 -0.0998  0.0913 -0.9878
16581TIP3    H171234   6.516   4.495  16.396 -0.6360 -1.4494 -0.4527
16581TIP3    H271235   6.646   4.469  16.469  0.4475  1.1730 -1.3257
16582TIP3   OH271236   1.469   2.107  14.610  0.4859  0.1077 -0.0511
16582TIP3    H171237   1.506   2.061  14.685  1.4793 -0.2239 -0.7236
16582TIP3    H271238   1.518   2.190  14.606 -0.9036  1.0221  0.8139
16583TIP3   OH271239   5.372   0.291  12.855 -0.2623  0.6648 -0.0453
16583TIP3    H171240   5.388   0.210  12.808  0.0981  0.5230  0.3163
16583TIP3    H271241   5.401   0.274  12.944 -1.0207  0.9016  0.2597
16584TIP3   OH271242   2.098   4.655  15.594 -0.5935  0.1633  0.5423
16584TIP3    H171243   2.184   4.618  15.576 -0.4102  0.5395  0.6257
16584TIP3    H271244   2.061   4.598  15.663 -0.0368  0.5306  1.1527
16585TIP3   OH271245   2.493   4.183   2.600 -0.0437 -0.1621  0.2353
16585TIP3    H171246   2.513   4.275   2.617 -0.4025 -0.4007  2.1426
16585TIP3    H271247   2.472   4.146   2.686  1.7984 -2.4435 -0.1723
16586TIP3   OH271248   4.628   1.082  17.294  0.5727 -0.1276  0.3278
16586TIP3    H171249   4.664   0.995  17.278  1.3714  0.0335  1.1464
16586TIP3    H271250   4.561   1.068  17.361  1.0539 -0.0538  0.8321
16587TIP3   OH271251   3.888   1.001  14.291  0.0253 -0.2974 -0.4663
16587TIP3    H171252   3.825   1.028  14.358 -0.3096 -0.6808 -0.6157
16587TIP3    H271253   3.967   1.052  14.309  0.0081 -0.5395  0.3406
16588TIP3   OH271254   4.656   4.783   0.725  0.8254  0.0160 -0.2663
16588TIP3    H171255   4.669   4.707   0.782  1.2782 -0.0757 -0.4800
16588TIP3    H271256   4.744   4.802   0.692  0.8278  1.0231  0.2727
16589TIP3   OH271257   5.988   2.887  16.465  0.4301 -0.3813  0.0475
16589TIP3    H171258   6.035   2.952  16.412 -1.5667  0.5554 -0.6542
16589TIP3    H271259   5.921   2.852  16.407  0.0439 -1.4720  1.1098
16590TIP3   OH271260   6.253   0.500   1.941  0.3009  0.0659 -0.3011
16590TIP3    H171261   6.264   0.489   2.035 -1.5852 -0.3605 -0.0934
16590TIP3    H271262   6.273   0.593   1.925  0.3036  0.2205  0.5748
16591TIP3   OH271263   1.663   5.114  11.526 -0.6405 -0.0211 -0.0299
16591TIP3    H171264   1.674   5.189  11.584 -4.6402  0.6689  0.1197
16591TIP3    H271265   1.640   5.151  11.441  0.1049 -1.0882 -0.7325
16592TIP3   OH271266   0.581   1.474  16.413  0.3267 -0.0648  0.1508
16592TIP3    H171267   0.510   1.436  16.465 -1.0725  1.9519 -0.1611
16592TIP3    H271268   0.653   1.412  16.421 -1.3947 -2.0872  0.6679
16593TIP3   OH271269   0.291   2.512  12.549 -0.3218 -0.4247  0.0334
16593TIP3    H171270   0.359   2.558  12.500 -0.0317  2.6293  2.9314
16593TIP3    H271271   0.209   2.556  12.524 -0.3939 -0.0276  0.9280
16594TIP3   OH271272   5.099   1.107   2.651 -0.3560  0.1039  0.7159
16594TIP3    H171273   5.175   1.106   2.593 -0.0857  0.4750  1.0601
16594TIP3    H271274   5.106   1.190   2.698 -1.3859  0.4968  0.2071
16595TIP3   OH271275   0.071   2.501  15.265  0.6169 -0.1515 -0.2799
16595TIP3    H171276   0.067   2.414  15.225  0.4877 -0.5700  0.6181
16595TIP3    H271277   0.143   2.545  15.220  0.3600 -0.5404 -1.0884
16596TIP3   OH271278   0.722   4.412  16.796  0.4518 -0.6722 -0.4586
16596TIP3    H171279   0.723   4.337  16.736 -0.8694 -1.1038  0.0139
16596TIP3    H271280   0.655   4.470  16.760  1.7835  0.5382 -1.0798
16597TIP3   OH271281   0.492   6.184  12.156  0.3291  0.3556 -0.8404
16597TIP3    H171282   0.462   6.093  12.161  2.7207 -0.4480  0.7161
16597TIP3    H271283   0.489   6.205  12.063 -0.9767 -1.0298 -1.1676
16598TIP3   OH271284   6.548   2.085  12.443  0.9813 -0.8593  0.2571
16598TIP3    H171285   6.585   2.085  12.355  0.4972 -0.2688  0.0509
16598TIP3    H271286   6.564   2.173  12.476 -1.2812 -0.1789 -0.2946
16599TIP3   OH271287   1.575   1.099  14.832  0.3165  0.1282 -0.0633
16599TIP3    H171288   1.631   1.102  14.755  2.4959  0.7490  1.4590
16599TIP3    H271289   1.492   1.137  14.803  0.8901 -0.1292 -2.2066
16600TIP3   OH271290   3.046   4.006  12.030 -0.5959  0.0002  0.0582
16600TIP3    H171291   3.010   4.025  11.944  1.0777 -1.6077 -1.0670
16600TIP3    H271292   3.074   3.915  12.025 -1.0993 -0.3915  2.5613
16601TIP3   OH271293   1.695   5.836  17.062  0.2012 -0.6154 -0.9367
16601TIP3    H171294   1.674   5.928  17.048  2.4582  0.2395  0.6905
16601TIP3    H271295   1.681   5.822  17.156  4.4015 -0.4551 -0.0765
16602TIP3   OH271296   5.454   4.216  13.625  0.0078 -0.1496 -0.7103
16602TIP3    H171297   5.501   4.133  13.633  0.7645  0.3531  0.3075
16602TIP3    H271298   5.372   4.201  13.673  1.1917  0.3986  1.6630
16603TIP3   OH271299   6.083   6.589   3.219 -0.7395 -0.1864  0.4828
16603TIP3    H171300   6.170   6.565   3.252 -1.0296  0.4078  1.7561
16603TIP3    H271301   6.083   6.561   3.128  0.6109 -0.6484  0.6036
16604TIP3   OH271302   5.939   4.514   1.459 -0.2311  0.2582 -0.6085
16604TIP3    H171303   5.972   4.584   1.403 -1.6157 -0.2221 -2.0716
16604TIP3    H271304   5.977   4.434   1.424  0.1082  0.0957  0.1044
16605TIP3   OH271305   1.014   5.021  17.189 -0.1214 -0.3125  0.1632
16605TIP3    H171306   0.981   5.073  17.262  0.0359 -0.4741  0.3500
16605TIP3    H271307   1.109   5.017  17.204 -0.0130  0.1345 -0.3542
16606TIP3   OH271308   5.993   1.962  15.055 -0.3047  0.0431 -0.3386
16606TIP3    H171309   6.012   1.966  15.149  1.4015  1.3797 -0.7002
16606TIP3    H271310   5.908   1.919  15.050 -0.5467  0.1617  1.8435
16607TIP3   OH271311   1.900   0.316  11.592 -0.5164  0.3928 -0.3228
16607TIP3    H171312   1.832   0.253  11.617  1.0605 -0.3811  2.5447
16607TIP3    H271313   1.976   0.262  11.572 -0.0518  1.3077 -1.0634
16608TIP3   OH271314   0.715   1.080  12.266 -0.3190  0.3167  0.0406
16608TIP3    H171315   0.665   1.055  12.189  1.2093 -2.1428 -0.2712
16608TIP3    H271316   0.805   1.088  12.235  0.7179 -2.7979  1.7668
16609TIP3   OH271317   1.385   6.315  12.906 -0.9093  0.4119 -0.6440
16609TIP3    H171318   1.472   6.276  12.912 -0.4320  1.5980  0.7132
16609TIP3    H271319   1.326   6.241  12.891 -0.2104 -1.1673  3.2112
16610TIP3   OH271320   3.254   1.052   4.309 -0.4084 -0.1089 -0.2292
16610TIP3    H171321   3.236   0.968   4.350 -0.3699  0.2185  0.4705
16610TIP3    H271322   3.329   1.087   4.356 -1.6776  1.2330  0.8854
16611TIP3   OH271323   3.305   4.797  16.439  0.0727 -0.2181  0.7624
16611TIP3    H171324   3.298   4.871  16.499 -2.1004 -1.3864  2.0967
16611TIP3    H271325   3.264   4.724  16.486 -0.9416 -1.4218 -1.7774
16612TIP3   OH271326   0.543   0.412   1.786  0.5749 -0.1055  0.2567
16612TIP3    H171327   0.587   0.364   1.717  0.7229 -2.1944  1.6976
16612TIP3    H271328   0.609   0.421   1.855  0.1227  0.9636  0.5669
16613TIP3   OH271329   0.706   0.266  12.691 -0.0233 -0.2660  0.2984
16613TIP3    H171330   0.688   0.210  12.616  1.6065  0.0998 -0.3914
16613TIP3    H271331   0.747   0.208  12.755 -2.1818 -0.7829  1.3304
16614TIP3   OH271332   2.686   4.650   5.932  0.3051 -0.1667 -0.1540
16614TIP3    H171333   2.715   4.583   5.995  1.0068  0.1520 -0.1269
16614TIP3    H271334   2.659   4.600   5.855  0.0365 -0.5265  0.1689
16615TIP3   OH271335   5.572   4.925   4.519  0.6013  0.4143  0.6660
16615TIP3    H171336   5.564   4.972   4.602  2.2599  1.9171  0.0340
16615TIP3    H271337   5.535   4.986   4.454  1.5066  0.2672  0.0056
16616TIP3   OH271338   6.512   0.666   5.633 -0.5681  0.5262 -0.0689
16616TIP3    H171339   6.574   0.619   5.577  1.0424  2.0950  0.3089
16616TIP3    H271340   6.454   0.598   5.666  0.3314 -0.8737 -1.2372
16617TIP3   OH271341   4.134   6.226   5.621  0.4653 -0.2820  0.7305
16617TIP3    H171342   4.122   6.142   5.664 -0.0029 -1.1783 -1.0630
16617TIP3    H271343   4.046   6.252   5.594  0.3464  1.6422  2.6894
16618TIP3   OH271344   4.285   2.901   4.483  0.0838  0.5903 -0.4931
16618TIP3    H171345   4.221   2.877   4.416 -1.1434 -0.1091  0.8748
16618TIP3    H271346   4.233   2.937   4.554  1.3991  1.7036 -0.0633
16619TIP3   OH271347   3.802   4.757   1.319 -0.0772 -0.4384  0.0914
16619TIP3    H171348   3.736   4.755   1.250 -1.4019 -0.4703  1.3022
16619TIP3    H271349   3.757   4.796   1.394  1.3361 -0.3319  0.9156
16620TIP3   OH271350   1.311   1.512   4.313  0.0775  0.4706 -0.9317
16620TIP3    H171351   1.229   1.521   4.361  1.1622 -1.4215  1.4192
16620TIP3    H271352   1.346   1.601   4.309  0.4960  0.6572  2.9790
16621TIP3   OH271353   4.765   3.088   0.803  0.0274 -0.1786 -0.6601
16621TIP3    H171354   4.748   3.016   0.742 -1.6953  0.3271 -0.8442
16621TIP3    H271355   4.802   3.046   0.880 -1.6153 -1.4047 -0.4759
16622TIP3   OH271356   0.430   1.892  14.070  0.2582  0.2835  0.3141
16622TIP3    H171357   0.429   1.800  14.095  0.0948 -0.1501 -1.1464
16622TIP3    H271358   0.352   1.903  14.016  2.8949 -0.2225 -4.2034
16623TIP3   OH271359   1.730   6.371   5.720  0.2860  0.4266 -0.2281
16623TIP3    H171360   1.722   6.276   5.729 -1.0093  0.2775 -2.2467
16623TIP3    H271361   1.656   6.395   5.664  0.6074  2.6301  0.2277
16624TIP3   OH271362   2.656   0.275  14.021 -0.5539  0.2406  0.3371
16624TIP3    H171363   2.624   0.200  14.072 -0.8110  0.4359  0.4624
16624TIP3    H271364   2.748   0.282  14.044 -0.0484 -1.1661 -1.0189
16625TIP3   OH271365   1.598   0.700   5.929  0.3741 -0.1815  0.5196
16625TIP3    H171366   1.639   0.741   5.853  2.0376 -0.5133  1.2003
16625TIP3    H271367   1.666   0.646   5.968 -1.1216 -1.8624  0.9380
16626TIP3   OH271368   5.827   0.589  15.575 -0.0264  0.0094 -0.4501
16626TIP3    H171369   5.849   0.523  15.640  0.7040  1.0486  0.3947
16626TIP3    H271370   5.769   0.650  15.622  0.9805  1.0891 -0.5717
16627TIP3   OH271371   0.700   2.213   0.971 -1.0966  0.2696 -0.5652
16627TIP3    H171372   0.679   2.306   0.968 -1.2789  0.2760  0.4405
16627TIP3    H271373   0.739   2.200   1.058  2.7320  0.1535 -2.1197
16628TIP3   OH271374   3.031   2.071  15.938 -0.2716 -0.4804  0.6919
16628TIP3    H171375   3.039   2.109  15.851  0.6092  1.4179  1.5422
16628TIP3    H271376   2.961   2.121  15.980  1.6502  1.1262  2.2099
16629TIP3   OH271377   4.586   6.441   3.006 -0.6369  0.2454  0.2191
16629TIP3    H171378   4.675   6.465   3.030 -1.5710  2.5149  1.8401
16629TIP3    H271379   4.589   6.347   2.988  2.2545  0.4629 -0.8875
16630TIP3   OH271380   6.432   4.736   0.157 -0.5791 -0.4294 -0.4702
16630TIP3    H171381   6.348   4.692   0.169 -0.5814  0.0012  1.5308
16630TIP3    H271382   6.428   4.774   0.070 -3.1094  0.8465  0.1109
16631TIP3   OH271383   4.604   5.256   3.291 -0.0310  0.5399  0.2753
16631TIP3    H171384   4.606   5.326   3.356 -2.1488  0.5009  0.4433
16631TIP3    H271385   4.580   5.178   3.340  1.7572 -0.2528 -0.0085
16632TIP3   OH271386   2.788   4.664   2.542 -0.3876  0.4814  0.1605
16632TIP3    H171387   2.832   4.723   2.604 -0.2138  1.7195 -1.0810
16632TIP3    H271388   2.842   4.668   2.463 -0.8291 -0.7407 -0.2231
16633TIP3   OH271389   6.174   1.387   6.428  0.2871 -0.5031  0.3977
16633TIP3    H171390   6.159   1.298   6.396 -0.1879 -0.3021  0.0592
16633TIP3    H271391   6.231   1.427   6.362 -0.8130 -0.0410 -0.2869
16634TIP3   OH271392   4.546   6.530   5.857 -0.7780 -0.1140 -0.1675
16634TIP3    H171393   4.499   6.495   5.781  0.1533 -1.2966 -0.2150
16634TIP3    H271394   4.510   6.483   5.932  0.5786 -1.3485 -0.2473
16635TIP3   OH271395   0.146   0.118  13.317 -0.6787  0.0241 -0.0146
16635TIP3    H171396   0.081   0.053  13.290 -0.6476  0.0542 -0.1616
16635TIP3    H271397   0.118   0.145  13.404 -0.1904 -0.8415  0.4231
16636TIP3   OH271398   6.296   0.802   4.728 -0.0220  0.8135 -0.0776
16636TIP3    H171399   6.370   0.744   4.712 -1.5835 -1.8275  1.4695
16636TIP3    H271400   6.230   0.774   4.664 -0.8162  0.8189  0.7177
16637TIP3   OH271401   4.899   3.835   5.077  0.1842 -0.5584  0.4181
16637TIP3    H171402   4.927   3.796   4.995  0.2294 -1.7797  0.9899
16637TIP3    H271403   4.899   3.762   5.139  1.3532  0.5648  1.8028
16638TIP3   OH271404   2.228   1.722   6.456 -0.3117 -0.4961 -0.2736
16638TIP3    H171405   2.156   1.784   6.467  0.7307  0.7286 -0.1902
16638TIP3    H271406   2.247   1.724   6.362  1.8392  1.8136  0.1328
16639TIP3   OH271407   5.951   0.407  15.201 -0.1067 -0.0544 -0.2149
16639TIP3    H171408   6.039   0.442  15.186 -0.6184  1.1194 -0.5707
16639TIP3    H271409   5.900   0.482  15.231 -1.1153 -0.6073 -0.4985
16640TIP3   OH271410   1.025   3.239   2.403  0.6904  0.2081 -0.3451
16640TIP3    H171411   1.021   3.187   2.322  0.6495  1.6135 -1.2923
16640TIP3    H271412   0.934   3.258   2.424  0.7378  3.0451 -2.1986
16641TIP3   OH271413   2.720   1.948   2.994 -0.1579  0.5797  0.1362
16641TIP3    H171414   2.711   1.877   2.931 -0.7696  0.2128  0.6313
16641TIP3    H271415   2.633   1.987   3.000 -0.0356  0.8071  0.5272
16642TIP3   OH271416   2.560   2.441  17.176  0.1568  0.9205  0.0168
16642TIP3    H171417   2.560   2.364  17.119  0.9995 -0.2305  1.4971
16642TIP3    H271418   2.623   2.501  17.135  1.3635 -0.2301  0.1337
16643TIP3   OH271419   3.896   3.652  13.284  0.1416 -0.3959  0.0122
16643TIP3    H171420   3.921   3.679  13.372  1.7816  3.5515 -1.4241
16643TIP3    H271421   3.979   3.633  13.240 -0.0792  2.4762 -1.9010
16644TIP3   OH271422   2.516   2.708   1.460  0.0998  0.1792  0.4003
16644TIP3    H171423   2.574   2.633   1.445 -0.4872 -1.0010  3.2522
16644TIP3    H271424   2.432   2.669   1.485 -0.6323  1.8005  0.6154
16645TIP3   OH271425   1.531   0.704  14.601  0.0980  0.0021 -0.2059
16645TIP3    H171426   1.510   0.666  14.687 -0.7409 -0.9786 -0.8155
16645TIP3    H271427   1.505   0.636  14.539  4.2554 -1.0107 -1.1407
16646TIP3   OH271428   5.177   3.490  10.510  0.1246  0.3259  0.3817
16646TIP3    H171429   5.132   3.539  10.440  1.4984 -1.4858 -1.9088
16646TIP3    H271430   5.227   3.557  10.558  0.7145  1.4312 -1.6551
16647TIP3   OH271431   5.533   6.420  11.293 -0.0715  0.0584  0.3973
16647TIP3    H171432   5.621   6.383  11.281 -0.0022 -0.2498  1.7398
16647TIP3    H271433   5.512   6.401  11.384 -0.7716  1.8081  0.6230
16648TIP3   OH271434   5.426   2.654   4.816 -0.1394 -0.6729 -0.3405
16648TIP3    H171435   5.409   2.727   4.756 -0.2130  0.0400  0.5165
16648TIP3    H271436   5.436   2.696   4.901 -1.7420 -1.7846  0.4620
16649TIP3   OH271437   1.667   1.894   1.483  0.3971  0.2859  0.2442
16649TIP3    H171438   1.625   1.977   1.504  1.1538  0.5135  0.9020
16649TIP3    H271439   1.718   1.913   1.404 -1.5650 -0.2811 -1.2335
16650TIP3   OH271440   5.772   2.266  15.147  0.1853 -0.3020  0.1026
16650TIP3    H171441   5.711   2.195  15.126 -1.3366  1.0531 -0.2504
16650TIP3    H271442   5.816   2.285  15.065 -0.4265  0.0753 -0.1479
16651TIP3   OH271443   4.711   6.254  10.767 -0.6057 -0.4903 -0.3008
16651TIP3    H171444   4.647   6.298  10.824 -0.5668 -0.0081 -0.6241
16651TIP3    H271445   4.794   6.264  10.813 -0.4653  0.4649 -0.7449
16652TIP3   OH271446   2.784   6.216   1.186 -0.2574  0.0762 -0.4720
16652TIP3    H171447   2.845   6.179   1.123  1.4816 -0.6261  1.5420
16652TIP3    H271448   2.764   6.303   1.151 -1.6910 -1.3063 -3.4687
16653TIP3   OH271449   6.713   0.217  14.776  0.9571  0.2789 -0.8003
16653TIP3    H171450   6.643   0.156  14.754  0.4883  0.4754  0.0939
16653TIP3    H271451   6.780   0.163  14.818  0.9358  0.2324 -0.8266
16654TIP3   OH271452   1.614   4.929  15.853 -0.0374  0.2388 -0.2223
16654TIP3    H171453   1.559   4.902  15.780 -1.0236 -0.9711  0.9142
16654TIP3    H271454   1.677   4.857  15.863  0.1270  0.4242  0.0885
16655TIP3   OH271455   3.756   4.294  14.390 -0.3970 -0.3449  0.3149
16655TIP3    H171456   3.690   4.273  14.324  0.8206  0.2814 -1.1646
16655TIP3    H271457   3.824   4.227  14.378 -0.8379 -1.1510  1.9998
16656TIP3   OH271458   1.478   2.007   3.131 -0.1644  0.5884  0.7022
16656TIP3    H171459   1.453   2.088   3.087 -0.1657  0.4549  0.4551
16656TIP3    H271460   1.573   2.003   3.122 -0.3064 -0.3020 -0.8246
16657TIP3   OH271461   1.377   2.726  13.729  0.3810 -0.5871 -0.1751
16657TIP3    H171462   1.336   2.641  13.744  1.3581 -1.1423 -0.5760
16657TIP3    H271463   1.453   2.726  13.787  0.0406  0.2860  0.2952
16658TIP3   OH271464   3.723   3.544  13.076  0.2532 -0.1672  0.0193
16658TIP3    H171465   3.794   3.540  13.140  0.5526 -1.2679 -0.3522
16658TIP3    H271466   3.754   3.608  13.011 -0.4343  1.6249  1.3598
16659TIP3   OH271467   2.125   3.310  16.506 -0.8210 -0.1441  0.4390
16659TIP3    H171468   2.104   3.217  16.511  0.7038 -0.4756  1.2488
16659TIP3    H271469   2.209   3.314  16.460 -1.3650  0.9341 -0.5372
16660TIP3   OH271470   3.004   4.514  11.218  0.5973 -0.4020  0.9338
16660TIP3    H171471   3.084   4.522  11.165 -1.1012  0.2511 -1.7065
16660TIP3    H271472   2.965   4.601  11.214 -0.2034 -0.6805  2.3072
16661TIP3   OH271473   5.225   1.765  14.351 -0.0842  0.1476  0.5650
16661TIP3    H171474   5.267   1.733  14.271 -0.9133  1.7238 -0.5354
16661TIP3    H271475   5.247   1.858  14.354  0.4325  0.0128  2.5242
16662TIP3   OH271476   0.355   3.335   1.814  0.2790  0.0953 -0.6252
16662TIP3    H171477   0.388   3.405   1.757 -1.4354  0.7939 -0.8321
16662TIP3    H271478   0.377   3.365   1.902  1.4490 -0.1718 -0.8068
16663TIP3   OH271479   3.677   0.314   2.039  0.1868 -0.2199 -0.1601
16663TIP3    H171480   3.631   0.315   1.955  0.1109 -2.8545 -0.2306
16663TIP3    H271481   3.609   0.332   2.103 -0.0373  0.3935 -0.5619
16664TIP3   OH271482   1.829   3.054   4.030 -0.8535  0.1338  0.2732
16664TIP3    H171483   1.905   2.996   4.032  0.1438  1.4044  1.1837
16664TIP3    H271484   1.774   3.025   4.103 -0.5150  0.1176  0.5226
16665TIP3   OH271485   6.564   1.597  10.851  0.6409  0.2023  0.0705
16665TIP3    H171486   6.488   1.640  10.891  2.4816  2.8248  1.0320
16665TIP3    H271487   6.571   1.513  10.895  0.2185  1.3092  2.3777
16666TIP3   OH271488   1.541   4.381   3.578 -0.5126 -0.0012 -0.5212
16666TIP3    H171489   1.460   4.377   3.528 -0.1417  0.7845 -1.2107
16666TIP3    H271490   1.580   4.465   3.553  0.8269 -0.6540 -0.7003
16667TIP3   OH271491   6.439   6.184   5.989  0.4632 -0.2606  0.4996
16667TIP3    H171492   6.454   6.100   6.033  0.7378  0.0764  1.0514
16667TIP3    H271493   6.366   6.223   6.035 -0.5957 -0.8087 -0.6515
16668TIP3   OH271494   3.990   3.307  15.985  0.0554 -0.2622  0.3916
16668TIP3    H171495   3.967   3.235  15.926 -0.4711  0.2902 -0.0997
16668TIP3    H271496   3.984   3.269  16.073 -3.1226 -0.1199  0.3506
16669TIP3   OH271497   4.266   0.169   1.694  0.5779  0.2556  0.6140
16669TIP3    H171498   4.258   0.226   1.771  0.4508 -0.6237  1.2750
16669TIP3    H271499   4.359   0.148   1.690  0.5301  0.0127  0.7485
16670TIP3   OH271500   0.098   4.231  12.757  0.2583  0.8846 -0.3217
16670TIP3    H171501   0.149   4.156  12.726  0.6853  1.0606 -0.0622
16670TIP3    H271502   0.014   4.194  12.783  0.0059  0.6913 -1.4007
16671TIP3   OH271503   2.959   5.017  15.982 -0.1189 -0.3779  0.0123
16671TIP3    H171504   3.054   5.008  15.991 -0.1895 -0.0820  1.1910
16671TIP3    H271505   2.923   4.935  16.016 -0.2362 -1.4687 -2.5438
16672TIP3   OH271506   5.523   3.018  16.358 -0.0710 -0.5781  0.2422
16672TIP3    H171507   5.498   2.963  16.284  0.6734 -0.8242  0.1568
16672TIP3    H271508   5.588   3.078  16.323 -3.3650  2.8723 -0.5610
16673TIP3   OH271509   3.305   0.790  14.546  0.4846  0.0940 -0.3216
16673TIP3    H171510   3.278   0.859  14.607  0.6686  0.0761 -0.2164
16673TIP3    H271511   3.399   0.780  14.562  0.2538 -1.0171  0.5313
16674TIP3   OH271512   3.514   6.129   3.636  0.6331  0.9515 -0.0736
16674TIP3    H171513   3.426   6.094   3.655  0.8960 -0.7404 -1.6924
16674TIP3    H271514   3.573   6.063   3.673  1.1514  0.1028 -2.2609
16675TIP3   OH271515   6.203   5.111   1.677 -0.0464  0.3048  0.0826
16675TIP3    H171516   6.160   5.191   1.709 -0.6900  0.4538 -1.0995
16675TIP3    H271517   6.242   5.073   1.755  0.0168  1.6152  0.7290
16676TIP3   OH271518   3.609   1.409   1.450  0.5339  0.2853 -0.0959
16676TIP3    H171519   3.680   1.368   1.400  2.4241  2.9339  0.1955
16676TIP3    H271520   3.643   1.413   1.539 -1.5929 -1.7127  0.9035
16677TIP3   OH271521   5.364   1.907   1.289 -0.2956 -0.4526  0.6319
16677TIP3    H171522   5.330   1.980   1.238 -1.3951 -1.3762 -0.0060
16677TIP3    H271523   5.288   1.872   1.336  0.0175 -1.7136  0.2484
16678TIP3   OH271524   0.923   5.941   1.575 -0.2093  0.6189 -0.6712
16678TIP3    H171525   0.984   5.870   1.596  0.5219  1.1664 -0.8918
16678TIP3    H271526   0.977   6.020   1.576 -0.6220  0.9530 -2.3015
16679TIP3   OH271527   3.785   2.444   3.819  0.4335  0.7598 -0.5773
16679TIP3    H171528   3.697   2.450   3.857  0.7772 -1.9518  0.9491
16679TIP3    H271529   3.843   2.479   3.887  0.7545 -0.7017 -0.0550
16680TIP3   OH271530   2.609   0.276   5.613 -0.1999  0.0533  0.5489
16680TIP3    H171531   2.649   0.228   5.685  2.2444 -2.0553 -1.9594
16680TIP3    H271532   2.665   0.352   5.601 -0.0481 -0.0944  0.3126
16681TIP3   OH271533   5.861   1.374   4.318 -0.5151  0.1642  0.5946
16681TIP3    H171534   5.848   1.399   4.409 -0.9142  1.7370  0.1506
16681TIP3    H271535   5.910   1.447   4.280 -0.8581 -0.1868 -0.5724
16682TIP3   OH271536   3.752   6.393  16.951  0.2843 -0.3234  0.3392
16682TIP3    H171537   3.792   6.317  16.993  1.3871 -0.5014 -0.9626
16682TIP3    H271538   3.749   6.370  16.858 -1.3429  0.3808  0.1855
16683TIP3   OH271539   0.889   1.156   4.658  0.1033  0.3573  0.0640
16683TIP3    H171540   0.966   1.113   4.694  0.5667 -1.2161 -2.5779
16683TIP3    H271541   0.911   1.175   4.567 -2.2394  0.8780 -0.4786
16684TIP3   OH271542   4.637   5.459   3.456 -0.2892 -0.0888 -0.1924
16684TIP3    H171543   4.604   5.429   3.541 -1.7181 -0.0682 -0.7075
16684TIP3    H271544   4.706   5.522   3.477  0.6504 -1.4282  0.9223
16685TIP3   OH271545   3.435   2.663   0.568 -0.2054 -0.0981 -0.5648
16685TIP3    H171546   3.530   2.671   0.563 -0.2184  0.1651 -0.4262
16685TIP3    H271547   3.405   2.679   0.478 -0.1321  0.0327 -0.5669
16686TIP3   OH271548   4.745   0.807  16.956  0.4474 -0.3303 -0.2752
16686TIP3    H171549   4.758   0.724  16.911 -0.0953 -0.8785  0.5535
16686TIP3    H271550   4.712   0.782  17.043 -2.8231  0.8220 -1.0456
16687TIP3   OH271551   5.449   6.362   5.404  0.3378  0.0124 -0.7416
16687TIP3    H171552   5.496   6.428   5.352 -1.0760  1.0888 -0.7328
16687TIP3    H271553   5.455   6.282   5.352  1.5692  0.2962 -1.0646
16688TIP3   OH271554   5.302   3.748  14.168  0.4249 -0.2230  0.1360
16688TIP3    H171555   5.395   3.763  14.155  1.0450 -2.2165  1.8275
16688TIP3    H271556   5.281   3.791  14.251 -0.1832  0.1819 -0.2112
16689TIP3   OH271557   5.348   1.593   2.081 -1.3079 -0.1134  0.0292
16689TIP3    H171558   5.269   1.579   2.028 -1.6282  0.5652  0.3127
16689TIP3    H271559   5.419   1.562   2.026 -1.8031 -1.0583 -0.0976
16690TIP3   OH271560   1.335   1.735   4.130  0.0584 -0.3417  0.4610
16690TIP3    H171561   1.389   1.702   4.058  1.1245  1.1738  0.5178
16690TIP3    H271562   1.352   1.829   4.132 -0.3856 -0.2568  2.3433
16691TIP3   OH271563   4.060   3.732  16.132  1.0625  0.0243 -0.0569
16691TIP3    H171564   4.080   3.674  16.059  0.4671 -0.0796 -0.1452
16691TIP3    H271565   3.998   3.796  16.096  1.0862  0.2195  0.2459
16692TIP3   OH271566   1.947   1.978   2.418  0.4114 -0.3640 -0.2681
16692TIP3    H171567   1.950   2.035   2.494  1.6801 -1.6284  0.6778
16692TIP3    H271568   1.858   1.987   2.384  0.2515  1.2682  0.5304
16693TIP3   OH271569   2.690   0.078  17.219 -0.1189  0.1843  0.1373
16693TIP3    H171570   2.606   0.052  17.256 -0.1242 -0.4015 -0.2698
16693TIP3    H271571   2.706   0.165  17.255 -1.2182  0.5941 -0.3165
16694TIP3   OH271572   0.903   1.284   1.580 -0.5208  0.1672 -0.2958
16694TIP3    H171573   0.981   1.233   1.561 -0.5428 -0.7261  1.7063
16694TIP3    H271574   0.839   1.256   1.514  0.2968 -0.3823 -0.8717
16695TIP3   OH271575   1.644   2.505  13.411 -0.2176  0.1710 -0.0110
16695TIP3    H171576   1.565   2.546  13.378  1.1586  0.4466 -3.3650
16695TIP3    H271577   1.701   2.578  13.435  0.4775  0.1707 -1.5244
16696TIP3   OH271578   5.416   2.971  17.300  0.0437 -0.0118  0.4681
16696TIP3    H171579   5.405   3.064  17.280  1.9945  0.4588  1.3731
16696TIP3    H271580   5.380   2.926  17.224  0.1977  1.5234 -0.5582
16697TIP3   OH271581   0.697   5.435   2.794  0.0108  0.0438  0.1533
16697TIP3    H171582   0.790   5.417   2.790  0.2256  0.9278  0.8459
16697TIP3    H271583   0.691   5.523   2.830 -1.0911  0.0090  0.0967
16698TIP3   OH271584   3.521   5.641   0.304  0.0319  0.1474 -0.1779
16698TIP3    H171585   3.452   5.610   0.246 -0.1327  0.0361  0.0763
16698TIP3    H271586   3.475   5.679   0.378  0.2400 -0.2049  0.1400
16699TIP3   OH271587   6.428   1.087  16.570  0.5075 -0.0780  0.5581
16699TIP3    H171588   6.375   1.019  16.530 -0.2202  0.2534  0.9315
16699TIP3    H271589   6.364   1.144  16.614  0.9594  1.5376 -0.7640
16700TIP3   OH271590   3.610   4.796   1.796 -0.5541 -0.2202 -0.0225
16700TIP3    H171591   3.605   4.846   1.877  0.5063 -0.9654  0.5415
16700TIP3    H271592   3.602   4.704   1.824 -2.3972 -0.4121 -1.0177
16701TIP3   OH271593   6.658   5.024   2.109 -0.0945  0.4816 -0.8648
16701TIP3    H171594   6.726   5.090   2.117  0.6704 -0.3583 -0.2655
16701TIP3    H271595   6.598   5.044   2.181  1.0239 -0.4624  0.3738
16702TIP3   OH271596   1.409   2.697   5.663 -0.1163  0.1229  0.0881
16702TIP3    H171597   1.497   2.709   5.629 -0.2450 -1.1964 -0.7576
16702TIP3    H271598   1.410   2.743   5.747  1.3217  0.2653  0.0185
16703TIP3   OH271599   0.104   6.562  13.886 -0.2460 -0.5035  0.1915
16703TIP3    H171600   0.104   6.546  13.981 -0.4578 -0.3577  0.2192
16703TIP3    H271601   0.187   6.606  13.869 -0.2107 -0.5225  0.3125
16704TIP3   OH271602   0.186   6.576   3.500  0.4880  0.0442 -0.5283
16704TIP3    H171603   0.131   6.650   3.473  1.3192  0.6412 -0.6145
16704TIP3    H271604   0.276   6.609   3.492  0.8448  0.1285  2.5745
16705TIP3   OH271605   0.498   2.813   0.413 -0.4144 -0.0890  0.2174
16705TIP3    H171606   0.532   2.830   0.501 -0.5165  0.9623  0.0576
16705TIP3    H271607   0.502   2.717   0.404 -1.1958 -0.2890  1.6856
16706TIP3   OH271608   5.557   6.647   3.134 -0.5279 -0.4934  0.6310
16706TIP3    H171609   5.567   6.576   3.197 -1.2428  0.2566  1.6161
16706TIP3    H271610   5.604   6.721   3.172  0.2424 -0.4351 -0.4015
16707TIP3   OH271611   1.124   3.575   6.897 -0.2235  0.0335 -0.0805
16707TIP3    H171612   1.188   3.506   6.912  0.2642  0.7571  1.2818
16707TIP3    H271613   1.176   3.651   6.869 -0.8017 -0.2703 -2.2325
16708TIP3   OH271614   3.790   3.652   0.324 -0.5427  0.9806  0.0489
16708TIP3    H171615   3.831   3.568   0.303  1.7038  1.9824  0.0744
16708TIP3    H271616   3.759   3.642   0.414  1.4422  0.7315  0.7653
16709TIP3   OH271617   1.424   6.693   0.562  0.4877  0.2040  0.5018
16709TIP3    H171618   1.436   6.721   0.652 -1.0297  0.3701  0.6681
16709TIP3    H271619   1.398   6.601   0.569 -1.8797  0.8020  0.4147
16710TIP3   OH271620   5.552   5.646   3.620  0.0303 -0.2982  0.2390
16710TIP3    H171621   5.569   5.558   3.585  1.8428 -0.0119  0.3035
16710TIP3    H271622   5.638   5.679   3.643 -0.5824  1.6809 -0.1597
16711TIP3   OH271623   1.760   0.647   0.969  0.1690 -0.5146 -0.1747
16711TIP3    H171624   1.689   0.617   1.025  0.7527  0.1324  0.9421
16711TIP3    H271625   1.822   0.574   0.968  0.4271 -0.3116  0.5077
16712TIP3   OH271626   1.370   0.976  14.570  0.3666 -0.7990 -0.2171
16712TIP3    H171627   1.358   0.920  14.647  0.1603  0.0006  0.3476
16712TIP3    H271628   1.464   0.978  14.555  0.5238  0.0501  0.7959
16713TIP3   OH271629   5.059   0.869   4.070  0.3965  0.3065 -0.1072
16713TIP3    H171630   4.984   0.839   4.018  0.9126  0.2678 -0.8403
16713TIP3    H271631   5.025   0.943   4.120  0.1713  1.0494 -1.3338
16714TIP3   OH271632   0.741   4.376  13.748 -0.2575  0.0350  0.3319
16714TIP3    H171633   0.712   4.364  13.839 -0.6484  2.0615  0.5278
16714TIP3    H271634   0.836   4.387  13.755 -0.4702  1.9821  0.7698
16715TIP3   OH271635   2.905   3.035  13.503 -0.0566  0.5116 -0.1397
16715TIP3    H171636   2.882   3.082  13.423 -0.0531  0.5588 -0.1128
16715TIP3    H271637   2.863   3.086  13.573  0.8154  1.0640 -0.0121
16716TIP3   OH271638   3.548   1.683   4.084  0.4186 -0.4728  0.0389
16716TIP3    H171639   3.556   1.686   4.179  1.5298  0.2003 -0.0528
16716TIP3    H271640   3.550   1.590   4.062  0.1305 -0.6344  0.6631
16717TIP3   OH271641   2.087   3.666   3.695  0.2802  0.5295  0.4853
16717TIP3    H171642   2.061   3.626   3.778  0.0117  0.0653  0.1834
16717TIP3    H271643   2.139   3.742   3.720 -1.9702  1.9517  1.1427
16718TIP3   OH271644   5.938   5.922   3.026 -0.0961  0.1016  0.0066
16718TIP3    H171645   5.888   5.866   2.967  1.2627 -1.1373 -0.0158
16718TIP3    H271646   5.943   5.872   3.108 -0.9932  1.3086  0.8384
16719TIP3   OH271647   5.585   1.416  13.412  0.3155  0.0119  0.5484
16719TIP3    H171648   5.550   1.497  13.376  0.2758  0.5451  1.7400
16719TIP3    H271649   5.562   1.349  13.348 -1.2646  0.6362  0.4277
16720TIP3   OH271650   3.763   4.399   4.748  0.4427 -0.0992  0.1632
16720TIP3    H171651   3.728   4.326   4.798  1.5170 -0.3060  0.6461
16720TIP3    H271652   3.693   4.422   4.687  0.1376 -1.6170 -0.1025
16721TIP3   OH271653   0.147   6.200  14.938 -0.0796  0.4021  0.3700
16721TIP3    H171654   0.141   6.201  15.033  2.7528  0.9492  0.6489
16721TIP3    H271655   0.218   6.138  14.920  1.2985  2.2984 -1.1541
16722TIP3   OH271656   5.437   0.725   0.261  0.4516  0.1050  0.1774
16722TIP3    H171657   5.436   0.728   0.165 -2.6041 -0.6066  0.0696
16722TIP3    H271658   5.450   0.633   0.281 -0.0927  0.0676  0.3792
16723TIP3   OH271659   3.549   1.236   6.559  0.4999 -0.2102  0.3975
16723TIP3    H171660   3.604   1.198   6.628  1.1277 -1.0519 -0.5427
16723TIP3    H271661   3.544   1.329   6.582  1.0882 -0.3870  1.3203
16724TIP3   OH271662   3.035   0.658  12.185  0.1662  0.3337 -0.6202
16724TIP3    H171663   3.120   0.614  12.176 -0.3288 -0.6425 -0.6797
16724TIP3    H271664   2.974   0.588  12.206 -0.8573  0.8067 -1.8507
16725TIP3   OH271665   3.824   6.087   0.389 -0.2074 -0.5432 -0.0828
16725TIP3    H171666   3.764   6.161   0.376  1.5685  1.2775  1.4466
16725TIP3    H271667   3.768   6.016   0.421 -1.5578  1.1194  1.4246
16726TIP3   OH271668   1.949   0.797  12.886 -0.6921  0.2856  0.7201
16726TIP3    H171669   1.937   0.871  12.826 -0.9992 -0.7389 -0.5404
16726TIP3    H271670   2.040   0.771  12.874 -1.3014 -1.3345 -1.1085
16727TIP3   OH271671   4.639   3.652   5.434  0.1262 -0.0825  0.0728
16727TIP3    H171672   4.598   3.570   5.407 -0.8548  0.0185  1.1628
16727TIP3    H271673   4.618   3.714   5.364 -1.1159 -0.1827  0.3404
16728TIP3   OH271674   5.111   3.373  11.231  0.2197  0.5753  0.0626
16728TIP3    H171675   5.130   3.443  11.294  0.6265  0.9912 -0.5185
16728TIP3    H271676   5.136   3.409  11.146  1.1983 -0.5616 -0.1644
16729TIP3   OH271677   0.757   5.054  16.123 -0.8662  0.4524  0.5019
16729TIP3    H171678   0.693   5.004  16.173 -0.8932  2.4954  2.6953
16729TIP3    H271679   0.839   5.008  16.137 -1.1613  0.1034  1.1606
16730TIP3   OH271680   4.478   1.014  12.391 -0.2242  0.3922 -0.3313
16730TIP3    H171681   4.464   1.048  12.479 -0.9074  1.5782 -0.8709
16730TIP3    H271682   4.499   0.921  12.404  0.0409  0.6322  1.0872
16731TIP3   OH271683   1.913   6.379  16.982  0.1841  0.1721 -0.3103
16731TIP3    H171684   1.918   6.286  16.961  0.4872  0.1472 -0.1416
16731TIP3    H271685   1.820   6.399  16.986  0.0883 -0.3947  0.8265
16732TIP3   OH271686   5.415   1.733  16.137 -0.3924  0.0346 -0.6795
16732TIP3    H171687   5.500   1.777  16.130  0.8614 -1.9077  1.1735
16732TIP3    H271688   5.386   1.723  16.047  1.4836  0.5263 -1.3894
16733TIP3   OH271689   0.634   6.529   0.310  0.3427 -0.1218  0.0393
16733TIP3    H171690   0.668   6.500   0.395  0.5525 -1.6352 -0.5295
16733TIP3    H271691   0.704   6.507   0.248 -0.0438  0.4536 -0.6180
16734TIP3   OH271692   5.851   2.819  13.717  0.2037  0.4622  0.2113
16734TIP3    H171693   5.858   2.909  13.750  1.3424  0.4201  0.1121
16734TIP3    H271694   5.759   2.810  13.693  0.2637  1.9251 -0.7036
16735TIP3   OH271695   0.527   1.090  12.587  0.5506 -0.4721  0.2462
16735TIP3    H171696   0.437   1.104  12.614  0.5666 -1.3092  0.7940
16735TIP3    H271697   0.553   1.172  12.545 -1.0673 -0.8676 -1.6886
16736TIP3   OH271698   4.295   0.548  13.282  0.3268 -0.6592 -0.2976
16736TIP3    H171699   4.239   0.531  13.358  0.3215  0.2559 -0.0835
16736TIP3    H271700   4.383   0.528  13.313  0.2777 -0.6872 -0.1725
16737TIP3   OH271701   4.467   1.520  16.798  0.4273 -0.0817 -0.1021
16737TIP3    H171702   4.420   1.603  16.789  0.2952 -0.1040  0.3470
16737TIP3    H271703   4.491   1.497  16.708 -0.0330  0.1533 -0.2959
16738TIP3   OH271704   3.403   2.825   1.566  0.1730  0.2937 -0.1495
16738TIP3    H171705   3.330   2.773   1.533  1.1511  0.1579 -2.2389
16738TIP3    H271706   3.412   2.897   1.504 -0.2872  2.2806  1.9538
16739TIP3   OH271707   4.746   1.854  11.828 -0.5975 -0.4360  0.3135
16739TIP3    H171708   4.835   1.825  11.811  0.2226  1.0102  1.8364
16739TIP3    H271709   4.720   1.903  11.750  1.7464  3.0761  1.4900
16740TIP3   OH271710   3.548   5.316   4.397  0.4529  0.6566  0.9937
16740TIP3    H171711   3.515   5.345   4.482 -1.5316  1.2553  0.0770
16740TIP3    H271712   3.643   5.318   4.406  0.4102  4.0809  2.1499
16741TIP3   OH271713   3.870   2.688   6.223  0.2914  0.0333  0.1451
16741TIP3    H171714   3.878   2.636   6.304  0.3767  1.7571  1.2977
16741TIP3    H271715   3.893   2.777   6.250  3.1460  0.2044 -2.3898
16742TIP3   OH271716   5.466   3.250   5.707  0.5001  0.5644 -0.3016
16742TIP3    H171717   5.504   3.207   5.784  0.7821 -2.0778 -1.7863
16742TIP3    H271718   5.373   3.229   5.711  0.3360  1.2788 -0.1927
16743TIP3   OH271719   2.537   2.078  11.352 -0.1523 -0.2921  0.4438
16743TIP3    H171720   2.455   2.034  11.330  1.1999 -2.3291 -1.0018
16743TIP3    H271721   2.595   2.057  11.279  1.7572  0.7650  1.5780
16744TIP3   OH271722   5.885   6.625  16.691 -0.4872  0.4199  0.0689
16744TIP3    H171723   5.799   6.663  16.672 -0.7179 -0.0895  0.0895
16744TIP3    H271724   5.919   6.678  16.764  0.6584  2.7818 -2.0247
16745TIP3   OH271725   6.162   1.148  15.085 -0.1730 -0.2641  0.2619
16745TIP3    H171726   6.200   1.227  15.122 -0.8959  0.5856 -0.7345
16745TIP3    H271727   6.153   1.167  14.992  0.7100 -1.9662 -0.2126
16746TIP3   OH271728   1.923   6.031  16.078  0.6717  0.1565 -0.5270
16746TIP3    H171729   1.942   6.097  16.011  0.2233 -1.5938 -2.4802
16746TIP3    H271730   1.997   5.971  16.074  1.2084  0.6354  1.4239
16747TIP3   OH271731   3.547   3.221   1.850  0.2381  0.4433  0.4690
16747TIP3    H171732   3.459   3.222   1.887 -0.7603 -0.5360 -1.6947
16747TIP3    H271733   3.604   3.201   1.924 -1.4475  0.1149  1.7475
16748TIP3   OH271734   2.310   5.977  16.947  0.5503  0.4538  0.6950
16748TIP3    H171735   2.389   6.024  16.975  1.4041 -0.2364 -0.4490
16748TIP3    H271736   2.294   5.913  17.017  1.6765 -0.1396  0.4458
16749TIP3   OH271737   6.308   4.224   0.811  0.2156 -0.1159  0.6946
16749TIP3    H171738   6.279   4.279   0.738 -0.3129 -1.9437 -0.5389
16749TIP3    H271739   6.403   4.240   0.817  0.1504  0.5582  0.0460
16750TIP3   OH271740   4.556   1.972   4.818  0.3591  0.2447  0.2036
16750TIP3    H171741   4.577   1.892   4.769 -0.4939 -0.3736  0.8301
16750TIP3    H271742   4.547   2.039   4.750 -0.4250 -0.5198 -0.4672
16751TIP3   OH271743   6.692   1.063   6.368 -0.2145  0.3384  0.2396
16751TIP3    H171744   6.717   1.022   6.451  1.2998  2.9278  1.1446
16751TIP3    H271745   6.600   1.038   6.357 -0.2080 -0.7857  2.2228
16752TIP3   OH271746   0.314   1.592   1.275  0.4083  0.3557  0.2714
16752TIP3    H171747   0.404   1.625   1.270 -0.2749  2.1518 -1.3468
16752TIP3    H271748   0.277   1.632   1.353  0.6598  0.5760  0.2763
16753TIP3   OH271749   0.101   2.619   5.844  0.1607  0.1218 -0.6073
16753TIP3    H171750   0.014   2.585   5.864 -0.3236  0.4386 -2.0742
16753TIP3    H271751   0.102   2.707   5.882  0.3057 -0.3338  0.4829
16754TIP3   OH271752   5.671   1.695   4.816  0.0364  0.2768  0.7699
16754TIP3    H171753   5.701   1.610   4.848  0.9295  1.0200  2.0036
16754TIP3    H271754   5.581   1.702   4.846  0.0429 -0.1391  0.8841
16755TIP3   OH271755   1.335   4.108   0.437  0.3261 -0.6993 -0.1646
16755TIP3    H171756   1.404   4.142   0.494 -0.3738  0.9557 -0.2577
16755TIP3    H271757   1.380   4.046   0.379  1.4894 -0.5763  0.5815
16756TIP3   OH271758   5.329   6.234  16.693 -0.2752  0.0522 -0.2264
16756TIP3    H171759   5.376   6.287  16.757 -0.2761  1.8292 -1.6234
16756TIP3    H271760   5.340   6.144  16.724  3.2346  0.4255  0.0478
16757TIP3   OH271761   5.367   2.051   0.421  0.2752 -0.1711  0.0605
16757TIP3    H171762   5.388   1.995   0.345  0.8503  0.7489 -0.4729
16757TIP3    H271763   5.400   2.002   0.496  1.3283 -0.2824 -0.4572
16758TIP3   OH271764   0.376   4.835  14.847 -0.1918  0.3981  0.5363
16758TIP3    H171765   0.332   4.871  14.769 -1.2811  0.4486  1.1508
16758TIP3    H271766   0.369   4.904  14.913  0.6375  0.3165  0.7184
16759TIP3   OH271767   2.450   1.994   4.271  0.7534 -0.3493  0.6526
16759TIP3    H171768   2.487   1.952   4.348 -1.2591 -3.4846  0.0964
16759TIP3    H271769   2.520   1.990   4.205  2.3144  1.9227  2.0332
16760TIP3   OH271770   6.410   0.456   1.131  0.4953  0.5898  0.0229
16760TIP3    H171771   6.359   0.404   1.068 -2.1289  1.7662  1.0265
16760TIP3    H271772   6.370   0.437   1.216  1.1364  2.3149  0.7470
16761TIP3   OH271773   1.808   0.413   1.226  0.0443 -0.0271  0.0890
16761TIP3    H171774   1.729   0.466   1.215  0.1455 -0.1245 -1.2840
16761TIP3    H271775   1.803   0.347   1.157  0.7112 -0.8311  0.7759
16762TIP3   OH271776   5.669   2.548   1.338  0.4274 -0.0327 -0.6238
16762TIP3    H171777   5.711   2.621   1.294  1.8399 -0.9582 -0.8891
16762TIP3    H271778   5.613   2.589   1.405  2.0034  1.2762 -0.0308
16763TIP3   OH271779   0.292   3.427  14.149  0.9565  0.1120 -0.0351
16763TIP3    H171780   0.247   3.353  14.190  0.1547  1.2897  1.3142
16763TIP3    H271781   0.314   3.396  14.061 -0.4302 -1.3148  0.0700
16764TIP3   OH271782   4.197   6.140  13.249  0.3376 -0.5469 -0.2747
16764TIP3    H171783   4.218   6.100  13.164  0.1927 -2.3618  0.5118
16764TIP3    H271784   4.128   6.085  13.285  0.4785  0.1283  1.0849
16765TIP3   OH271785   0.533   2.425  10.577 -0.2365  0.2637 -0.0200
16765TIP3    H171786   0.484   2.507  10.567  1.1304  1.5196  2.5689
16765TIP3    H271787   0.548   2.395  10.487  0.0142  3.3576 -1.1379
16766TIP3   OH271788   2.961   0.705   6.057  0.3194 -0.0070 -0.6328
16766TIP3    H171789   2.948   0.689   6.151  1.5353  3.6828  0.3064
16766TIP3    H271790   3.029   0.642   6.032  0.4601 -0.6223  1.1027
16767TIP3   OH271791   5.493   0.723  17.300 -0.4907 -0.2004  0.2777
16767TIP3    H171792   5.570   0.666  17.296  0.4898  1.0911  0.1503
16767TIP3    H271793   5.513   0.793  17.238 -1.7771  0.1607  0.2609
16768TIP3   OH271794   2.102   3.801   0.229 -0.4149 -0.4018  0.3868
16768TIP3    H171795   2.044   3.854   0.283 -1.8332 -2.0553  0.5826
16768TIP3    H271796   2.043   3.749   0.174  0.9428 -0.6434 -0.9101
16769TIP3   OH271797   4.618   1.954  15.220 -0.0797 -0.1514  0.3909
16769TIP3    H171798   4.607   1.871  15.173 -1.1171  0.2556 -0.1146
16769TIP3    H271799   4.699   1.991  15.184 -0.1285 -0.4928 -0.0817
16770TIP3   OH271800   3.093   5.912   1.506 -0.6279 -0.5521 -0.2676
16770TIP3    H171801   3.159   5.883   1.442 -1.4005  0.2987 -1.4715
16770TIP3    H271802   3.081   6.005   1.488 -1.3270 -0.4422  0.7179
16771TIP3   OH271803   2.524   4.768  14.560 -0.1999  0.0981  0.1450
16771TIP3    H171804   2.525   4.835  14.629 -2.2624  0.9405 -0.5610
16771TIP3    H271805   2.609   4.777  14.518  0.4518  0.7007  1.5170
16772TIP3   OH271806   5.442   5.535  14.981 -0.0576 -0.2402 -0.6405
16772TIP3    H171807   5.497   5.495  15.048 -0.4946 -0.5661 -0.4788
16772TIP3    H271808   5.471   5.495  14.899 -0.7308 -1.1586 -0.4412
16773TIP3   OH271809   4.843   0.521   0.282 -0.1038  0.4018 -0.6406
16773TIP3    H171810   4.920   0.511   0.226 -0.9905  0.3825 -1.9138
16773TIP3    H271811   4.779   0.460   0.245 -0.3863 -0.3702  1.0506
16774TIP3   OH271812   0.833   1.639   3.232 -0.1211  0.4567 -0.3821
16774TIP3    H171813   0.890   1.705   3.192 -0.7395  0.8119 -0.7158
16774TIP3    H271814   0.754   1.640   3.177 -0.1433 -0.5670 -0.3887
16775TIP3   OH271815   1.674   0.725  13.751  0.3599 -0.4045  0.4840
16775TIP3    H171816   1.629   0.643  13.772 -0.7388  0.3338  1.1315
16775TIP3    H271817   1.759   0.697  13.718 -0.1148 -1.8182  0.3525
16776TIP3   OH271818   6.688   0.414  13.931  0.4275 -0.1560 -0.0302
16776TIP3    H171819   6.755   0.459  13.982  0.5088 -0.2485 -0.0548
16776TIP3    H271820   6.624   0.384  13.995  0.5306 -0.2736  0.0193
16777TIP3   OH271821   3.353   0.800  11.286 -0.1002  0.2002  0.4441
16777TIP3    H171822   3.300   0.720  11.279  0.8817 -0.4719  0.5246
16777TIP3    H271823   3.358   0.833  11.197  0.3789 -0.4284  0.2275
16778TIP3   OH271824   3.749   1.840  16.305 -0.3396 -0.1288  0.9913
16778TIP3    H171825   3.726   1.781  16.377 -0.5906 -1.0441  0.1715
16778TIP3    H271826   3.672   1.896  16.294 -1.6558 -2.1322 -0.6917
16779TIP3   OH271827   1.435   6.230  13.528  0.3900 -0.0008 -0.4276
16779TIP3    H171828   1.454   6.318  13.559 -0.8782  0.2904 -0.4275
16779TIP3    H271829   1.422   6.179  13.609  1.4909 -0.2954 -0.4174
16780TIP3   OH271830   0.400   3.843  13.332 -0.3836  0.3407  0.4547
16780TIP3    H171831   0.346   3.772  13.296  0.0882 -0.2917  0.9614
16780TIP3    H271832   0.455   3.800  13.397  2.4545  0.5068 -1.6659
16781TIP3   OH271833   4.220   2.642   2.823  0.3279 -0.3959 -0.0067
16781TIP3    H171834   4.198   2.653   2.730 -1.7721  1.4509  0.6037
16781TIP3    H271835   4.198   2.727   2.862  0.8653 -1.2367  2.2475
16782TIP3   OH271836   4.862   3.215   5.079 -0.4034  0.4920 -0.2094
16782TIP3    H171837   4.804   3.162   5.133  0.5825 -0.5189 -0.1095
16782TIP3    H271838   4.951   3.185   5.101  0.1459  1.7462 -0.6121
16783TIP3   OH271839   0.465   6.217  14.095 -0.7239  0.1949 -0.1493
16783TIP3    H171840   0.525   6.268  14.041  1.3076 -0.3877  1.4052
16783TIP3    H271841   0.483   6.126  14.071 -0.0671 -0.0454  1.1581
16784TIP3   OH271842   4.105   3.027  15.080 -0.3769  0.5762  1.2762
16784TIP3    H171843   4.079   3.119  15.076  1.2454  1.0254 -0.0072
16784TIP3    H271844   4.045   2.983  15.020 -1.9028  0.5583  2.7443
16785TIP3   OH271845   6.816   2.746   1.355  0.3230  0.9575  0.4606
16785TIP3    H171846   6.880   2.816   1.339  1.0356  0.0164 -1.1158
16785TIP3    H271847   6.808   2.702   1.270  2.0378 -2.6501  1.9653
16786TIP3   OH271848   4.131   4.337   4.291 -0.7388 -0.0611 -0.3079
16786TIP3    H171849   4.039   4.319   4.310 -0.1278 -0.1992  3.2199
16786TIP3    H271850   4.154   4.274   4.223 -2.8602 -1.0908 -0.1502
16787TIP3   OH271851   6.310   0.223  15.840  0.4773  0.2855  0.0476
16787TIP3    H171852   6.402   0.206  15.859  0.3343 -1.3791 -0.6070
16787TIP3    H271853   6.269   0.234  15.927  0.6117 -2.8973  0.6019
16788TIP3   OH271854   3.647   5.965   3.867  0.0926  0.0307  0.1804
16788TIP3    H171855   3.551   5.964   3.874 -0.1389  2.0621 -1.6242
16788TIP3    H271856   3.672   5.873   3.871 -1.7414 -0.4581  2.4522
16789TIP3   OH271857   5.732   5.272  11.310 -0.2350 -0.2525 -0.4636
16789TIP3    H171858   5.768   5.292  11.224 -0.5569 -0.8292 -0.7308
16789TIP3    H271859   5.746   5.178  11.321  2.7826  0.2731  1.4722
16790TIP3   OH271860   5.829   2.200   3.426 -0.5371  0.1099  0.9977
16790TIP3    H171861   5.843   2.145   3.503 -0.6932 -2.7581 -0.8405
16790TIP3    H271862   5.735   2.221   3.428 -0.4746  0.3380  1.7351
16791TIP3   OH271863   4.048   3.688   4.223 -0.7198 -0.1235 -0.7147
16791TIP3    H171864   4.038   3.761   4.162 -1.0140  1.1147  0.7464
16791TIP3    H271865   4.071   3.613   4.168 -1.4375  0.8230 -2.3737
16792TIP3   OH271866   0.812   0.298  15.697 -0.2780  0.2720 -0.0969
16792TIP3    H171867   0.882   0.245  15.735  0.2088 -1.6386 -3.2413
16792TIP3    H271868   0.824   0.385  15.736  2.9843 -0.3192  0.5575
16793TIP3   OH271869   4.914   0.776   4.820  0.5914  0.1798 -0.2037
16793TIP3    H171870   4.959   0.697   4.849 -0.7899 -0.1853  1.0601
16793TIP3    H271871   4.980   0.845   4.827  0.8062 -0.1999  2.2410
16794TIP3   OH271872   2.693   0.373   3.847  0.1391 -0.1858  0.3767
16794TIP3    H171873   2.689   0.359   3.942 -1.8109  1.6817  0.6475
16794TIP3    H271874   2.606   0.407   3.825  0.6489 -0.3273 -2.0563
16795TIP3   OH271875   2.380   0.462   4.182 -0.7276  0.0924  0.2793
16795TIP3    H171876   2.332   0.544   4.193 -0.4424  0.0545  2.2315
16795TIP3    H271877   2.345   0.405   4.252  0.2311 -0.8754 -0.0018
16796TIP3   OH271878   5.642   0.595   2.954  0.2828 -0.0536  0.3998
16796TIP3    H171879   5.562   0.556   2.920  0.1978  1.3948 -1.2459
16796TIP3    H271880   5.707   0.525   2.950  0.0145 -0.2649 -1.9916
16797TIP3   OH271881   0.978   4.880   3.271 -0.4352  0.0813 -0.1582
16797TIP3    H171882   0.918   4.942   3.230  0.6090  0.9333 -0.4594
16797TIP3    H271883   1.028   4.843   3.198  1.2507  1.4049  0.2481
16798TIP3   OH271884   3.179   6.363  11.743  0.3807  0.2162  0.1501
16798TIP3    H171885   3.186   6.458  11.727 -0.0473  0.5248  1.6677
16798TIP3    H271886   3.127   6.356  11.823  1.1737 -1.2814  0.5574
16799TIP3   OH271887   5.327   2.308   2.581  0.2138  0.0109 -0.2743
16799TIP3    H171888   5.408   2.258   2.573  0.1488 -0.2737  0.7158
16799TIP3    H271889   5.322   2.330   2.674 -1.1656 -0.5461 -0.1917
16800TIP3   OH271890   2.247   4.269  13.170  0.3450 -0.6001 -0.2209
16800TIP3    H171891   2.233   4.344  13.112 -0.6957 -0.1180  0.6086
16800TIP3    H271892   2.321   4.295  13.225  0.6502 -0.6146 -0.6200
16801TIP3   OH271893   5.093   2.601   0.839  0.3669 -0.5097 -0.4701
16801TIP3    H171894   5.090   2.664   0.768 -1.9967 -0.7779 -0.7021
16801TIP3    H271895   5.134   2.523   0.801  1.0021  0.0336 -0.9127
16802TIP3   OH271896   0.216   6.466   2.866 -0.0686  0.4975  0.3629
16802TIP3    H171897   0.205   6.561   2.859  0.2702  0.4418 -1.2773
16802TIP3    H271898   0.228   6.437   2.776  0.8561 -0.9830  0.9373
16803TIP3   OH271899   4.065   4.882  16.163 -0.4410  0.3089 -0.1465
16803TIP3    H171900   4.009   4.957  16.141 -1.0160 -0.1014 -0.1071
16803TIP3    H271901   4.131   4.881  16.093 -0.9520  0.3273 -0.6418
16804TIP3   OH271902   1.537   4.402  14.889 -0.6874  0.2781 -0.0126
16804TIP3    H171903   1.510   4.329  14.833 -2.2184  1.4462 -0.9047
16804TIP3    H271904   1.479   4.396  14.965 -0.7316  0.4970 -0.0294
16805TIP3   OH271905   5.028   6.408   5.065 -0.3074  0.1349  0.4364
16805TIP3    H171906   4.953   6.355   5.039 -1.3019  1.6938 -0.0059
16805TIP3    H271907   5.019   6.419   5.159 -1.2005  1.1012  0.2577
16806TIP3   OH271908   4.455   2.428   4.499  0.7913 -0.9554 -0.1541
16806TIP3    H171909   4.535   2.383   4.470  1.2612 -0.8282  0.9158
16806TIP3    H271910   4.482   2.478   4.575 -0.0235  0.1414 -0.5669
16807TIP3   OH271911   0.123   1.627   0.098  0.0636  0.3878  0.4908
16807TIP3    H171912   0.179   1.621   0.021 -0.0366  1.1279  0.3499
16807TIP3    H271913   0.148   1.552   0.152 -0.3547 -0.5346 -0.5790
16808TIP3   OH271914   4.280   4.379  14.502 -0.3078 -0.1028  0.4726
16808TIP3    H171915   4.216   4.408  14.437 -0.1424  0.2008  0.4484
16808TIP3    H271916   4.227   4.330  14.566 -0.4278 -0.6528 -0.0405
16809TIP3   OH271917   1.843   0.187  17.273  0.0633  0.8608 -0.8642
16809TIP3    H171918   1.752   0.201  17.302  0.1022 -2.5511  1.4503
16809TIP3    H271919   1.835   0.132  17.195  0.1862  1.0496 -1.0138
16810TIP3   OH271920   1.082   3.387   1.741 -0.7449  0.0512 -0.4974
16810TIP3    H171921   1.070   3.480   1.761 -0.6086  0.3263 -1.6571
16810TIP3    H271922   0.994   3.350   1.742 -0.7970  0.1823 -0.0079
16811TIP3   OH271923   1.302   5.136   0.910  0.8069 -0.0288  0.0168
16811TIP3    H171924   1.207   5.143   0.911  0.7780  0.0225 -1.0551
16811TIP3    H271925   1.325   5.140   0.817  1.8141 -0.6489  0.2241
16812TIP3   OH271926   1.805   1.612  16.220  0.4065  0.0302 -0.7397
16812TIP3    H171927   1.816   1.626  16.314 -0.1959  0.3360 -0.7117
16812TIP3    H271928   1.881   1.559  16.195 -0.9446 -2.7276  0.5252
16813TIP3   OH271929   0.801   1.565   4.487  0.4303  0.0817  0.2905
16813TIP3    H171930   0.783   1.581   4.580 -1.1779  0.1621 -0.0062
16813TIP3    H271931   0.776   1.473   4.473 -0.8247  0.5023 -0.3766
16814TIP3   OH271932   1.759   6.797  14.996 -0.5945 -0.3753  0.0111
16814TIP3    H171933   1.680   6.744  14.986  0.6775 -2.1303 -1.4278
16814TIP3    H271934   1.796   6.769  15.080 -1.6628  0.7671  0.9031
16815TIP3   OH271935   4.429   1.588   3.949  0.0609 -0.0857 -0.6595
16815TIP3    H171936   4.515   1.626   3.970 -0.2698 -0.6995  2.1082
16815TIP3    H271937   4.444   1.493   3.950 -0.7962 -0.2348  0.8164
16816TIP3   OH271938   2.830   5.946  14.312 -0.5774  0.4201 -0.6810
16816TIP3    H171939   2.747   5.914  14.276 -0.0704 -0.9074 -0.7272
16816TIP3    H271940   2.856   5.879  14.375 -1.2149  2.4296  1.9162
16817TIP3   OH271941   0.542   3.899   5.736 -0.7682  0.0686 -0.2938
16817TIP3    H171942   0.510   3.833   5.674 -2.4011  0.9896 -0.4725
16817TIP3    H271943   0.479   3.897   5.808 -0.1669  0.6059  0.2602
16818TIP3   OH271944   4.132   3.215  15.348  0.3443  0.3959  0.0352
16818TIP3    H171945   4.164   3.181  15.264 -0.3431 -1.4642  0.4685
16818TIP3    H271946   4.119   3.308  15.333 -4.1997 -0.4107 -3.4928
16819TIP3   OH271947   0.489   2.469   4.667  0.4746  0.9412  0.4902
16819TIP3    H171948   0.470   2.393   4.722  2.4035 -1.0490 -1.3960
16819TIP3    H271949   0.405   2.491   4.627 -0.1010 -0.3299  0.9311
16820TIP3   OH271950   3.505   6.019  16.637  0.4498 -0.1260  0.0859
16820TIP3    H171951   3.439   6.087  16.654  1.1691  1.0113 -1.4055
16820TIP3    H271952   3.589   6.063  16.653  0.9365 -0.5850 -1.1226
16821TIP3   OH271953   1.664   4.609   5.615 -0.2185  0.3339  0.2890
16821TIP3    H171954   1.616   4.612   5.698 -1.7767 -1.9145 -0.4223
16821TIP3    H271955   1.665   4.516   5.592 -0.5013  0.9588 -2.5768
16822TIP3   OH271956   0.095   4.746  11.540 -0.9210 -0.0974 -0.4761
16822TIP3    H171957   0.022   4.736  11.479 -1.3638  0.3881 -0.0354
16822TIP3    H271958   0.055   4.784  11.619 -0.9404 -3.3656  1.2521
16823TIP3   OH271959   4.415   0.708   1.259  0.1217 -0.3776  0.0697
16823TIP3    H171960   4.437   0.781   1.201 -0.0552 -1.5265 -1.5016
16823TIP3    H271961   4.369   0.646   1.203  0.5530 -1.8489  1.2907
16824TIP3   OH271962   0.115   5.041   5.018  0.1943 -0.0459 -0.0570
16824TIP3    H171963   0.020   5.035   5.028 -0.2397  1.5783 -2.4466
16824TIP3    H271964   0.137   5.126   5.057  0.5385 -0.0454 -0.2576
16825TIP3   OH271965   5.401   4.590   3.623 -0.1449 -0.1933  0.1495
16825TIP3    H171966   5.440   4.616   3.539 -0.1955  0.7147  0.4008
16825TIP3    H271967   5.459   4.628   3.689  0.9358 -2.4126  0.5705
16826TIP3   OH271968   4.956   3.312  11.517 -0.2904  0.2304 -0.5815
16826TIP3    H171969   4.926   3.314  11.608 -0.4813 -0.0538 -0.6379
16826TIP3    H271970   5.051   3.319  11.523 -0.3475  0.9193 -0.3919
16827TIP3   OH271971   2.289   6.493  16.340  0.1721  0.3151 -0.3662
16827TIP3    H171972   2.228   6.442  16.393 -2.7471  2.3523 -1.5492
16827TIP3    H271973   2.370   6.441  16.341 -0.9504 -1.6497  2.7432
16828TIP3   OH271974   0.761   1.881  15.906  0.1774  0.1137  0.9406
16828TIP3    H171975   0.728   1.798  15.939  1.0372 -0.1146  1.2662
16828TIP3    H271976   0.691   1.915  15.850  0.1101 -1.1892  0.1912
16829TIP3   OH271977   3.570   4.904   0.065 -0.0841  0.0597 -0.8567
16829TIP3    H171978   3.616   4.945  -0.008 -0.0866  1.4364 -0.1194
16829TIP3    H271979   3.530   4.977   0.113 -0.7910 -0.8781  0.0421
16830TIP3   OH271980   6.375   1.711  11.836 -0.6550  0.3239 -0.3464
16830TIP3    H171981   6.321   1.762  11.898 -0.1762  3.6561 -2.3991
16830TIP3    H271982   6.365   1.757  11.753  1.8032 -1.6424 -1.8644
16831TIP3   OH271983   4.239   1.839  10.665 -0.6836 -0.6047  0.0888
16831TIP3    H171984   4.147   1.854  10.687 -0.6428 -1.1090  0.6344
16831TIP3    H271985   4.244   1.745  10.648 -0.4917 -0.4032 -1.0378
16832TIP3   OH271986   4.465   0.992   0.206 -0.5076 -0.0959  0.8828
16832TIP3    H171987   4.373   1.018   0.203 -0.1273  1.5140 -2.4883
16832TIP3    H271988   4.465   0.901   0.176 -0.9777  0.0500  0.4232
16833TIP3   OH271989   0.686   0.150   3.112 -0.0769  0.3990  0.0281
16833TIP3    H171990   0.663   0.067   3.072 -0.4594  0.6913 -0.3739
16833TIP3    H271991   0.648   0.145   3.200 -1.6272  0.8173 -0.5815
16834TIP3   OH271992   0.371   2.480  14.367 -0.2950 -0.0388 -0.7363
16834TIP3    H171993   0.328   2.490  14.282  0.0986  0.2123 -0.9093
16834TIP3    H271994   0.418   2.397  14.361 -0.3556 -0.0743 -0.7234
16835TIP3   OH271995   5.119   1.875   6.493  0.0243  0.3136 -0.0111
16835TIP3    H171996   5.026   1.867   6.470  0.1500 -1.3254 -0.0058
16835TIP3    H271997   5.118   1.926   6.575 -1.0268 -1.2433  1.0142
16836TIP3   OH271998   0.584   4.927   1.815  0.4838 -0.1616  0.1634
16836TIP3    H171999   0.498   4.885   1.807 -0.2860  1.1483  1.0371
16836TIP3    H272000   0.640   4.879   1.754 -0.4448 -2.0848  0.7361
16837TIP3   OH272001   6.767   5.634  15.695  0.3818 -0.4466  0.4268
16837TIP3    H172002   6.772   5.540  15.677  0.5547 -0.5446  0.9612
16837TIP3    H272003   6.849   5.653  15.741  0.7609  0.1464 -0.4842
16838TIP3   OH272004   1.187   6.106   0.563  1.0849  0.6778  0.6636
16838TIP3    H172005   1.271   6.122   0.520  1.7790 -0.9035  1.3140
16838TIP3    H272006   1.210   6.053   0.640 -0.6092 -0.7972  0.2227
16839TIP3   OH272007   3.406   5.604  12.527  0.0099 -0.1527 -0.4502
16839TIP3    H172008   3.338   5.660  12.490 -1.2237 -1.1883  0.1510
16839TIP3    H272009   3.398   5.614  12.621 -0.1291 -1.1844 -0.3336
16840TIP3   OH272010   0.153   1.393   5.612  0.4457 -0.2365  0.4585
16840TIP3    H172011   0.174   1.301   5.629  2.6575  0.3348  1.1383
16840TIP3    H272012   0.181   1.439   5.690  1.0641  1.2201 -0.5702
16841TIP3   OH272013   0.160   5.262  10.827  0.0524 -0.1054  0.1684
16841TIP3    H172014   0.075   5.306  10.823  0.1946  0.1246 -1.9338
16841TIP3    H272015   0.142   5.172  10.802  0.3387 -0.2118  0.3341
16842TIP3   OH272016   3.762   3.312   0.053  0.2988 -0.3868 -0.3086
16842TIP3    H172017   3.839   3.256   0.051  2.5705  2.4359  1.1104
16842TIP3    H272018   3.783   3.384  -0.007 -1.6819 -0.0487 -0.6650
16843TIP3   OH272019   4.046   3.249  10.147 -0.5083  0.0511 -0.3106
16843TIP3    H172020   4.117   3.313  10.147 -1.3468  1.0234  0.7403
16843TIP3    H272021   4.028   3.232  10.239 -1.3320 -0.5404 -0.5609
16844TIP3   OH272022   2.497   0.326   6.822  0.1374  0.5946  0.4529
16844TIP3    H172023   2.559   0.253   6.821 -0.2342  0.2796 -0.5664
16844TIP3    H272024   2.469   0.336   6.731 -1.4541  0.6043  0.9043
16845TIP3   OH272025   5.091   2.191   0.033  0.8054  0.2511  0.3398
16845TIP3    H172026   5.130   2.274   0.059 -1.2127  1.6641 -0.8393
16845TIP3    H272027   5.134   2.169  -0.050  1.9993 -0.4169  1.1046
16846TIP3   OH272028   6.668   5.955   5.602  0.0303  0.3605 -0.3765
16846TIP3    H172029   6.699   6.045   5.591  1.7969 -0.1963 -0.3927
16846TIP3    H272030   6.589   5.963   5.654  0.4965  1.8864  0.1656
16847TIP3   OH272031   2.772   3.697  13.447 -0.3132 -0.4091  0.0394
16847TIP3    H172032   2.814   3.621  13.486  0.9822 -1.3537 -2.8588
16847TIP3    H272033   2.840   3.736  13.392 -1.8851  0.9012 -1.0850
16848TIP3   OH272034   0.995   3.757   2.110 -0.4076  0.1793  0.5504
16848TIP3    H172035   1.004   3.717   2.024  0.2454 -0.0200  0.7027
16848TIP3    H272036   1.079   3.803   2.124 -0.5954  0.3983  0.9804
16849TIP3   OH272037   0.991   6.664  10.849  0.2590  0.1957  0.1581
16849TIP3    H172038   0.945   6.587  10.884 -3.6181  2.5455  0.7817
16849TIP3    H272039   1.033   6.703  10.925 -0.6452  0.4853  0.5256
16850TIP3   OH272040   5.090   3.776  14.004  0.3655  0.0840  0.1578
16850TIP3    H172041   5.028   3.703  14.012 -2.5668  2.5068  1.8724
16850TIP3    H272042   5.158   3.756  14.069 -0.8163 -0.7988  1.1863
16851TIP3   OH272043   0.715   1.337   4.413  0.0594 -0.3032 -0.6545
16851TIP3    H172044   0.639   1.279   4.408  1.7453 -2.6254 -0.4677
16851TIP3    H272045   0.757   1.328   4.327  0.3662  0.6672 -0.6165
16852TIP3   OH272046   0.062   6.409  15.558  0.0814 -0.9632  0.2987
16852TIP3    H172047  -0.001   6.356  15.509 -0.1477  0.5027 -1.0490
16852TIP3    H272048   0.009   6.457  15.621  0.3410 -2.6024  1.8574
16853TIP3   OH272049   0.063   0.760   2.929  0.0402 -0.0393 -0.0772
16853TIP3    H172050   0.007   0.837   2.943 -0.9721 -0.6597 -0.5763
16853TIP3    H272051   0.053   0.708   3.009 -0.6848 -0.4915 -0.4467
16854TIP3   OH272052   6.536   1.536  11.478  0.5155 -0.3260  0.1188
16854TIP3    H172053   6.589   1.478  11.532  0.4303  0.4734  1.0868
16854TIP3    H272054   6.585   1.619  11.476 -0.6549  0.4161  1.0023
16855TIP3   OH272055   0.225   0.200   5.107 -0.2953 -0.8143 -0.1803
16855TIP3    H172056   0.278   0.178   5.184  0.3913  0.2563 -0.3253
16855TIP3    H272057   0.276   0.168   5.033 -0.5317 -1.0425 -0.2470
16856TIP3   OH272058   5.527   4.547   5.298 -0.7399 -0.2223  0.2467
16856TIP3    H172059   5.448   4.601   5.300 -0.3373  0.4002 -0.5150
16856TIP3    H272060   5.590   4.595   5.352 -0.2685  0.2590 -0.7195
16857TIP3   OH272061   3.490   1.735   3.245  0.1155  0.4966  1.0311
16857TIP3    H172062   3.584   1.724   3.261  0.4398  2.0897  0.4294
16857TIP3    H272063   3.448   1.699   3.323  1.1517 -1.0557  0.9419
16858TIP3   OH272064   5.053   6.272   3.597 -0.3349 -0.3219  0.2712
16858TIP3    H172065   4.963   6.258   3.568 -0.8068  0.3986  1.3121
16858TIP3    H272066   5.092   6.185   3.596 -1.3590 -0.8154  0.7745
16859TIP3   OH272067   0.690   1.986   4.287 -0.3586  0.1696 -0.3454
16859TIP3    H172068   0.645   1.962   4.368 -0.5891  0.3098 -0.4281
16859TIP3    H272069   0.674   2.080   4.278  0.5110  0.3519 -0.0385
16860TIP3   OH272070   6.310   0.684  12.461 -0.2287 -0.0262 -0.3289
16860TIP3    H172071   6.302   0.711  12.370 -1.2866 -2.0480 -0.8974
16860TIP3    H272072   6.371   0.747  12.499 -0.0210  1.0777 -2.3253
16861TIP3   OH272073   5.520   6.058   4.954 -0.1241  0.4307 -0.7115
16861TIP3    H172074   5.515   5.981   4.897  1.3212  1.0013 -1.6801
16861TIP3    H272075   5.445   6.049   5.013  1.6993 -3.5022  1.4626
16862TIP3   OH272076   1.952   2.630  12.330 -0.1468 -0.0447  0.2166
16862TIP3    H172077   1.961   2.636  12.235 -0.9155  0.1636  0.1464
16862TIP3    H272078   1.990   2.711  12.363  2.0284 -1.0258  0.2532
16863TIP3   OH272079   2.438   0.869   0.252  0.0091 -0.2886 -0.3868
16863TIP3    H172080   2.381   0.900   0.322  1.1030  1.7585 -0.3386
16863TIP3    H272081   2.394   0.897   0.171  0.5347  0.5865 -0.3765
16864TIP3   OH272082   6.426   0.723  15.415  0.2325  0.0072 -0.0703
16864TIP3    H172083   6.354   0.660  15.422  0.5799 -0.3237  0.7347
16864TIP3    H272084   6.477   0.692  15.340 -0.3340  0.1153 -0.5082
16865TIP3   OH272085   6.796   0.405  11.114 -0.0163 -0.2908  0.0137
16865TIP3    H172086   6.846   0.369  11.041 -1.5825 -0.9744 -0.7689
16865TIP3    H272087   6.705   0.400  11.086 -0.6984 -0.7990  2.1044
16866TIP3   OH272088   6.633   3.470   5.749  0.5761  0.1998  0.1182
16866TIP3    H172089   6.548   3.426   5.750  0.1947  0.7394 -2.0809
16866TIP3    H272090   6.612   3.562   5.735  1.5001  0.5088  0.6883
16867TIP3   OH272091   2.535   3.667   4.829  0.5761 -0.3798  0.3607
16867TIP3    H172092   2.505   3.582   4.799  0.0709  0.1807 -0.7956
16867TIP3    H272093   2.468   3.729   4.799  0.3141  0.2999  2.2284
16868TIP3   OH272094   6.038   5.372   0.321 -0.3295  0.0409 -0.0713
16868TIP3    H172095   6.102   5.406   0.384  0.7860 -0.6717 -0.7878
16868TIP3    H272096   6.089   5.314   0.264 -1.5797 -0.3749 -0.8005
16869TIP3   OH272097   3.786   6.112  16.708  0.2346  0.0881  0.1151
16869TIP3    H172098   3.774   6.206  16.693 -1.7152 -0.4573 -2.5114
16869TIP3    H272099   3.868   6.092  16.664  2.5808  1.0040  3.6611
16870TIP3   OH272100   2.987   4.780   0.870  0.0277 -0.4090  0.4086
16870TIP3    H172101   2.912   4.756   0.925 -0.0087 -0.3838  0.3698
16870TIP3    H272102   3.053   4.811   0.933 -0.3842  0.6054  0.3721
16871TIP3   OH272103   0.941   2.937  11.803 -0.2148 -0.3959 -0.7116
16871TIP3    H172104   0.882   2.991  11.751 -0.6442 -0.5197 -0.3592
16871TIP3    H272105   0.886   2.903  11.874  0.5099  0.3028  0.2088
16872TIP3   OH272106   4.573   4.218   0.240 -0.0360  0.1614  0.2711
16872TIP3    H172107   4.649   4.268   0.211 -0.1142 -0.0309 -0.2928
16872TIP3    H272108   4.535   4.185   0.159 -0.5754  0.0472  0.5675
16873TIP3   OH272109   3.864   4.286   4.264 -0.2036  0.6486  0.0760
16873TIP3    H172110   3.779   4.282   4.220 -0.5776 -1.0739  0.8579
16873TIP3    H272111   3.843   4.298   4.357  0.4770  1.5994  0.1230
16874TIP3   OH272112   6.280   5.486  14.171 -0.4193  0.3431 -0.0575
16874TIP3    H172113   6.344   5.547  14.207 -2.5519  1.9148  1.3784
16874TIP3    H272114   6.210   5.542  14.137 -0.9604 -1.2694 -1.7487
16875TIP3   OH272115   2.716   0.661   3.829  0.0124  0.0495  0.3963
16875TIP3    H172116   2.689   0.661   3.922  1.0234 -0.4081  0.6962
16875TIP3    H272117   2.727   0.569   3.807  1.2253  0.2133  0.2600
16876TIP3   OH272118   5.376   4.574   0.539  0.5578  0.6341 -0.2775
16876TIP3    H172119   5.441   4.622   0.488 -0.0135  0.5191 -1.1326
16876TIP3    H272120   5.414   4.568   0.626  0.7114  2.4851 -0.1855
16877TIP3   OH272121   6.033   6.710  15.635 -0.6239  0.1348 -0.5101
16877TIP3    H172122   6.114   6.754  15.660 -1.1867  0.8742  0.0572
16877TIP3    H272123   5.966   6.778  15.641 -1.1130 -0.1643 -2.1054
16878TIP3   OH272124   0.158   1.985  15.427 -0.0445  0.1361  0.3058
16878TIP3    H172125   0.092   2.032  15.376 -1.3492 -0.6562  1.1982
16878TIP3    H272126   0.242   2.013  15.389 -0.8561  1.4692 -0.6079
16879TIP3   OH272127   2.320   0.868  17.268  0.3905  0.3961  0.1385
16879TIP3    H172128   2.258   0.920  17.218  0.0061  0.5074  0.7151
16879TIP3    H272129   2.377   0.829  17.203  0.7809  1.6530 -0.3048
16880TIP3   OH272130   4.336   2.962  16.614 -0.3822 -0.5482  1.0411
16880TIP3    H172131   4.316   2.915  16.696 -1.4053 -0.9530  0.5671
16880TIP3    H272132   4.408   2.912  16.576 -0.5915 -0.9684  1.1881
16881TIP3   OH272133   5.855   3.324   5.621  0.0006  0.3715  0.5582
16881TIP3    H172134   5.808   3.406   5.605 -0.5537  0.4043  2.1431
16881TIP3    H272135   5.883   3.331   5.712  1.8972 -0.2597  0.0612
16882TIP3   OH272136   5.697   6.786  15.179 -0.2024 -0.4550  0.0349
16882TIP3    H172137   5.626   6.799  15.242 -0.8543  2.6376 -1.1531
16882TIP3    H272138   5.769   6.841  15.212 -0.4135  0.8950 -1.6062
16883TIP3   OH272139   1.385   6.297   3.346  0.0940  0.5690  0.8891
16883TIP3    H172140   1.455   6.359   3.327 -0.1928  0.4804 -0.5299
16883TIP3    H272141   1.323   6.347   3.400 -0.2681  1.6346 -0.4492
16884TIP3   OH272142   4.614   6.594  14.742  0.0397 -0.5892  0.4907
16884TIP3    H172143   4.593   6.548  14.823  1.3818 -1.3972  0.4237
16884TIP3    H272144   4.529   6.615  14.703 -0.6471  0.3562  2.3780
16885TIP3   OH272145   2.925   2.646   4.898 -0.5638  0.3530 -0.0410
16885TIP3    H172146   2.882   2.598   4.970  0.4364 -2.0966 -0.9599
16885TIP3    H272147   3.017   2.620   4.904 -0.0037  2.0672 -0.7558
16886TIP3   OH272148   2.242   0.933  15.483 -0.0630 -0.0876  0.2111
16886TIP3    H172149   2.188   0.881  15.543  0.8288 -0.1494  0.9795
16886TIP3    H272150   2.218   0.902  15.396 -3.0496  1.5203  0.2949
16887TIP3   OH272151   2.078   0.033   4.493  0.5298  0.4489  0.3339
16887TIP3    H172152   2.067   0.110   4.437  1.0020 -1.2118 -2.1880
16887TIP3    H272153   2.169   0.035   4.520  0.1562  1.5705  1.5651
16888TIP3   OH272154   1.431   0.514   0.932  0.2837 -0.0108  0.1950
16888TIP3    H172155   1.408   0.607   0.942  1.2229  0.3961 -1.0395
16888TIP3    H272156   1.353   0.474   0.895 -0.6214 -0.0338  2.0295
16889TIP3   OH272157   0.913   0.084   5.667 -0.5622  0.8639  0.0094
16889TIP3    H172158   0.846   0.033   5.712  0.2092 -0.0028  0.1941
16889TIP3    H272159   0.991   0.076   5.722  0.6007 -0.7881 -1.7272
16890TIP3   OH272160   2.985   1.074  13.241  0.3938 -0.2161  0.1097
16890TIP3    H172161   3.038   1.076  13.321 -1.3270  0.0416  1.3005
16890TIP3    H272162   2.970   1.166  13.219  1.5835 -0.2679 -1.0609
16891TIP3   OH272163   0.966   1.692  14.459 -0.1145  0.7754  0.3318
16891TIP3    H172164   0.889   1.737  14.425 -1.5680 -1.5815  0.2421
16891TIP3    H272165   1.031   1.700  14.390 -0.3425  2.5171  0.2631
16892TIP3   OH272166   5.987   0.339   3.674  0.7276 -0.0703  0.5768
16892TIP3    H172167   6.049   0.392   3.726  0.8947  0.8491 -0.5202
16892TIP3    H272168   6.043   0.279   3.625  0.7094  0.2937  0.1048
16893TIP3   OH272169   5.154   1.610  16.761  0.0042 -0.2310 -0.1826
16893TIP3    H172170   5.066   1.620  16.724  0.1504  0.0761 -0.4534
16893TIP3    H272171   5.144   1.544  16.829 -0.5576  0.2275  0.1924
16894TIP3   OH272172   6.713   3.828  16.559  0.2383 -0.0361 -0.1173
16894TIP3    H172173   6.763   3.909  16.571  0.9393 -0.6592  1.4735
16894TIP3    H272174   6.641   3.852  16.502  1.6338  1.2085 -1.4264
16895TIP3   OH272175   1.943   6.717   2.041 -0.0633 -0.4619 -0.0920
16895TIP3    H172176   1.938   6.768   1.961 -1.7497 -0.0128  0.2657
16895TIP3    H272177   2.005   6.647   2.021  1.3186  0.9608 -1.0068
16896TIP3   OH272178   0.563   3.565   0.402  0.0520 -0.0712 -0.2494
16896TIP3    H172179   0.586   3.521   0.484 -1.9816  0.7076  0.8272
16896TIP3    H272180   0.641   3.615   0.378  1.4540 -2.0467 -0.0368
16897TIP3   OH272181   1.427   2.908   3.418 -0.7147 -1.0839 -0.0836
16897TIP3    H172182   1.460   2.884   3.331  0.5641  0.0289  0.0587
16897TIP3    H272183   1.506   2.927   3.469 -1.4839  2.2015  0.1205
16898TIP3   OH272184   1.990   4.020  15.525 -0.1057  0.0777 -0.4970
16898TIP3    H172185   2.014   4.018  15.618 -0.5395 -0.8453 -0.3927
16898TIP3    H272186   1.914   4.078  15.521  0.2081  0.5000 -0.3492
16899TIP3   OH272187   6.702   5.746  14.979 -0.2652  0.0730 -0.7404
16899TIP3    H172188   6.784   5.703  14.953 -0.7963 -1.9193  0.6484
16899TIP3    H272189   6.689   5.815  14.913  2.6700  0.6852 -0.7925
16900TIP3   OH272190   1.436   3.113  11.407  0.2556 -0.6128 -0.5666
16900TIP3    H172191   1.362   3.121  11.467  0.4503 -1.3095 -0.2226
16900TIP3    H272192   1.424   3.184  11.344 -1.5595 -1.6468 -1.4643
16901TIP3   OH272193   3.696   2.221  15.768 -0.4636  0.0503 -0.0261
16901TIP3    H172194   3.694   2.183  15.680  0.3875 -0.3850  0.1245
16901TIP3    H272195   3.616   2.190  15.810  0.1753 -1.5618  0.0735
16902TIP3   OH272196   3.538   4.670   5.905  0.1387  0.0963  0.1091
16902TIP3    H172197   3.603   4.661   5.835  1.3897  0.8997  1.1046
16902TIP3    H272198   3.585   4.643   5.984 -0.4525  1.5141  0.9783
16903TIP3   OH272199   2.673   1.830  14.598 -0.1074 -0.0073 -0.3351
16903TIP3    H172200   2.655   1.867  14.511 -1.0738  0.0826 -0.1089
16903TIP3    H272201   2.622   1.749  14.600 -0.8214  0.4446  0.4749
16904TIP3   OH272202   2.902   4.635  14.782 -0.3666  0.0395  0.1999
16904TIP3    H172203   2.836   4.670  14.841 -2.7897 -2.2287 -0.9589
16904TIP3    H272204   2.921   4.707  14.721 -0.5674  1.2064  1.4694
16905TIP3   OH272205   6.572   2.301   0.879  0.0002  0.0237 -0.4685
16905TIP3    H172206   6.571   2.348   0.963  0.7058  0.9258 -0.9541
16905TIP3    H272207   6.554   2.210   0.903  1.7258 -0.0192  0.8556
16906TIP3   OH272208   4.385   0.359   6.036 -0.0324 -0.0446 -0.0773
16906TIP3    H172209   4.411   0.397   5.952 -0.8698 -1.3046 -0.9545
16906TIP3    H272210   4.347   0.432   6.085 -2.1956  0.2101 -1.9367
16907TIP3   OH272211   0.695   4.228   6.287 -0.0595 -0.0355 -0.5528
16907TIP3    H172212   0.717   4.306   6.236 -0.9943  2.1203  2.1389
16907TIP3    H272213   0.600   4.226   6.289 -0.0505 -0.1521  0.9103
16908TIP3   OH272214   5.853   5.124   3.876 -0.2022  0.0952  0.4172
16908TIP3    H172215   5.825   5.195   3.818 -2.6889 -0.6133  0.6446
16908TIP3    H272216   5.787   5.057   3.865  0.3451 -0.8838  2.6046
16909TIP3   OH272217   0.449   4.682   5.896  0.0070  0.6875 -0.2650
16909TIP3    H172218   0.541   4.705   5.909 -0.1964  1.1627  0.4230
16909TIP3    H272219   0.403   4.766   5.898 -0.2947  0.6178 -2.1740
16910TIP3   OH272220   2.117   2.689   5.122 -0.3507  0.1330  0.5185
16910TIP3    H172221   2.158   2.630   5.185  0.1812  0.6568  0.6674
16910TIP3    H272222   2.165   2.771   5.131  0.1968  0.0205 -1.0515
16911TIP3   OH272223   5.485   4.908  13.824  0.4444  0.3481  0.2659
16911TIP3    H172224   5.393   4.932  13.815  0.3407  0.4092  1.3997
16911TIP3    H272225   5.505   4.859  13.744 -1.1873 -1.6563  1.0217
16912TIP3   OH272226   0.313   5.325  17.223  0.4524 -0.2480  0.1209
16912TIP3    H172227   0.237   5.338  17.280  0.2715 -2.3202  0.4215
16912TIP3    H272228   0.275   5.295  17.140  0.8472  0.5454 -0.3550
16913TIP3   OH272229   6.758   2.922  11.256 -0.7291 -0.7003 -0.2221
16913TIP3    H172230   6.790   2.974  11.330 -1.0397 -0.8536  0.0209
16913TIP3    H272231   6.698   2.980  11.210  1.1567  0.2043 -1.6735
16914TIP3   OH272232   3.265   6.806   1.598 -0.2179 -0.4967 -0.0089
16914TIP3    H172233   3.305   6.748   1.663  0.9995  0.2816 -0.0309
16914TIP3    H272234   3.336   6.864   1.571 -1.3801  0.9680 -0.0208
16915TIP3   OH272235   4.502   6.789  12.227 -0.3832  0.0423  0.7116
16915TIP3    H172236   4.535   6.701  12.213  0.8030  0.5938 -0.0515
16915TIP3    H272237   4.511   6.833  12.142 -0.8330  0.9441  1.1107
16916TIP3   OH272238   5.317   0.261   5.783  0.7085 -0.3355 -0.2133
16916TIP3    H172239   5.346   0.247   5.873 -0.3434  0.1018  0.2145
16916TIP3    H272240   5.261   0.185   5.765  1.5460 -0.8290 -0.7881
16917TIP3   OH272241   0.745   1.636   0.761  0.7128  0.2818  0.6978
16917TIP3    H172242   0.689   1.567   0.728  0.5559  1.1532 -0.9455
16917TIP3    H272243   0.715   1.715   0.717  1.6977  1.1943  1.5828
16918TIP3   OH272244   5.196   2.371   2.279 -0.4389 -0.3143  0.1771
16918TIP3    H172245   5.199   2.297   2.218 -0.3572  0.1031 -0.3315
16918TIP3    H272246   5.257   2.347   2.349  2.3355  0.7626 -1.7031
16919TIP3   OH272247   5.489   0.716  13.575 -0.0116  0.7291  0.4097
16919TIP3    H172248   5.502   0.666  13.656 -1.2056  1.2982  0.9834
16919TIP3    H272249   5.577   0.741  13.548  0.3920  0.7960  1.7047
16920TIP3   OH272250   2.810   1.208  12.157 -0.4058 -0.2048 -0.5060
16920TIP3    H172251   2.859   1.131  12.131 -0.3424 -0.8287  1.3147
16920TIP3    H272252   2.834   1.275  12.093  1.9715 -0.7960 -0.3071
16921TIP3   OH272253   1.018   1.800   3.169  0.4397  0.3135  0.2082
16921TIP3    H172254   1.046   1.837   3.085 -0.1657 -0.2357 -0.2445
16921TIP3    H272255   1.100   1.778   3.213  0.8073 -1.5814 -1.2437
16922TIP3   OH272256   1.539   5.186  10.995 -0.3085  0.3705  0.2086
16922TIP3    H172257   1.469   5.237  10.954  0.1987 -0.6019 -2.0450
16922TIP3    H272258   1.503   5.098  11.004  0.5824 -0.1580 -1.0306
16923TIP3   OH272259   0.073   2.456   0.546  0.7645  0.7170  0.3047
16923TIP3    H172260   0.029   2.388   0.597  0.1282  0.5797 -0.4128
16923TIP3    H272261   0.157   2.469   0.591 -0.0232  1.0431  1.7459
16924TIP3   OH272262   3.537   3.976   6.045  0.5341 -0.1701  0.1846
16924TIP3    H172263   3.549   4.066   6.015 -0.1007 -1.2005 -3.7368
16924TIP3    H272264   3.618   3.956   6.093  1.0613  2.1527  0.3848
16925TIP3   OH272265   6.599   3.888   2.506 -0.5407  0.4071  0.3282
16925TIP3    H172266   6.610   3.979   2.479 -1.8329  0.4307 -0.1951
16925TIP3    H272267   6.530   3.890   2.572 -0.2222 -0.1384  0.6892
16926TIP3   OH272268   4.431   6.690   2.402 -0.0321 -0.4431  0.5813
16926TIP3    H172269   4.460   6.758   2.341  0.0609  0.1214  1.2385
16926TIP3    H272270   4.351   6.655   2.363 -0.1471  0.1287  0.2931
16927TIP3   OH272271   5.183   6.344   5.816  0.0088 -0.2946 -0.3101
16927TIP3    H172272   5.262   6.289   5.812  0.5608  0.5112 -0.8629
16927TIP3    H272273   5.154   6.337   5.907  0.7646 -0.5563 -0.0757
16928TIP3   OH272274   4.078   4.647   0.206  0.1301  0.6390  0.0726
16928TIP3    H172275   4.061   4.563   0.162 -1.8087  1.1935 -0.3393
16928TIP3    H272276   4.020   4.646   0.282 -1.0548  2.1974 -0.7566
16929TIP3   OH272277   6.077   0.036   1.002 -0.3389 -0.5247 -0.3130
16929TIP3    H172278   6.119  -0.050   1.014  2.7053  0.7815 -0.5970
16929TIP3    H272279   6.022   0.025   0.925  0.4934 -2.0864 -0.7385
16930TIP3   OH272280   6.675   6.824   2.814  0.2554 -0.1634 -0.2383
16930TIP3    H172281   6.603   6.847   2.873 -0.7437 -2.3575 -0.4830
16930TIP3    H272282   6.705   6.907   2.779 -1.5208  0.9038  0.6216
16931TIP3   OH272283   5.690   5.270  16.995 -0.0414 -0.1007  0.0127
16931TIP3    H172284   5.703   5.226  17.079 -0.9379  1.9691  1.3099
16931TIP3    H272285   5.773   5.315  16.978  0.1279 -0.4908 -0.2090
16932TIP3   OH272286   2.161   0.467   2.639 -0.0443 -0.2029  0.2546
16932TIP3    H172287   2.198   0.556   2.639 -1.3772  0.3949 -1.1301
16932TIP3    H272288   2.066   0.482   2.639 -0.2861 -1.6526  0.7521
16933TIP3   OH272289   0.695   6.373  16.473 -0.3511 -0.2050 -0.3195
16933TIP3    H172290   0.623   6.423  16.513 -2.0451 -1.3934 -1.7296
16933TIP3    H272291   0.680   6.380  16.379  1.9846  0.2839 -0.7106
16934TIP3   OH272292   1.865   2.316   0.416 -0.0414  0.3045  0.2510
16934TIP3    H172293   1.951   2.317   0.374  0.4816  1.2580  1.3152
16934TIP3    H272294   1.804   2.311   0.343  0.9001 -1.2601 -0.5089
16935TIP3   OH272295   1.538   2.355   1.252 -0.0196 -0.1524 -0.0985
16935TIP3    H172296   1.633   2.345   1.254 -0.0847 -0.8750 -0.2622
16935TIP3    H272297   1.521   2.431   1.307  0.7524  0.8350 -1.1775
16936TIP3   OH272298   5.600   0.258  13.353 -0.2491  0.0898 -0.2455
16936TIP3    H172299   5.637   0.342  13.381  2.2322 -1.4209  1.3505
16936TIP3    H272300   5.550   0.227  13.428 -0.8853 -0.0388 -0.7130
16937TIP3   OH272301   0.894   4.908  13.536  0.2467  0.2952 -0.2125
16937TIP3    H172302   0.806   4.887  13.507 -0.0765  1.0979  0.1504
16937TIP3    H272303   0.923   4.976  13.475  0.7282 -0.1676 -0.5083
16938TIP3   OH272304   3.865   2.733  15.117  0.2917 -0.1785 -0.0830
16938TIP3    H172305   3.880   2.794  15.044 -0.4084 -0.9030 -0.8605
16938TIP3    H272306   3.940   2.674  15.113 -0.9842 -1.8196 -1.9244
16939TIP3   OH272307   5.665   2.946   0.897  0.1819  0.0927 -0.2634
16939TIP3    H172308   5.604   2.885   0.856 -0.2833  0.6664 -0.4343
16939TIP3    H272309   5.623   3.032   0.889  0.6553  0.3869  0.3057
16940TIP3   OH272310   1.736   4.290  16.787  0.4148 -0.2000 -0.0162
16940TIP3    H172311   1.796   4.348  16.835 -1.0579  0.4501  1.1025
16940TIP3    H272312   1.697   4.235  16.854 -0.5005 -0.3888 -0.6862
16941TIP3   OH272313   6.567   4.218  12.565  0.3116  0.1363 -1.0238
16941TIP3    H172314   6.541   4.274  12.638  3.3606  1.8038 -1.0312
16941TIP3    H272315   6.588   4.134  12.605  0.0764  0.4262 -0.2742
16942TIP3   OH272316   5.800   0.389  14.653  0.3977 -0.0980 -0.4913
16942TIP3    H172317   5.774   0.468  14.605 -0.3897  0.3991  0.7221
16942TIP3    H272318   5.887   0.410  14.688  1.5128 -0.8864 -2.5686
16943TIP3   OH272319   3.024   3.018  12.549  0.1910 -0.0638  0.4337
16943TIP3    H172320   3.065   3.032  12.635  0.7592 -0.4518  0.2270
16943TIP3    H272321   2.989   3.104  12.526 -1.8134 -0.3764  1.9949
16944TIP3   OH272322   3.274   4.747  17.089  0.2049  0.1734  0.0576
16944TIP3    H172323   3.257   4.792  17.171 -1.1135 -0.7046  0.2906
16944TIP3    H272324   3.295   4.818  17.027  0.2075  0.9216  0.8927
16945TIP3   OH272325   6.084   6.192  11.965 -0.0940  0.6439  0.7083
16945TIP3    H172326   6.077   6.210  11.871  0.4006  0.3443  0.6077
16945TIP3    H272327   6.006   6.232  12.003 -1.2006 -0.6906 -0.0374
16946TIP3   OH272328   3.034   2.738   0.369  1.0870  0.0406 -0.5988
16946TIP3    H172329   3.005   2.718   0.458  0.6765  3.2713  0.1112
16946TIP3    H272330   2.953   2.739   0.317  1.2338 -1.0512 -0.8721
16947TIP3   OH272331   5.840   0.706   2.513 -0.0330 -0.3164 -0.2747
16947TIP3    H172332   5.867   0.793   2.543 -0.5776  0.3271 -1.5755
16947TIP3    H272333   5.899   0.646   2.558  0.5755  0.7449  0.3941
16948TIP3   OH272334   1.419   5.280   3.562  0.4497 -0.0281 -0.4075
16948TIP3    H172335   1.486   5.265   3.629  1.0371  0.4519 -0.8689
16948TIP3    H272336   1.460   5.342   3.501  0.8593 -2.2315 -2.5150
16949TIP3   OH272337   0.679   0.179   2.207  0.3246 -0.4494 -0.3414
16949TIP3    H172338   0.595   0.208   2.171 -0.0945  0.1405  1.0205
16949TIP3    H272339   0.693   0.092   2.169  0.4845  0.5571 -2.7483
16950TIP3   OH272340   3.252   0.156  15.060  0.8454 -0.2142  0.4284
16950TIP3    H172341   3.163   0.132  15.036  0.8942  0.2302 -0.2272
16950TIP3    H272342   3.269   0.109  15.141  0.6620 -1.7219 -0.3785
16951TIP3   OH272343   1.989   0.108  12.695 -0.1232 -0.1423 -0.7875
16951TIP3    H172344   2.074   0.080  12.662  0.3110 -1.1333  0.9981
16951TIP3    H272345   1.997   0.101  12.791 -1.5537  1.7004 -0.4708
16952TIP3   OH272346   3.189   5.123   2.465  0.2438  0.4622 -0.5674
16952TIP3    H172347   3.177   5.130   2.371 -1.2930 -2.1513 -0.6598
16952TIP3    H272348   3.236   5.041   2.478  1.0636  1.1227  0.9285
16953TIP3   OH272349   0.501   3.665   1.164  0.1214  0.0143  0.0654
16953TIP3    H172350   0.457   3.746   1.191 -0.8190 -0.1955 -0.8109
16953TIP3    H272351   0.493   3.664   1.069  0.5678 -0.8715  0.0295
16954TIP3   OH272352   5.894   3.249   3.579 -0.5558  0.1172  0.1250
16954TIP3    H172353   5.985   3.241   3.550 -0.6609  0.8568 -0.4591
16954TIP3    H272354   5.846   3.190   3.522 -0.2133 -1.8071  1.7441
16955TIP3   OH272355   1.869   1.202   1.744 -0.6253  0.8125  0.2669
16955TIP3    H172356   1.948   1.153   1.764 -0.9072  0.3055  0.1691
16955TIP3    H272357   1.879   1.228   1.653 -0.2946  1.2929  0.4343
16956TIP3   OH272358   4.052   1.772  16.450  0.3348  0.0936  0.7448
16956TIP3    H172359   3.978   1.833  16.455  1.4064  1.6297 -0.8538
16956TIP3    H272360   4.041   1.729  16.365 -0.1711 -1.7072  1.6746
16957TIP3   OH272361   3.399   0.715  16.702 -0.2711  0.3082  0.3959
16957TIP3    H172362   3.460   0.738  16.772 -0.3713 -1.3835  1.0929
16957TIP3    H272363   3.314   0.746  16.734 -0.4398 -1.0849  1.4136
16958TIP3   OH272364   4.334   6.162  13.542 -0.2463  0.1833  0.3284
16958TIP3    H172365   4.373   6.079  13.566  0.4079  0.1964 -0.6040
16958TIP3    H272366   4.254   6.139  13.494 -1.4672  0.1570  2.2644
16959TIP3   OH272367   6.267   6.285   6.218  0.2041 -0.3533 -0.6695
16959TIP3    H172368   6.331   6.332   6.271  1.7544 -2.6036 -0.4299
16959TIP3    H272369   6.215   6.236   6.282 -0.4530 -0.1256 -1.0126
16960TIP3   OH272370   6.054   4.663  13.303  0.4821 -0.6819 -0.2016
16960TIP3    H172371   5.997   4.625  13.370  0.2119  2.8586  1.8184
16960TIP3    H272372   6.015   4.636  13.220 -2.1752 -1.1660  1.1028
16961TIP3   OH272373   1.420   1.670   3.499  0.1225  0.8670  0.3835
16961TIP3    H172374   1.361   1.615   3.448  0.9562  0.6789 -0.4074
16961TIP3    H272375   1.420   1.754   3.453 -0.2562  1.1685  0.9260
16962TIP3   OH272376   2.807   4.215   5.927 -0.1459  0.0509 -0.3219
16962TIP3    H172377   2.794   4.267   6.007  1.1027 -0.6295  0.3640
16962TIP3    H272378   2.870   4.267   5.876 -0.6072  0.2725 -0.6698
16963TIP3   OH272379   3.376   0.495   2.735 -0.1122  0.2081 -0.2517
16963TIP3    H172380   3.322   0.416   2.729  0.2445  0.0592 -2.9691
16963TIP3    H272381   3.375   0.518   2.827 -1.7541 -1.9103  0.3434
16964TIP3   OH272382   5.907   0.510   2.955 -0.2168 -0.0390 -0.2496
16964TIP3    H172383   5.986   0.458   2.946 -0.0428 -0.0870  1.2895
16964TIP3    H272384   5.909   0.571   2.881  0.5050 -0.9948 -1.0332
16965TIP3   OH272385   0.606   4.065  15.322 -0.5110  0.0857  0.0386
16965TIP3    H172386   0.697   4.052  15.297  0.2003  4.2333 -0.2605
16965TIP3    H272387   0.569   4.117  15.251 -2.4081  0.5778  1.2963
16966TIP3   OH272388   4.729   2.963  13.259  0.0009 -0.3458  0.0302
16966TIP3    H172389   4.635   2.975  13.270 -0.1416 -0.6369 -0.8054
16966TIP3    H272390   4.768   3.042  13.296 -0.6088  0.0588 -0.1790
16967TIP3   OH272391   6.170   0.586  15.104  0.2470 -0.3311 -0.3449
16967TIP3    H172392   6.170   0.679  15.125  0.0350 -0.3739 -0.1617
16967TIP3    H272393   6.248   0.552  15.148 -0.0923 -0.3850  0.2184
16968TIP3   OH272394   5.500   3.292  16.097 -0.4245  0.5021  0.0176
16968TIP3    H172395   5.415   3.275  16.055  0.6624  0.5773 -2.3460
16968TIP3    H272396   5.563   3.293  16.026  2.0409 -2.1809  1.9235
16969TIP3   OH272397   2.633   5.428   3.778 -0.5727 -0.1990 -0.1550
16969TIP3    H172398   2.636   5.523   3.789  2.2228 -0.2364  0.0834
16969TIP3    H272399   2.542   5.404   3.798 -1.1433  2.3120  0.5668
16970TIP3   OH272400   0.098   0.026  14.697 -0.5944 -0.6054  0.2079
16970TIP3    H172401   0.158  -0.013  14.762 -1.5259  0.2077  1.6142
16970TIP3    H272402   0.035  -0.043  14.678 -1.0189 -0.4835  1.1099
16971TIP3   OH272403   4.824   4.239  17.223 -0.0839  0.3279 -0.4344
16971TIP3    H172404   4.789   4.295  17.292 -1.3578  0.0409 -0.8163
16971TIP3    H272405   4.778   4.266  17.144  0.1613 -0.4457 -0.8581
16972TIP3   OH272406   6.244   5.718  15.388  0.0050  0.0554 -0.0219
16972TIP3    H172407   6.289   5.802  15.399 -0.9497  0.5029  0.6175
16972TIP3    H272408   6.310   5.660  15.350  0.2506  1.4976 -1.9362
16973TIP3   OH272409   0.422   5.168   1.466  0.0534 -0.4973 -0.3536
16973TIP3    H172410   0.509   5.135   1.488 -0.8151 -2.4070  0.3475
16973TIP3    H272411   0.370   5.090   1.450 -1.8465  0.5725  0.3658
16974TIP3   OH272412   2.419   0.860  11.296 -0.2672  0.2916 -0.1539
16974TIP3    H172413   2.353   0.792  11.310 -0.2526  0.3423  0.1581
16974TIP3    H272414   2.495   0.812  11.262 -0.2459  0.1484  0.0969
16975TIP3   OH272415   2.858   5.910  15.308  0.3992  0.2817 -0.5403
16975TIP3    H172416   2.915   5.852  15.257  0.2170 -0.9162  0.5964
16975TIP3    H272417   2.908   5.931  15.387 -0.0738  0.5955 -0.3173
16976TIP3   OH272418   0.881   3.500   5.455  0.5739  0.6152  0.1564
16976TIP3    H172419   0.943   3.489   5.527 -1.5977 -1.2149  1.9191
16976TIP3    H272420   0.867   3.411   5.422 -3.8669  0.1380  2.4900
16977TIP3   OH272421   2.785   4.335  17.068  0.0898  0.3923  0.5980
16977TIP3    H172422   2.755   4.247  17.087  0.0955  0.2237 -0.1447
16977TIP3    H272423   2.878   4.325  17.048 -0.1347  0.4048 -0.5152
16978TIP3   OH272424   3.561   3.017  14.332  0.2047  0.0529 -0.4012
16978TIP3    H172425   3.589   3.087  14.391 -0.5559  0.6396 -0.7143
16978TIP3    H272426   3.641   2.968  14.313  0.3945 -0.3784  1.3987
16979TIP3   OH272427   5.786   6.811  11.300 -0.7231 -0.1562 -0.2195
16979TIP3    H172428   5.861   6.862  11.268 -0.1789 -0.1090  1.0660
16979TIP3    H272429   5.776   6.740  11.236  0.4187 -0.1560 -0.4268
16980TIP3   OH272430   5.329   2.255  14.905 -0.3169 -0.1769 -0.0728
16980TIP3    H172431   5.379   2.173  14.895 -1.4524 -0.9538  0.3574
16980TIP3    H272432   5.238   2.226  14.914 -0.6013  1.0447  1.4646
16981TIP3   OH272433   2.360   3.517  11.360  0.2605 -0.0170  0.5762
16981TIP3    H172434   2.317   3.602  11.366  1.3625  0.4946  2.2220
16981TIP3    H272435   2.388   3.510  11.269 -2.1840  0.1349 -0.2554
16982TIP3   OH272436   3.253   1.652  12.288 -0.4018  0.0982 -0.5549
16982TIP3    H172437   3.160   1.661  12.310 -0.2753  0.5498 -0.2073
16982TIP3    H272438   3.265   1.706  12.209 -0.2255  0.8426 -0.0280
16983TIP3   OH272439   2.818   4.007   3.687 -0.1222  0.5377 -0.2654
16983TIP3    H172440   2.845   3.932   3.634  0.2767  0.0447  0.6336
16983TIP3    H272441   2.899   4.038   3.728 -0.3179  1.3289 -0.4414
16984TIP3   OH272442   5.822   0.488   0.471  0.3324 -0.6126  0.3282
16984TIP3    H172443   5.878   0.411   0.454  0.9213 -0.1541  0.1582
16984TIP3    H272444   5.872   0.562   0.437 -0.5401 -0.2266 -0.1552
16985TIP3   OH272445   5.727   1.688   4.275 -0.3756  0.4556  0.0410
16985TIP3    H172446   5.677   1.662   4.198 -1.1483  0.3042  0.5839
16985TIP3    H272447   5.800   1.626   4.279 -1.3533 -0.6865  0.4637
16986TIP3   OH272448   4.676   5.243  14.279  0.8307  0.1205  0.0850
16986TIP3    H172449   4.644   5.188  14.208 -0.2719  0.9075 -0.0529
16986TIP3    H272450   4.604   5.243  14.343  1.1650  0.7200  0.4687
16987TIP3   OH272451   5.152   2.197   0.389  0.2020  0.2765 -0.0834
16987TIP3    H172452   5.235   2.149   0.386  0.5088  0.5846  1.9887
16987TIP3    H272453   5.092   2.137   0.433 -0.4294  0.4275 -0.7235
16988TIP3   OH272454   1.003   0.284  13.570 -0.2933 -0.3560 -0.3319
16988TIP3    H172455   1.014   0.199  13.529  0.5978 -1.0231  1.2117
16988TIP3    H272456   1.076   0.336  13.536 -0.4459 -0.4016 -0.7451
16989TIP3   OH272457   2.240   3.711  13.980 -0.5595 -0.0736 -0.0638
16989TIP3    H172458   2.280   3.625  13.994 -0.0496 -0.1779 -1.8675
16989TIP3    H272459   2.214   3.740  14.067  1.7445 -0.8473  0.9621
16990TIP3   OH272460   3.637   6.219   1.921 -0.1013  0.0202 -0.2647
16990TIP3    H172461   3.563   6.173   1.960  0.0135 -1.3809 -1.6161
16990TIP3    H272462   3.599   6.301   1.887 -0.9125 -0.4067 -0.4057
16991TIP3   OH272463   2.412   2.703  13.382  0.1289 -0.0104 -0.0079
16991TIP3    H172464   2.336   2.727  13.434  0.7086  0.1620  0.7687
16991TIP3    H272465   2.485   2.702  13.444  1.3557  2.7880 -1.2424
16992TIP3   OH272466   2.344   0.688   5.720  0.2333  0.1936 -0.1823
16992TIP3    H172467   2.424   0.734   5.694  1.3089 -0.9371  0.9988
16992TIP3    H272468   2.311   0.650   5.638  0.5138  1.2506 -0.7959
16993TIP3   OH272469   4.315   4.113  15.616  1.0562 -0.2962 -0.3035
16993TIP3    H172470   4.374   4.129  15.689  1.2174 -0.4076 -0.4072
16993TIP3    H272471   4.277   4.198  15.595  1.8440 -0.0550 -0.8017
16994TIP3   OH272472   1.888   2.021   5.110  0.2994 -0.1862  0.3311
16994TIP3    H172473   1.836   1.943   5.130  0.9862 -0.6054  0.5284
16994TIP3    H272474   1.911   2.058   5.195 -0.8467  0.8074  0.2284
16995TIP3   OH272475   3.095   1.354  11.834 -0.3605  0.0288 -0.5054
16995TIP3    H172476   3.003   1.357  11.857 -0.1934  0.6626  0.1279
16995TIP3    H272477   3.134   1.427  11.883  0.2743  0.4902 -1.6535
16996TIP3   OH272478   2.546   6.811  12.307  0.9821  0.2909  0.4408
16996TIP3    H172479   2.560   6.863  12.228  2.5479 -0.0011  0.4954
16996TIP3    H272480   2.585   6.726  12.287 -1.9225 -1.0956  0.1893
16997TIP3   OH272481   6.823   4.803   3.350  0.1900 -0.0244 -0.0957
16997TIP3    H172482   6.835   4.739   3.420  2.1535 -0.4374 -0.7421
16997TIP3    H272483   6.837   4.754   3.270  1.5423  1.1451 -0.6189
16998TIP3   OH272484   3.538   1.598  11.614 -0.2869 -0.1068 -0.1423
16998TIP3    H172485   3.617   1.544  11.622  0.4756  0.9258 -0.4102
16998TIP3    H272486   3.466   1.535  11.615  0.2484 -0.9229  3.6248
16999TIP3   OH272487   3.100   4.908   6.349  0.0149  0.5931  0.1617
16999TIP3    H172488   3.142   4.825   6.325 -0.6560  0.4738 -0.6710
16999TIP3    H272489   3.019   4.883   6.393  0.1100  0.8087  0.4610
17000TIP3   OH272490   2.270   6.780   5.573  0.1506 -0.3253 -0.0288
17000TIP3    H172491   2.278   6.692   5.609  1.5762  0.4844  1.7668
17000TIP3    H272492   2.179   6.805   5.591 -0.3686 -1.5131 -0.8683
17001TIP3   OH272493   4.668   1.997  13.093 -0.0469  0.3576  0.1637
17001TIP3    H172494   4.581   2.011  13.055 -0.7662 -0.4747  1.4328
17001TIP3    H272495   4.689   2.081  13.134 -0.3932  0.4775  0.1046
17002TIP3   OH272496   4.820   1.581  13.892 -0.3980 -0.2562  0.3484
17002TIP3    H172497   4.791   1.533  13.969 -0.8419 -0.6431 -0.0519
17002TIP3    H272498   4.793   1.526  13.818  1.3239 -0.6417 -0.0601
17003TIP3   OH272499   5.880   3.814   0.810  0.1354  0.3590  0.2754
17003TIP3    H172500   5.851   3.885   0.868 -0.9530  0.3569 -0.2525
17003TIP3    H272501   5.842   3.834   0.725 -0.9562 -1.3081  0.3171
17004TIP3   OH272502   1.986   5.155  13.202 -0.6902  0.4290 -0.5366
17004TIP3    H172503   2.067   5.141  13.250 -0.8693 -1.9689 -0.8198
17004TIP3    H272504   2.013   5.200  13.122  0.4473 -0.8071 -0.8655
17005TIP3   OH272505   3.662   6.331   2.593 -0.1429 -0.2073  0.1351
17005TIP3    H172506   3.754   6.328   2.617 -0.1756 -0.3914  0.2389
17005TIP3    H272507   3.630   6.414   2.630 -0.0645 -0.2342  0.2621
17006TIP3   OH272508   1.091   1.716   4.757 -0.5071  0.5295 -0.2594
17006TIP3    H172509   1.060   1.699   4.846 -0.6927 -0.8962 -0.5676
17006TIP3    H272510   1.093   1.811   4.750  1.2927  0.7449  1.8838
17007TIP3   OH272511   6.818   4.812  14.979 -0.0476  0.1966  0.6348
17007TIP3    H172512   6.727   4.783  14.971  0.3647 -0.8196 -0.7088
17007TIP3    H272513   6.821   4.893  14.929 -0.2598  0.3401  0.8515
17008TIP3   OH272514   1.510   2.048   3.469  0.2328  0.0392 -0.2338
17008TIP3    H172515   1.439   2.105   3.441  0.6142 -0.2584 -1.8694
17008TIP3    H272516   1.590   2.097   3.450  0.6650 -1.6650 -3.4540
17009TIP3   OH272517   0.869   1.220   5.650 -0.0550 -0.2219  0.1418
17009TIP3    H172518   0.780   1.255   5.654 -0.0794 -0.2924  0.2374
17009TIP3    H272519   0.909   1.263   5.575 -0.5075 -0.9599 -0.5486
17010TIP3   OH272520   1.870   6.049   4.242 -1.0871  0.6080 -0.7444
17010TIP3    H172521   1.777   6.033   4.259 -1.2205  0.9644 -1.1458
17010TIP3    H272522   1.875   6.140   4.216 -0.4754  0.8980  0.3250
17011TIP3   OH272523   2.037   4.353   0.704 -0.1025 -0.7997  0.2691
17011TIP3    H172524   1.967   4.307   0.658 -1.5353 -1.0578  2.5625
17011TIP3    H272525   2.117   4.318   0.665 -1.1320 -0.2074 -2.7223
17012TIP3   OH272526   3.711   1.195  13.512 -0.2834 -0.4378 -0.4590
17012TIP3    H172527   3.691   1.102  13.522  1.5171 -0.7391  0.7959
17012TIP3    H272528   3.630   1.240  13.536 -0.5823 -1.6424  0.9030
17013TIP3   OH272529   4.101   4.565   4.714 -0.1705  0.1726  0.2639
17013TIP3    H172530   4.173   4.555   4.776 -0.8630  2.6800  1.6178
17013TIP3    H272531   4.022   4.552   4.766 -0.7574 -1.5458 -0.9822
17014TIP3   OH272532   3.569   5.627  13.070 -0.6599  0.2670  0.2464
17014TIP3    H172533   3.541   5.661  13.155 -0.5821 -0.1598  0.4427
17014TIP3    H272534   3.603   5.704  13.024 -2.6251  0.9322 -0.2162
17015TIP3   OH272535   5.965   0.603  16.612  0.3116  0.1438 -0.9087
17015TIP3    H172536   5.941   0.511  16.621  2.0275 -0.2884 -0.4492
17015TIP3    H272537   6.057   0.602  16.585  1.4931  1.6983  2.4658
17016TIP3   OH272538   2.174   1.633   3.816 -0.1553 -0.3805  0.1351
17016TIP3    H172539   2.196   1.561   3.875 -0.0048  0.8357  1.6213
17016TIP3    H272540   2.080   1.624   3.802 -0.4816  0.1904  1.8146
17017TIP3   OH272541   4.909   1.350   3.107 -0.0512 -0.1261  0.1310
17017TIP3    H172542   4.988   1.401   3.128  1.0220 -2.0887  1.0915
17017TIP3    H272543   4.941   1.274   3.059 -1.5839 -0.1338 -0.9548
17018TIP3   OH272544   5.457   0.266   3.384 -0.3795  0.1937  0.0292
17018TIP3    H172545   5.515   0.318   3.440 -0.7035  2.2822 -1.4435
17018TIP3    H272546   5.452   0.181   3.427  1.2203  0.9579  1.8930
17019TIP3   OH272547   1.536   2.093   3.989  0.0948 -0.0631  0.8170
17019TIP3    H172548   1.488   2.092   4.072  1.4678 -1.1496  1.6591
17019TIP3    H272549   1.503   2.017   3.941 -2.2484  1.7573 -0.6481
17020TIP3   OH272550   6.647   1.711  15.236 -0.2208 -0.6419 -0.5811
17020TIP3    H172551   6.568   1.677  15.279  0.5506 -2.6429 -0.5997
17020TIP3    H272552   6.619   1.732  15.148 -1.5301  2.2522  0.4171
17021TIP3   OH272553   5.401   6.671   4.332 -0.5105  0.2436 -0.1136
17021TIP3    H172554   5.459   6.705   4.264 -0.1340  1.4892  0.7862
17021TIP3    H272555   5.388   6.579   4.310  0.3167  0.4121 -1.3594
17022TIP3   OH272556   4.150   0.947   3.940  0.0339 -0.3332  0.0448
17022TIP3    H172557   4.185   1.013   4.000  0.4900 -1.4305  1.0329
17022TIP3    H272558   4.226   0.917   3.891  0.1963 -1.4210  0.9133
17023TIP3   OH272559   4.657   6.231   2.341 -0.2509  0.2738  0.2235
17023TIP3    H172560   4.629   6.321   2.328 -0.3026  0.2531  0.1929
17023TIP3    H272561   4.583   6.178   2.312  0.4610  0.1798 -1.5606
17024TIP3   OH272562   5.363   2.422  15.148  0.1996  0.0599 -0.5335
17024TIP3    H172563   5.348   2.377  15.231  0.4283 -0.0819 -0.5682
17024TIP3    H272564   5.349   2.355  15.081 -0.1476  0.2145 -0.6195
17025TIP3   OH272565   2.982   1.010   4.328 -0.0257 -0.4697  0.0968
17025TIP3    H172566   2.948   0.923   4.306 -1.8172  0.4140 -0.9696
17025TIP3    H272567   3.069   1.012   4.289 -0.8950 -0.9939 -2.0527
17026TIP3   OH272568   2.311   0.631  10.940 -0.2087  0.1459  0.0072
17026TIP3    H172569   2.301   0.593  10.853 -1.6757  0.1496  0.1482
17026TIP3    H272570   2.314   0.557  10.999 -0.6805  0.1678  0.0669
17027TIP3   OH272571   4.487   5.733  15.048 -0.5482  0.3702 -0.1193
17027TIP3    H172572   4.474   5.727  14.953  0.2731 -1.1130 -0.1737
17027TIP3    H272573   4.582   5.731  15.059 -0.6305  0.7603  0.7341
17028TIP3   OH272574   1.510   4.642   6.597 -0.6252 -0.1468 -0.0852
17028TIP3    H172575   1.487   4.624   6.688 -1.8290 -0.6984 -0.4869
17028TIP3    H272576   1.427   4.649   6.552 -0.0609  0.9352 -1.0121
17029TIP3   OH272577   4.662   2.711   2.255 -0.1593 -0.3478 -0.1999
17029TIP3    H172578   4.748   2.731   2.217 -0.4962  1.0213 -0.2693
17029TIP3    H272579   4.675   2.626   2.298  1.0655 -0.4417 -0.6983
17030TIP3   OH272580   6.094   5.396   3.808 -0.6851  0.4299  0.6493
17030TIP3    H172581   6.123   5.440   3.888  0.3905 -1.8495  1.6016
17030TIP3    H272582   6.132   5.308   3.813  0.8605  0.6623 -3.1982
17031TIP3   OH272583   3.276   4.190  13.264 -0.3385  0.0931 -0.1585
17031TIP3    H172584   3.336   4.117  13.249  0.8947  0.9341  0.5366
17031TIP3    H272585   3.307   4.231  13.344 -0.2068  2.1587 -1.1955
17032TIP3   OH272586   1.831   3.606  12.204  0.2429 -0.1372 -0.4552
17032TIP3    H172587   1.794   3.628  12.289  1.9760  0.4131  0.1894
17032TIP3    H272588   1.755   3.600  12.146 -1.1380 -2.2310  1.4367
17033TIP3   OH272589   3.089   3.920  13.485  0.1802  0.3843 -0.2128
17033TIP3    H172590   3.176   3.892  13.458  0.2498  0.4514 -0.0562
17033TIP3    H272591   3.104   3.983  13.556  0.0318  0.9505 -0.6793
17034TIP3   OH272592   2.834   5.329   0.504  0.0763  0.0570  0.1561
17034TIP3    H172593   2.775   5.394   0.542  0.9952  2.4507 -2.1704
17034TIP3    H272594   2.914   5.336   0.557 -0.3883 -0.3788  0.9222
17035TIP3   OH272595   1.466   4.316   0.301  0.2133  0.1712 -0.0309
17035TIP3    H172596   1.418   4.398   0.297 -3.0879 -1.6048 -0.6375
17035TIP3    H272597   1.437   4.275   0.383 -0.3508 -1.5101 -1.0152
17036TIP3   OH272598   6.645   4.669   5.576 -0.5962 -0.3239 -0.6464
17036TIP3    H172599   6.714   4.667   5.509  0.4630  0.5361  0.3788
17036TIP3    H272600   6.631   4.762   5.594 -1.1752 -0.5294  0.0207
17037TIP3   OH272601   5.333   0.772  12.928  0.0030  0.7513 -0.0455
17037TIP3    H172602   5.426   0.752  12.924  0.1285  1.2701  0.1941
17037TIP3    H272603   5.314   0.814  12.844 -0.8077 -2.5267 -1.6554
17038TIP3   OH272604   0.122   4.236  11.146  0.6822  0.5589  0.3204
17038TIP3    H172605   0.165   4.159  11.109 -0.6462 -0.8716  1.5954
17038TIP3    H272606   0.039   4.242  11.099  0.8660  1.3459  0.0915
17039TIP3   OH272607   5.445   6.349   4.398  0.3263 -0.3670  0.1707
17039TIP3    H172608   5.420   6.331   4.489  2.7985  0.9565  1.2196
17039TIP3    H272609   5.534   6.385   4.404 -0.1430  1.6042 -2.6297
17040TIP3   OH272610   1.924   0.427   5.073  0.5267 -0.0528  0.2818
17040TIP3    H172611   1.866   0.430   5.149 -0.2615 -4.9681  0.1601
17040TIP3    H272612   2.004   0.386   5.106  0.9614 -0.4042 -1.1650
17041TIP3   OH272613   1.353   5.130  13.301  0.0202  0.0419 -0.3262
17041TIP3    H172614   1.448   5.140  13.297  0.0339 -0.3855 -1.4224
17041TIP3    H272615   1.337   5.082  13.383  0.9339 -1.7897 -1.1644
17042TIP3   OH272616   0.759   0.904   3.319  0.6631  0.7666 -0.0087
17042TIP3    H172617   0.840   0.854   3.305  0.3311  0.4406 -0.8432
17042TIP3    H272618   0.690   0.846   3.287  0.1796  1.3750 -0.0725
17043TIP3   OH272619   0.308   2.867  15.715 -0.6269  0.0640  0.3429
17043TIP3    H172620   0.325   2.794  15.656  1.1184 -0.4624  1.4308
17043TIP3    H272621   0.225   2.845  15.757  0.7933 -2.3202  2.0746
17044TIP3   OH272622   2.796   5.471  12.425 -0.6964  0.1691  0.5421
17044TIP3    H172623   2.721   5.469  12.484 -0.1697 -3.5394  1.3825
17044TIP3    H272624   2.812   5.379  12.404  1.2920  1.0907 -2.6946
17045TIP3   OH272625   5.153   2.611  12.387  0.1691  0.2400 -0.2452
17045TIP3    H172626   5.182   2.559  12.312  1.0320 -1.1236  0.9824
17045TIP3    H272627   5.077   2.564  12.421 -0.6480  1.2324 -0.6351
17046TIP3   OH272628   0.034   0.274  10.859 -0.0779 -0.3004  0.0492
17046TIP3    H172629  -0.005   0.235  10.780 -0.4185  1.1879 -0.5478
17046TIP3    H272630   0.127   0.279  10.839 -0.3291  1.4425 -0.9299
17047TIP3   OH272631   6.699   5.992   4.519  0.2104  0.2020  0.0126
17047TIP3    H172632   6.701   5.897   4.518  0.3934  0.2075 -0.3827
17047TIP3    H272633   6.652   6.016   4.439  2.0577  0.4734 -1.0385
17048TIP3   OH272634   2.385   0.260  15.450 -0.1280  0.0156  0.2475
17048TIP3    H172635   2.428   0.175  15.464  1.1119  0.4119 -0.9139
17048TIP3    H272636   2.430   0.297  15.374  1.1808  2.9104  2.2818
17049TIP3   OH272637   2.823   6.218  13.834 -0.3003  0.0052  0.2457
17049TIP3    H172638   2.829   6.130  13.796  1.4713 -1.4151  3.4127
17049TIP3    H272639   2.745   6.214  13.890 -0.7699  0.8245 -0.3278
17050TIP3   OH272640   5.825   6.738   4.479  0.0967  0.5069 -0.0742
17050TIP3    H172641   5.751   6.699   4.526 -0.5560  0.7143 -0.9032
17050TIP3    H272642   5.869   6.664   4.437  1.1367  0.2175  1.4185
17051TIP3   OH272643   1.747   5.622  14.362  0.7412 -0.7842 -0.3691
17051TIP3    H172644   1.749   5.536  14.403 -0.4680 -0.1633  1.0771
17051TIP3    H272645   1.752   5.684  14.435 -2.9791  0.3856 -0.8938
17052TIP3   OH272646   2.201   0.803  16.676  0.3046  0.7380  0.0972
17052TIP3    H172647   2.110   0.776  16.687  0.0744  1.0940 -0.8465
17052TIP3    H272648   2.251   0.737  16.724 -0.3262 -0.6441 -1.0445
17053TIP3   OH272649   4.508   2.808   2.644 -0.1005  0.4352  0.0567
17053TIP3    H172650   4.583   2.862   2.620  1.3227 -0.2267  2.6839
17053TIP3    H272651   4.462   2.860   2.710  0.5625 -0.9436  1.6635
17054TIP3   OH272652   2.488   6.312   0.278  0.1636  0.2268 -0.9861
17054TIP3    H172653   2.454   6.400   0.297  1.4476  1.1214 -2.5659
17054TIP3    H272654   2.414   6.254   0.297 -0.5014  1.5564  0.7604
17055TIP3   OH272655   6.111   0.790   0.159 -0.4679 -0.5236  0.1720
17055TIP3    H172656   6.171   0.783   0.233  1.6809 -0.8814 -1.5108
17055TIP3    H272657   6.160   0.838   0.093 -2.0361 -0.8676 -1.3170
17056TIP3   OH272658   4.359   5.113  10.695 -0.3376  0.1855  0.2142
17056TIP3    H172659   4.429   5.048  10.694  0.4474  1.0168  0.0660
17056TIP3    H272660   4.361   5.153  10.608 -3.0418 -1.8658 -0.9325
17057TIP3   OH272661   4.045   4.055   4.239  0.3372 -0.0828  0.1026
17057TIP3    H172662   3.986   4.131   4.241  0.9701  0.4116  0.8846
17057TIP3    H272663   4.109   4.076   4.171 -0.0552 -0.3688 -0.3617
17058TIP3   OH272664   3.631   6.784  15.999  0.0801  0.1972  0.4303
17058TIP3    H172665   3.657   6.806  15.910  1.8910  1.4875  1.2142
17058TIP3    H272666   3.648   6.863  16.050 -1.4646 -0.3114  1.8410
17059TIP3   OH272667   3.296   3.648   0.256 -0.5395 -0.3345  0.5922
17059TIP3    H172668   3.329   3.662   0.344 -1.6800 -0.4393  1.0570
17059TIP3    H272669   3.367   3.604   0.210 -0.1828 -0.9040  1.6584
17060TIP3   OH272670   0.051   0.898  16.669 -0.2690  0.4897  0.2786
17060TIP3    H172671  -0.039   0.876  16.692 -0.0375  0.3606  1.0726
17060TIP3    H272672   0.043   0.945  16.586 -1.0935  0.7585  0.4986
17061TIP3   OH272673   5.814   0.309  11.976 -0.4753 -0.0868  0.0660
17061TIP3    H172674   5.780   0.223  11.953 -0.5019  0.4961 -2.3174
17061TIP3    H272675   5.892   0.319  11.921 -0.3511  1.3220  0.4713
17062TIP3   OH272676   2.849   1.291   2.267 -0.6267  0.0016 -0.0216
17062TIP3    H172677   2.777   1.346   2.237 -0.1090  1.2403  0.9010
17062TIP3    H272678   2.872   1.237   2.191 -0.6136  1.6661 -1.2625
17063TIP3   OH272679   5.682   4.595  13.618  0.5637 -1.1105 -0.1231
17063TIP3    H172680   5.684   4.667  13.682  3.3208  0.7893 -2.1129
17063TIP3    H272681   5.595   4.602  13.578  0.5382  0.7489  0.1666
17064TIP3   OH272682   0.460   6.681   5.973 -0.0926 -0.0275 -0.6374
17064TIP3    H172683   0.537   6.738   5.985 -0.4213  0.3032 -0.0289
17064TIP3    H272684   0.493   6.593   5.990 -0.0927  0.2272  0.8569
17065TIP3   OH272685   6.225   4.447  15.881  0.1992  0.1115  0.4458
17065TIP3    H172686   6.157   4.462  15.815  0.7654  1.8659  0.2040
17065TIP3    H272687   6.304   4.429  15.831  0.5481  1.0640  0.6322
17066TIP3   OH272688   0.796   2.587   4.105  0.1965 -0.6150  0.0751
17066TIP3    H172689   0.867   2.583   4.041 -0.0847  2.5910 -0.6179
17066TIP3    H272690   0.841   2.585   4.190  1.6961  4.1183 -0.2810
17067TIP3   OH272691   2.209   3.236   4.696 -0.5440 -0.6434  0.1638
17067TIP3    H172692   2.220   3.198   4.783 -3.2001  0.9939  1.3355
17067TIP3    H272693   2.178   3.325   4.712  0.8259  0.4414 -2.5011
17068TIP3   OH272694   2.305   5.528  10.892 -0.0246  0.0659  0.1561
17068TIP3    H172695   2.360   5.452  10.877  0.1801 -0.0497  1.4303
17068TIP3    H272696   2.222   5.493  10.924  0.4210  0.3899  1.7674
17069TIP3   OH272697   2.131   5.108   1.669 -0.0933 -0.1984 -0.4908
17069TIP3    H172698   2.219   5.076   1.689  0.4538  1.0190 -0.8532
17069TIP3    H272699   2.126   5.193   1.714 -0.6658  0.2532 -1.3829
17070TIP3   OH272700   0.526   5.176   6.242 -0.0716 -0.3025  0.2309
17070TIP3    H172701   0.434   5.202   6.235  0.3905  1.6665  0.8677
17070TIP3    H272702   0.534   5.140   6.330 -0.2032 -0.3537  0.2218
17071TIP3   OH272703   3.497   1.111   4.423 -0.1055 -0.0482  0.9115
17071TIP3    H172704   3.484   1.205   4.431  0.6146  0.2354 -0.8094
17071TIP3    H272705   3.590   1.098   4.443  0.2251 -0.1195 -0.5295
17072TIP3   OH272706   3.853   2.483   0.271 -0.1844  0.4227 -0.1277
17072TIP3    H172707   3.880   2.511   0.184  1.4607  1.5064  0.6953
17072TIP3    H272708   3.761   2.508   0.277 -0.2659  0.5119 -1.4672
17073TIP3   OH272709   1.108   5.726  14.580  0.6827  0.2381  0.0749
17073TIP3    H172710   1.095   5.699  14.671  1.3525 -0.1106  0.0789
17073TIP3    H272711   1.080   5.817  14.578 -1.1688 -0.2885  0.1845
17074TIP3   OH272712   6.022   1.705   4.500  0.2522  0.7486 -0.4076
17074TIP3    H172713   6.025   1.800   4.512 -1.0310  1.3042 -3.6115
17074TIP3    H272714   5.937   1.679   4.536  0.0170  1.0513 -0.7377
17075TIP3   OH272715   2.983   6.635  12.545  0.3873 -0.2742 -0.4767
17075TIP3    H172716   3.056   6.590  12.587  1.7828  1.1851 -1.2256
17075TIP3    H272717   2.963   6.708  12.604 -0.1776 -0.4208 -0.4868
17076TIP3   OH272718   4.525   5.833   1.841  0.4529  0.1158  0.2267
17076TIP3    H172719   4.544   5.925   1.857  1.0416 -0.1941  1.3945
17076TIP3    H272720   4.430   5.826   1.854  0.6675  0.2041  2.0626
17077TIP3   OH272721   3.963   2.838   4.653  0.3321 -0.0701  0.1059
17077TIP3    H172722   3.983   2.931   4.658  1.2083 -0.3092  2.0625
17077TIP3    H272723   3.868   2.834   4.638  0.1286  1.1466  0.9427
17078TIP3   OH272724   2.872   2.728  11.102 -0.1139  0.1729 -0.8337
17078TIP3    H172725   2.920   2.789  11.159 -0.0076 -1.8189  1.3222
17078TIP3    H272726   2.780   2.749  11.116 -0.0591  1.1980 -1.7738
17079TIP3   OH272727   5.884   0.808   5.401  0.1217 -0.1533  0.0535
17079TIP3    H172728   5.955   0.869   5.381 -1.8612  2.1692 -0.4351
17079TIP3    H272729   5.833   0.852   5.468  0.1863 -2.6707  1.8862
17080TIP3   OH272730   5.485   6.755   4.067  0.2298 -0.4675 -0.7703
17080TIP3    H172731   5.520   6.730   3.982  1.7974 -0.2878 -0.2194
17080TIP3    H272732   5.398   6.791   4.048  0.4537 -0.6461 -2.2559
17081TIP3   OH272733   5.249   2.471  12.730  0.6035 -0.2402 -0.7594
17081TIP3    H172734   5.325   2.521  12.758  0.8167 -1.4457  0.9451
17081TIP3    H272735   5.176   2.534  12.731  1.8092  1.5614 -4.6328
17082TIP3   OH272736   1.860   2.183  11.423 -0.5603  0.3700 -0.3907
17082TIP3    H172737   1.896   2.228  11.347  1.3337  0.2063  0.3635
17082TIP3    H272738   1.867   2.247  11.494 -0.1123 -0.2679  0.1519
17083TIP3   OH272739   1.561   5.576  16.348 -0.5444 -0.0865 -0.7380
17083TIP3    H172740   1.646   5.548  16.381  0.2154  0.9724 -1.6964
17083TIP3    H272741   1.508   5.497  16.347  2.0278 -2.1432 -5.1124
17084TIP3   OH272742   4.906   4.961  13.144 -0.0407  0.5575 -0.4939
17084TIP3    H172743   4.889   5.032  13.082  1.4640  2.1401  0.8083
17084TIP3    H272744   4.999   4.941  13.132 -0.1286 -0.2504  0.0952
17085TIP3   OH272745   6.295   5.979   4.321 -0.3587  0.2141 -0.2968
17085TIP3    H172746   6.304   6.047   4.254 -0.5418 -1.3024 -1.9645
17085TIP3    H272747   6.359   5.912   4.295 -1.4519 -1.0663  0.1858
17086TIP3   OH272748   5.760   5.707   4.174 -0.5993  0.5055 -0.7373
17086TIP3    H172749   5.720   5.794   4.175 -1.0555  0.3324 -2.0251
17086TIP3    H272750   5.792   5.694   4.263 -1.6475  1.4692 -0.2042
17087TIP3   OH272751   3.854   5.941   4.071  0.1631 -0.5988  0.5157
17087TIP3    H172752   3.853   6.027   4.031  0.8674  0.1529  2.0240
17087TIP3    H272753   3.866   5.880   3.998 -1.6049  0.4419 -0.7220
17088TIP3   OH272754   4.969   5.808   6.023 -0.3445 -0.0190 -0.0880
17088TIP3    H172755   4.909   5.881   6.040 -1.0139 -0.5741  0.0096
17088TIP3    H272756   4.961   5.752   6.100  0.0900 -0.2447 -0.2018
17089TIP3   OH272757   1.864   2.351  14.915 -0.3861 -0.1294  0.2804
17089TIP3    H172758   1.902   2.268  14.884  1.6911  0.7294  0.3821
17089TIP3    H272759   1.902   2.417  14.857 -1.9192  0.7842  0.2887
17090TIP3   OH272760   2.784   2.246  14.502  0.1535  0.6232 -0.4258
17090TIP3    H172761   2.692   2.245  14.530 -0.2943  0.0687 -1.8389
17090TIP3    H272762   2.816   2.158  14.522 -0.2204  0.1649 -1.7339
17091TIP3   OH272763   5.502   5.703  15.663  0.4010  0.2713 -0.0619
17091TIP3    H172764   5.537   5.789  15.642  1.0903 -0.1132 -0.5606
17091TIP3    H272765   5.409   5.717  15.676  0.1458  0.7663 -2.1475
17092TIP3   OH272766   3.560   5.479   2.428  0.5408 -0.0376 -0.6810
17092TIP3    H172767   3.466   5.495   2.418  0.3604 -0.1225  0.7697
17092TIP3    H272768   3.600   5.532   2.359 -0.3862  2.4090  0.5356
17093TIP3   OH272769   5.183   6.652  16.918  0.4219  0.6132  0.3567
17093TIP3    H172770   5.091   6.626  16.921  0.3154  1.0299  0.9627
17093TIP3    H272771   5.196   6.702  16.999  1.5904 -0.8185  1.0853
17094TIP3   OH272772   3.347   6.534   0.952  0.7351  0.0741 -0.8695
17094TIP3    H172773   3.360   6.614   0.902 -1.0166  1.3579  0.5895
17094TIP3    H272774   3.360   6.561   1.043  0.1964 -1.3211 -0.3570
17095TIP3   OH272775   4.422   4.315   0.463  0.0838  0.0497  0.0133
17095TIP3    H172776   4.466   4.301   0.379 -0.4773  1.1517 -0.4851
17095TIP3    H272777   4.445   4.238   0.515  0.5875 -0.5666 -1.0812
17096TIP3   OH272778   5.803   5.908  14.030  0.2832 -0.2608  0.2031
17096TIP3    H172779   5.758   5.917  14.114 -0.5031  0.1392 -0.2450
17096TIP3    H272780   5.741   5.860  13.975  0.4676  0.1493 -0.3716
17097TIP3   OH272781   0.390   1.775  13.638  0.1064  0.4971 -0.2175
17097TIP3    H172782   0.461   1.838  13.643 -0.0852  1.0968 -3.2172
17097TIP3    H272783   0.315   1.820  13.676  0.5224  1.1339 -0.1356
17098TIP3   OH272784   4.041   6.258  15.426 -1.0436  0.1681  0.1698
17098TIP3    H172785   4.047   6.309  15.346 -2.1470 -0.5325 -0.3759
17098TIP3    H272786   4.026   6.168  15.397  0.9112 -0.5367  1.1019
17099TIP3   OH272787   4.197   0.489  14.107  0.0110  0.2608 -0.1775
17099TIP3    H172788   4.157   0.570  14.074  0.7065  1.4123  1.6272
17099TIP3    H272789   4.124   0.431  14.126 -0.5808  0.9068 -0.4455
17100TIP3   OH272790   4.486   1.905  10.481 -0.1007 -0.6603 -0.0431
17100TIP3    H172791   4.430   1.829  10.499  0.7400 -1.1450  0.5925
17100TIP3    H272792   4.573   1.868  10.469  0.4745  0.2910  1.0747
17101TIP3   OH272793   5.610   3.306   1.302  0.3015 -0.2789 -0.1823
17101TIP3    H172794   5.619   3.212   1.288  0.2025 -0.0885 -1.6524
17101TIP3    H272795   5.645   3.346   1.223 -1.1740  0.8661 -0.3142
17102TIP3   OH272796   2.129   5.112  15.579 -0.4977 -0.4905  0.2262
17102TIP3    H172797   2.104   5.147  15.493 -3.0226 -2.2999  0.1103
17102TIP3    H272798   2.224   5.102  15.574 -0.6914 -1.9567 -3.0051
17103TIP3   OH272799   6.627   0.253   1.341 -0.1162  0.0216  0.0213
17103TIP3    H172800   6.672   0.335   1.324 -0.5248  0.2144 -0.1449
17103TIP3    H272801   6.678   0.187   1.294  0.9887 -0.0369  1.2285
17104TIP3   OH272802   2.808   3.941   5.895 -0.5830  0.0388 -0.4282
17104TIP3    H172803   2.897   3.907   5.894 -0.6217 -0.0717 -1.4920
17104TIP3    H272804   2.817   4.036   5.897 -0.4715  0.0326  1.8265
17105TIP3   OH272805   6.686   1.784  16.418  0.2976  0.5901 -0.0041
17105TIP3    H172806   6.710   1.827  16.500 -0.3310  0.4096  0.2774
17105TIP3    H272807   6.736   1.703  16.418 -0.7678 -0.0791  0.8759
17106TIP3   OH272808   1.433   1.672   5.954 -0.6402  0.8926 -0.2077
17106TIP3    H172809   1.352   1.621   5.952 -0.7897  1.1504 -1.6257
17106TIP3    H272810   1.497   1.618   5.907  0.6488 -0.2649  2.6726
17107TIP3   OH272811   0.437   4.324   6.116 -0.4568  0.2583  0.2796
17107TIP3    H172812   0.417   4.414   6.143 -2.5677  0.8325 -2.6904
17107TIP3    H272813   0.367   4.271   6.154 -1.9386  0.6890 -1.6450
17108TIP3   OH272814   2.794   1.377   5.937  0.1313 -0.6244 -0.1397
17108TIP3    H172815   2.740   1.328   5.876 -1.8132  2.0795 -0.7823
17108TIP3    H272816   2.760   1.467   5.933  2.7809  0.6050  1.6860
17109TIP3   OH272817   0.063   3.705  15.383 -0.2669  0.2467  0.3153
17109TIP3    H172818   0.107   3.714  15.298 -0.0011  2.0211  0.6055
17109TIP3    H272819   0.124   3.744  15.445 -1.7824  1.8171  0.8691
17110TIP3   OH272820   2.989   5.935  10.795 -0.4295 -0.6482 -0.1949
17110TIP3    H172821   3.051   5.969  10.732  0.2500 -2.2999 -0.4592
17110TIP3    H272822   2.904   5.967  10.765  0.1019  0.1989 -0.8196
17111TIP3   OH272823   5.397   3.478   4.785  0.3037  0.2944 -0.1018
17111TIP3    H172824   5.377   3.465   4.692 -1.7785 -1.6558  0.5176
17111TIP3    H272825   5.407   3.572   4.795 -0.4125  0.6364 -2.1409
17112TIP3   OH272826   2.278   2.821   3.345  0.7060  0.1702 -0.2338
17112TIP3    H172827   2.244   2.751   3.401  1.4635  0.4604  0.6008
17112TIP3    H272828   2.350   2.781   3.297 -0.4228 -0.2996 -1.6260
17113TIP3   OH272829   0.717   1.875   4.029 -0.3966 -0.1234  0.1825
17113TIP3    H172830   0.731   1.888   4.122 -1.3191  0.3086  0.2759
17113TIP3    H272831   0.673   1.790   4.022  0.7538 -0.7162  0.0319
17114TIP3   OH272832   6.121   0.470  13.203 -0.4377 -0.2090  0.3211
17114TIP3    H172833   6.121   0.500  13.294 -2.1523 -0.1935  0.3482
17114TIP3    H272834   6.070   0.389  13.205 -1.8547  0.6161 -0.8564
17115TIP3   OH272835   5.670   3.034  15.826  0.3859  0.2897  0.1472
17115TIP3    H172836   5.761   3.052  15.851  0.6426 -1.5445  0.6694
17115TIP3    H272837   5.626   3.118  15.837  1.3765  0.5749  2.8926
17116TIP3   OH272838   3.136   5.261   2.701 -0.8721  0.0549  0.4426
17116TIP3    H172839   3.198   5.327   2.734 -0.7260  0.6984 -1.0512
17116TIP3    H272840   3.173   5.232   2.618 -2.4681  0.3189 -0.4053
17117TIP3   OH272841   1.337   0.257   4.206 -0.1949  0.2306  0.3256
17117TIP3    H172842   1.283   0.228   4.133  0.2869  0.6626 -0.2029
17117TIP3    H272843   1.426   0.261   4.172  0.1815 -0.4233  1.1786
17118TIP3   OH272844   2.743   3.166   2.886 -0.3104  0.2192 -0.3641
17118TIP3    H172845   2.671   3.125   2.839 -1.1936  1.0145  0.2716
17118TIP3    H272846   2.785   3.223   2.821 -0.0845 -0.4251 -0.7970
17119TIP3   OH272847   5.028   5.069  16.534  0.5843 -0.2770 -0.1468
17119TIP3    H172848   5.108   5.105  16.573  1.0858  0.2510 -1.5810
17119TIP3    H272849   4.973   5.047  16.609  2.2088 -0.9935  0.9094
17120TIP3   OH272850   6.375   2.156   3.267 -0.3015 -0.4298 -0.4211
17120TIP3    H172851   6.300   2.101   3.244 -0.1378  0.0701 -2.2403
17120TIP3    H272852   6.341   2.245   3.266  0.2636 -0.2184 -1.0356
17121TIP3   OH272853   6.300   2.199  11.220 -0.3564 -0.1634 -0.1486
17121TIP3    H172854   6.242   2.165  11.288  0.0523  0.6906  0.6304
17121TIP3    H272855   6.251   2.272  11.182  0.0235  0.2638  0.1923
17122TIP3   OH272856   1.911   3.110  16.671  0.5701  0.8145  0.4665
17122TIP3    H172857   1.821   3.121  16.641  0.0139 -2.4189  0.5413
17122TIP3    H272858   1.905   3.109  16.767  0.9540  2.0542  0.5226
17123TIP3   OH272859   0.409   2.159  14.194  0.3091  0.4682  0.2551
17123TIP3    H172860   0.393   2.066  14.177 -0.3124  0.6579 -0.2317
17123TIP3    H272861   0.481   2.182  14.135  3.1840 -0.5873  3.0257
17124TIP3   OH272862   3.052   3.564   0.107 -0.4865 -0.7254  0.1303
17124TIP3    H172863   3.044   3.472   0.130 -0.3661 -1.0099 -0.9160
17124TIP3    H272864   3.105   3.602   0.176 -2.6146 -0.8727  1.9689
17125TIP3   OH272865   4.862   6.635  11.935 -0.2750  0.1944  0.0260
17125TIP3    H172866   4.879   6.720  11.978 -0.0729  0.7929 -1.2064
17125TIP3    H272867   4.767   6.624  11.941 -0.3911  0.8625 -0.4406
17126TIP3   OH272868   3.582   4.626  11.264 -0.2077  0.6388  0.0556
17126TIP3    H172869   3.563   4.719  11.272  1.8685  1.2133 -1.0007
17126TIP3    H272870   3.532   4.598  11.187 -0.1318  1.0921 -0.1583
17127TIP3   OH272871   1.631   0.844   5.692  0.1838  0.1619 -0.4494
17127TIP3    H172872   1.588   0.923   5.723 -0.1303 -1.1917  2.9232
17127TIP3    H272873   1.714   0.875   5.654 -0.7675  2.2053 -0.9696
17128TIP3   OH272874   0.097   6.413  13.671  0.0147 -0.2980 -0.2436
17128TIP3    H172875   0.029   6.350  13.694 -2.7294  2.4347 -0.3112
17128TIP3    H272876   0.115   6.460  13.753  0.1663  0.5031 -0.7294
17129TIP3   OH272877   1.701   4.564  11.485  0.1276  0.3099 -0.1238
17129TIP3    H172878   1.770   4.610  11.533  1.2498 -0.1594 -1.2418
17129TIP3    H272879   1.654   4.634  11.439 -0.8420  0.7436  1.4562
17130TIP3   OH272880   4.825   0.576   3.802 -0.0016 -0.4605  0.3593
17130TIP3    H172881   4.850   0.507   3.863  2.0548 -1.6999 -1.7187
17130TIP3    H272882   4.752   0.540   3.753  0.7259 -1.0059 -0.3583
17131TIP3   OH272883   6.742   2.598  16.192 -0.0467 -0.5080 -0.5498
17131TIP3    H172884   6.758   2.693  16.198 -0.3513 -0.5305  1.4072
17131TIP3    H272885   6.816   2.559  16.238 -1.3542 -1.0264  1.2390
17132TIP3   OH272886   3.018   5.636   2.740  0.3652 -0.1064  0.3499
17132TIP3    H172887   3.036   5.657   2.831 -0.7089 -0.0314  0.5548
17132TIP3    H272888   3.016   5.721   2.695  0.2274 -0.0891  0.3877
17133TIP3   OH272889   4.003   5.263  13.747 -0.6658  0.8162  0.2666
17133TIP3    H172890   4.019   5.299  13.834  0.0254 -0.6928  0.7872
17133TIP3    H272891   4.070   5.196  13.735 -1.2134  0.4756 -1.1274
17134TIP3   OH272892   3.590   0.522  11.488  0.1425  0.8382  0.0656
17134TIP3    H172893   3.531   0.506  11.414 -0.3398  0.9379  0.4264
17134TIP3    H272894   3.533   0.552  11.558  0.3218 -1.1289  1.1091
17135TIP3   OH272895   1.489   2.527  10.287  0.6279  0.3776  0.3879
17135TIP3    H172896   1.532   2.473  10.220  2.5941 -0.2277  2.0307
17135TIP3    H272897   1.464   2.464  10.355 -0.2649  1.1257  0.7681
17136TIP3   OH272898   1.142   2.133   5.879  0.0857 -0.3496  0.2680
17136TIP3    H172899   1.217   2.178   5.919 -0.1915 -1.1725  1.7891
17136TIP3    H272900   1.066   2.180   5.913 -0.1325 -0.2509 -0.3461
17137TIP3   OH272901   2.708   4.860  15.145  1.2012 -0.5755 -0.3617
17137TIP3    H172902   2.728   4.807  15.068  1.3050  0.0614 -0.7881
17137TIP3    H272903   2.684   4.946  15.109 -0.2143 -0.6882  0.2427
17138TIP3   OH272904   3.703   1.693  14.122  0.7938 -0.0504  0.1747
17138TIP3    H172905   3.766   1.757  14.156 -0.6148  0.8026  1.2918
17138TIP3    H272906   3.618   1.735  14.133  0.0790 -0.5734 -2.6404
17139TIP3   OH272907   5.580   5.955   5.983 -0.2367  0.4248  0.2845
17139TIP3    H172908   5.599   6.000   5.901  0.4956  0.4854  0.4808
17139TIP3    H272909   5.624   5.870   5.975 -0.9440  0.0505  0.2395
17140TIP3   OH272910   6.458   3.177   5.422 -0.0339 -0.7816  0.1520
17140TIP3    H172911   6.404   3.237   5.372  0.7969 -0.7832 -0.7750
17140TIP3    H272912   6.431   3.190   5.513 -0.2989  0.5361 -0.0997
17141TIP3   OH272913   0.860   4.410  16.140 -0.4230 -0.5412  0.8025
17141TIP3    H172914   0.796   4.346  16.110  0.7509 -1.0157 -0.8067
17141TIP3    H272915   0.818   4.495  16.126 -0.5445 -0.8224 -0.7132
17142TIP3   OH272916   2.392   3.745  13.678  0.1893 -0.4720 -0.5053
17142TIP3    H172917   2.306   3.785  13.687  0.0472 -1.0539  1.1309
17142TIP3    H272918   2.379   3.654  13.705  1.0653 -0.9110 -1.4820
17143TIP3   OH272919   6.303   5.033   5.671  0.3495 -0.2705 -0.5298
17143TIP3    H172920   6.321   4.941   5.691  4.3385  0.7866  1.8632
17143TIP3    H272921   6.242   5.061   5.739  1.2229 -0.5706  0.4050
17144TIP3   OH272922   0.743   1.169  13.469 -0.7244 -0.4127  0.1135
17144TIP3    H172923   0.776   1.190  13.556 -2.1104 -0.1636  0.6179
17144TIP3    H272924   0.699   1.249  13.441 -0.1917 -0.4565 -0.8760
17145TIP3   OH272925   0.096   5.503   2.717  1.1054  0.1042 -0.0128
17145TIP3    H172926   0.104   5.560   2.793  1.7203 -0.0246  0.0293
17145TIP3    H272927   0.052   5.424   2.751  0.5571  0.4121  0.0014
17146TIP3   OH272928   5.934   3.299   4.146  1.1681  0.1638  0.0784
17146TIP3    H172929   5.926   3.232   4.078 -1.9489  1.1734 -0.7066
17146TIP3    H272930   5.893   3.260   4.223  0.5554  0.6603  0.0107
17147TIP3   OH272931   2.313   1.876   2.596 -0.0641 -0.0086  0.2758
17147TIP3    H172932   2.273   1.920   2.671 -2.5523 -2.0707  0.2853
17147TIP3    H272933   2.407   1.879   2.614 -0.2703  2.9874  1.4541
17148TIP3   OH272934   5.108   3.437  15.106  0.2300  0.0377  0.5139
17148TIP3    H172935   5.039   3.499  15.084  1.0442  0.9742  0.4937
17148TIP3    H272936   5.093   3.362  15.048  0.2127  0.9336 -0.6927
17149TIP3   OH272937   1.348   6.157   5.442  0.5000  0.1286  0.3467
17149TIP3    H172938   1.271   6.103   5.462 -0.1153 -1.1254 -4.1461
17149TIP3    H272939   1.422   6.105   5.473 -0.2926  0.2976  2.7185
17150TIP3   OH272940   0.833   2.291  16.495  0.1934  0.9260  0.1953
17150TIP3    H172941   0.922   2.269  16.521 -0.0176  2.0202  2.0479
17150TIP3    H272942   0.822   2.382  16.523 -0.9859  1.3445 -1.4879
17151TIP3   OH272943   2.554   4.039   1.752  0.3999 -0.1410  0.2195
17151TIP3    H172944   2.501   3.970   1.711 -1.6329  1.4503  0.0136
17151TIP3    H272945   2.604   4.077   1.679 -0.7545  0.5505 -0.2305
17152TIP3   OH272946   4.650   1.927   1.902 -0.4665  0.4466  0.3410
17152TIP3    H172947   4.729   1.953   1.854  0.1438  0.6323  1.4204
17152TIP3    H272948   4.671   1.841   1.938 -1.5857 -0.5117 -1.1739
17153TIP3   OH272949   5.105   0.185   1.155  0.2713  0.6394 -0.2797
17153TIP3    H172950   5.106   0.102   1.107 -0.2767  1.0478 -1.0149
17153TIP3    H272951   5.013   0.198   1.179  0.6467 -0.0622  1.8256
17154TIP3   OH272952   3.627   6.494  11.100 -0.1249 -0.1909  0.6012
17154TIP3    H172953   3.639   6.429  11.170 -0.1048 -0.0944  0.6882
17154TIP3    H272954   3.567   6.559  11.138 -0.9790 -0.7007  0.1590
17155TIP3   OH272955   2.562   4.694  12.190 -0.1251 -0.4530  0.2929
17155TIP3    H172956   2.516   4.677  12.273 -2.0867 -0.8796 -0.8259
17155TIP3    H272957   2.573   4.789  12.188  0.3565 -0.4710  1.2253
17156TIP3   OH272958   4.539   6.613   4.323 -0.5029 -0.2902  0.5571
17156TIP3    H172959   4.546   6.705   4.348 -1.0934  0.2969 -1.2318
17156TIP3    H272960   4.452   6.586   4.353 -0.1323 -0.4369  1.5342
17157TIP3   OH272961   4.196   5.335  12.732  0.4862 -0.2119 -0.3180
17157TIP3    H172962   4.230   5.422  12.712  2.6397 -1.0836 -0.6195
17157TIP3    H272963   4.204   5.286  12.650 -0.5338 -0.7752 -0.1037
17158TIP3   OH272964   4.353   1.871   4.299 -0.4179  0.1745  0.1883
17158TIP3    H172965   4.274   1.818   4.317 -0.5827  0.6271  0.8191
17158TIP3    H272966   4.417   1.840   4.362 -0.7189  1.1649  0.9994
17159TIP3   OH272967   5.715   3.569  14.352  0.0037 -0.0574  0.4074
17159TIP3    H172968   5.728   3.615  14.269  0.8727  0.2387  0.6962
17159TIP3    H272969   5.772   3.615  14.413 -0.6031 -0.2986  1.1622
17160TIP3   OH272970   1.893   5.111  12.568 -0.3729  0.2434  0.0055
17160TIP3    H172971   1.890   5.199  12.531  1.2279  0.6156  0.6679
17160TIP3    H272972   1.830   5.061  12.515 -1.8286  1.9129  0.0730
17161TIP3   OH272973   5.136   5.072   2.911 -0.3872 -0.0357 -0.3935
17161TIP3    H172974   5.196   5.138   2.878  0.4913 -1.3508 -1.5723
17161TIP3    H272975   5.051   5.095   2.873 -0.0619  0.3282 -0.9108
17162TIP3   OH272976   6.106   2.007   5.793  0.0122  0.4990  0.0828
17162TIP3    H172977   6.126   2.044   5.707  0.5854  1.7053  0.7087
17162TIP3    H272978   6.188   1.966   5.821 -0.2890 -0.2431 -0.1062
17163TIP3   OH272979   4.687   3.603   0.672 -0.3518  0.1977  0.0531
17163TIP3    H172980   4.773   3.565   0.652  0.7387  2.2465  0.5702
17163TIP3    H272981   4.651   3.544   0.739 -0.0331 -1.5165 -1.2146
17164TIP3   OH272982   5.868   2.696  17.159 -0.4804 -0.3699 -0.6325
17164TIP3    H172983   5.861   2.615  17.108  0.8072 -0.4095 -0.7745
17164TIP3    H272984   5.798   2.752  17.125 -0.0101 -0.6182 -2.0700
17165TIP3   OH272985   3.884   0.071   5.375  0.8052 -0.3241 -0.2599
17165TIP3    H172986   3.879  -0.024   5.366 -0.4488 -0.1726 -1.5681
17165TIP3    H272987   3.937   0.085   5.454 -0.3425 -2.1189  0.9067
17166TIP3   OH272988   6.136   3.458   0.746 -0.1895 -0.3691 -0.0545
17166TIP3    H172989   6.150   3.366   0.725 -1.8136 -1.1088  1.7649
17166TIP3    H272990   6.052   3.479   0.706  0.3394  0.4557 -0.7685
17167TIP3   OH272991   1.654   4.878   3.603  0.5696 -0.0256 -0.0096
17167TIP3    H172992   1.695   4.919   3.679  0.9950 -1.9614  0.8603
17167TIP3    H272993   1.691   4.925   3.528  1.2094  0.9971  0.9159
17168TIP3   OH272994   2.979   3.035   5.239  0.0541  0.1032  0.0051
17168TIP3    H172995   2.991   3.107   5.177 -0.3515  0.1604 -0.0065
17168TIP3    H272996   3.060   2.985   5.233 -0.4380 -0.5663 -1.4452
17169TIP3   OH272997   6.223   3.685   4.835 -0.6702  0.2815 -0.0275
17169TIP3    H172998   6.160   3.743   4.879 -0.1852 -0.1265  1.2493
17169TIP3    H272999   6.215   3.602   4.881  1.6405  0.5576  1.0195
17170TIP3   OH273000   3.377   5.754   0.531 -0.2185  0.1433 -0.5309
17170TIP3    H173001   3.422   5.745   0.615  0.5351  0.3810 -0.8992
17170TIP3    H273002   3.284   5.759   0.554 -0.0209  0.2045  0.2881
17171TIP3   OH273003   2.103   5.848   3.515  0.7308  0.6560 -0.3304
17171TIP3    H173004   2.180   5.898   3.540  0.8572 -0.0103  0.6439
17171TIP3    H273005   2.107   5.769   3.567 -0.7870  0.7510 -0.0200
17172TIP3   OH273006   4.745   6.023   2.746 -0.6298 -0.6648  0.0953
17172TIP3    H173007   4.652   6.005   2.735 -0.5878 -0.8446  0.0395
17172TIP3    H273008   4.751   6.119   2.742 -0.7944 -0.6592 -0.0323
17173TIP3   OH273009   0.762   5.578   0.109 -0.1365 -0.3556  0.8110
17173TIP3    H173010   0.745   5.647   0.045 -0.3494 -0.9979  0.1627
17173TIP3    H273011   0.769   5.624   0.192 -0.0763  0.4704  0.3613
17174TIP3   OH273012   0.847   6.044   1.851 -0.2708 -0.7996 -0.2382
17174TIP3    H173013   0.761   6.004   1.840 -0.6766 -0.0883  0.3533
17174TIP3    H273014   0.891   6.029   1.767 -1.0634 -0.9225 -0.6361
17175TIP3   OH273015   3.034   1.719   0.285 -0.1330 -0.5335 -0.3492
17175TIP3    H173016   3.080   1.795   0.320 -2.4300  0.3372  0.9428
17175TIP3    H273017   3.069   1.709   0.196  0.7750  1.5543 -0.2826
17176TIP3   OH273018   2.940   3.715   2.941  0.5483  0.9181  0.5851
17176TIP3    H173019   2.855   3.687   2.906  1.0705  1.7624 -1.4785
17176TIP3    H273020   2.985   3.633   2.962  1.4642 -0.0044 -3.9176
17177TIP3   OH273021   3.653   1.479   2.503 -0.0878  0.5172  0.7914
17177TIP3    H173022   3.659   1.444   2.592  0.1414  0.5771  0.8013
17177TIP3    H273023   3.743   1.505   2.482  0.1014 -0.6468  0.0722
17178TIP3   OH273024   3.315   1.418  11.626  0.0737  0.4412  0.0548
17178TIP3    H173025   3.245   1.397  11.565  0.5842  0.1654 -0.4470
17178TIP3    H273026   3.343   1.333  11.660  0.2748  0.5358  0.1229
17179TIP3   OH273027   1.182   1.974   3.988 -0.2948  0.1121  0.2407
17179TIP3    H173028   1.105   1.922   4.014 -0.1267 -1.3785 -2.0306
17179TIP3    H273029   1.145   2.054   3.952 -0.7151  0.0974  0.6296
17180TIP3   OH273030   5.063   2.961  13.158 -0.3034 -0.1192  0.0651
17180TIP3    H173031   4.974   2.930  13.145 -0.4453 -0.2922  1.3264
17180TIP3    H273032   5.107   2.890  13.204  0.8756 -0.5753 -1.6455
17181TIP3   OH273033   2.300   0.315   4.389  0.1924  0.1292  0.0312
17181TIP3    H173034   2.284   0.340   4.480  0.3283  1.1399 -0.2052
17181TIP3    H273035   2.391   0.285   4.387  0.3076  0.4652  0.1593
17182TIP3   OH273036   0.199   2.775  11.873 -0.2882  0.5758 -0.2742
17182TIP3    H173037   0.242   2.850  11.916  1.1301 -0.4774  0.2274
17182TIP3    H273038   0.237   2.774  11.785 -2.1245  1.8647 -1.1433
17183TIP3   OH273039   5.126   5.008   5.023  0.2832  0.2008 -0.0156
17183TIP3    H173040   5.168   4.933   5.064 -0.2199 -0.7577 -1.2233
17183TIP3    H273041   5.167   5.015   4.937 -0.0679  0.9748 -0.1270
17184TIP3   OH273042   6.443   6.068   1.966 -0.0413 -0.2233 -0.6225
17184TIP3    H173043   6.458   6.072   2.060 -2.6054 -1.4019 -0.0980
17184TIP3    H273044   6.449   6.159   1.937 -0.1806  0.2737  0.8428
17185TIP3   OH273045   0.348   1.925   0.636 -1.2826 -0.2154 -0.9886
17185TIP3    H173046   0.325   1.832   0.625 -1.8502 -0.2523  0.2751
17185TIP3    H273047   0.271   1.972   0.606 -2.4919 -0.2935  1.7239
17186TIP3   OH273048   4.354   4.523   2.457 -0.1738  0.1764  0.8175
17186TIP3    H173049   4.276   4.579   2.458 -0.9808 -0.8948 -0.1228
17186TIP3    H273050   4.425   4.581   2.487 -0.6222  2.2440 -1.7755
17187TIP3   OH273051   5.750   6.480  17.204 -0.1574  0.1841 -0.5443
17187TIP3    H173052   5.798   6.401  17.177  2.1676  1.1295  0.5898
17187TIP3    H273053   5.709   6.512  17.123 -0.8900 -1.9557 -1.0993
17188TIP3   OH273054   1.472   5.930  11.400 -0.0922 -0.5965 -0.1338
17188TIP3    H173055   1.542   5.994  11.391  0.6372 -1.6416 -3.0784
17188TIP3    H273056   1.469   5.910  11.494  0.9502  2.2276  0.5997
17189TIP3   OH273057   0.333   0.420  16.266 -0.0023  0.7522 -0.1656
17189TIP3    H173058   0.360   0.510  16.246  0.5482  0.5672 -0.2755
17189TIP3    H273059   0.247   0.411  16.224  1.0256  0.4414 -2.3398
17190TIP3   OH273060   1.768   4.811   3.231  0.0774  0.1826  0.4985
17190TIP3    H173061   1.781   4.739   3.293 -0.4028  0.9895  1.5819
17190TIP3    H273062   1.835   4.875   3.256 -0.3453  0.6642  0.4085
17191TIP3   OH273063   0.883   5.625   3.782 -0.5758  0.0795  0.0660
17191TIP3    H173064   0.818   5.670   3.835 -0.4555 -0.0097  0.2887
17191TIP3    H273065   0.930   5.696   3.736 -1.8097  0.0861 -1.2589
17192TIP3   OH273066   2.829   6.815   1.612 -0.0021  0.2372  0.0634
17192TIP3    H173067   2.885   6.810   1.536 -0.7387  1.0566 -0.5568
17192TIP3    H273068   2.796   6.905   1.612 -2.4952 -0.5847 -0.4937
17193TIP3   OH273069   4.408   3.777  10.137  0.4628 -0.4119  0.8000
17193TIP3    H173070   4.504   3.768  10.137  0.4505 -0.5578  0.6349
17193TIP3    H273071   4.378   3.718  10.206  0.4934 -0.3589  0.8584
17194TIP3   OH273072   5.662   2.497  10.523  0.1932 -0.2388 -0.4290
17194TIP3    H173073   5.669   2.414  10.477  0.3876 -0.9230  0.7788
17194TIP3    H273074   5.621   2.557  10.461  2.6388 -0.4075 -2.3715
17195TIP3   OH273075   5.718   4.291   4.341  0.4698 -0.1002 -0.3449
17195TIP3    H173076   5.682   4.207   4.313  1.4987 -0.8093  0.4094
17195TIP3    H273077   5.699   4.350   4.268 -0.3097 -0.9633 -0.8636
17196TIP3   OH273078   1.281   1.925   5.747 -0.0039  0.5268  0.4565
17196TIP3    H173079   1.341   1.953   5.678 -0.4637  0.4011  0.0041
17196TIP3    H273080   1.221   1.999   5.759 -0.5789  0.1470 -0.0191
17197TIP3   OH273081   6.622   5.397  14.075 -0.0153 -0.2851 -0.3842
17197TIP3    H173082   6.547   5.353  14.115  0.7543 -0.5267  0.8755
17197TIP3    H273083   6.669   5.436  14.149  0.1496  1.3825 -1.3158
17198TIP3   OH273084   3.521   6.262   4.424 -0.6185  0.2436 -0.4623
17198TIP3    H173085   3.464   6.329   4.386 -1.6200 -1.0796 -1.3486
17198TIP3    H273086   3.463   6.202   4.470  0.4286  0.9067  1.9188
17199TIP3   OH273087   0.894   0.213   3.316  0.2110 -0.0842 -0.0115
17199TIP3    H173088   0.862   0.176   3.234 -0.4068  1.6462 -0.5787
17199TIP3    H273089   0.989   0.201   3.312  0.1724 -0.1640 -0.8927
17200TIP3   OH273090   6.414   3.906  11.934 -0.3088  0.1243  0.6106
17200TIP3    H173091   6.411   3.995  11.900 -0.7187  0.3803  1.2949
17200TIP3    H273092   6.372   3.853  11.867 -1.0730  0.6153  0.6835
17201TIP3   OH273093   1.397   1.207   1.991  0.5679 -0.6382  0.5702
17201TIP3    H173094   1.425   1.158   2.068  1.3460 -0.3411  0.4821
17201TIP3    H273095   1.478   1.232   1.947  0.1742  0.2551  0.3196
17202TIP3   OH273096   5.759   4.741   1.437 -0.4200  0.0520 -0.4090
17202TIP3    H173097   5.826   4.804   1.412 -1.9088  2.1875  0.5909
17202TIP3    H273098   5.804   4.680   1.495  0.4788  2.1775  1.2930
17203TIP3   OH273099   1.818   3.300  16.350  0.1130 -0.3971 -0.0626
17203TIP3    H173100   1.823   3.273  16.442  0.9899 -2.2192 -0.5889
17203TIP3    H273101   1.760   3.234  16.310  2.5431 -1.8416 -1.4740
17204TIP3   OH273102   1.745   6.335   1.967  0.3820 -0.9396 -0.2790
17204TIP3    H173103   1.759   6.354   2.060  0.5643  0.5446 -0.5935
17204TIP3    H273104   1.834   6.325   1.931  0.3143 -1.3744 -0.3374
17205TIP3   OH273105   0.420   3.992  17.081  0.1607  0.1029 -0.4327
17205TIP3    H173106   0.485   4.013  17.015  1.6547 -0.0938  0.9216
17205TIP3    H273107   0.336   3.997  17.035  0.7809  3.7083 -1.4965
17206TIP3   OH273108   5.204   0.610   5.208  0.0900  0.3797 -0.1308
17206TIP3    H173109   5.213   0.636   5.300  0.7499 -2.2049  0.6138
17206TIP3    H273110   5.276   0.654   5.164 -0.3025  1.7438  0.5423
17207TIP3   OH273111   4.397   1.314  12.311 -0.2955  0.3789 -0.0242
17207TIP3    H173112   4.485   1.330  12.345 -0.3240 -0.0598  0.2711
17207TIP3    H273113   4.340   1.367  12.368 -0.3749 -0.6048  0.8554
17208TIP3   OH273114   2.865   3.486  15.217  1.0481 -0.0340  0.3511
17208TIP3    H173115   2.925   3.430  15.168  0.5019  0.1391 -0.5255
17208TIP3    H273116   2.860   3.567  15.167 -0.2001 -0.1807  0.2087
17209TIP3   OH273117   5.159   1.285  10.628  0.5219 -0.7227 -0.5633
17209TIP3    H173118   5.139   1.304  10.537  2.9130  0.2725 -0.9292
17209TIP3    H273119   5.098   1.339  10.678  0.4899  0.1852 -1.5722
17210TIP3   OH273120   2.399   4.469   5.102 -0.2043  0.4602  0.4020
17210TIP3    H173121   2.361   4.381   5.093 -0.1964  0.4732  0.2314
17210TIP3    H273122   2.466   4.459   5.169 -0.8391  0.5435  1.0674
17211TIP3   OH273123   1.540   2.380   0.509  0.1172 -0.2702  0.1516
17211TIP3    H173124   1.447   2.398   0.525 -0.1207 -1.3059  0.0455
17211TIP3    H273125   1.542   2.347   0.419  0.3854 -1.5317  0.6057
17212TIP3   OH273126   0.316   5.077   1.878 -0.1864  0.4695  0.5385
17212TIP3    H173127   0.287   5.086   1.787 -1.1906 -0.4403  0.7495
17212TIP3    H273128   0.411   5.083   1.873 -0.1391 -0.7646 -0.7332
17213TIP3   OH273129   1.556   1.081  16.907 -0.0739 -0.6378  0.5303
17213TIP3    H173130   1.587   0.994  16.932 -1.4001 -0.7092  2.1376
17213TIP3    H273131   1.551   1.079  16.812 -0.2528 -2.4016  0.5478
17214TIP3   OH273132   1.669   5.172   3.729 -0.5078  0.3863 -0.3943
17214TIP3    H173133   1.754   5.182   3.687 -2.3768  0.9782 -4.5384
17214TIP3    H273134   1.681   5.100   3.791  2.6802 -0.4528 -1.7866
17215TIP3   OH273135   5.558   1.043  15.471  0.1093  0.0769  0.3455
17215TIP3    H173136   5.486   1.069  15.528 -0.1350 -0.4252  0.2779
17215TIP3    H273137   5.529   1.067  15.383 -0.3743 -0.9406  0.2143
17216TIP3   OH273138   6.549   5.459   1.205  0.1904  0.2814 -0.5544
17216TIP3    H173139   6.619   5.518   1.177  1.3252 -0.9705 -0.4773
17216TIP3    H273140   6.579   5.372   1.179 -0.1421 -0.6011  1.6995
17217TIP3   OH273141   5.588   5.436  11.007 -0.1787 -0.3485 -0.3194
17217TIP3    H173142   5.573   5.403  10.919 -2.2317  0.4873 -0.3301
17217TIP3    H273143   5.673   5.399  11.033 -0.2888 -1.8819 -2.0176
17218TIP3   OH273144   0.072   2.786  15.864  0.6470  0.1481  0.5624
17218TIP3    H173145   0.028   2.844  15.926  1.8518  1.1949  0.4693
17218TIP3    H273146   0.137   2.739  15.917  0.4203 -0.3192  0.4315
17219TIP3   OH273147   2.586   5.213   3.101  0.0374 -0.1753  0.1920
17219TIP3    H173148   2.587   5.254   3.188  0.8010 -2.6757  1.4801
17219TIP3    H273149   2.664   5.156   3.101  0.2838  0.0571 -2.3209
17220TIP3   OH273150   2.456   5.880  11.552 -0.2560  0.5229 -0.5624
17220TIP3    H173151   2.490   5.801  11.593 -0.1522  0.9445  0.1836
17220TIP3    H273152   2.485   5.951  11.610 -2.3134  0.9132  0.0513
17221TIP3   OH273153   2.966   0.298  15.294 -1.0164 -0.3965 -0.0396
17221TIP3    H173154   2.922   0.217  15.269  1.4081 -2.7634  2.5675
17221TIP3    H273155   3.035   0.309  15.228  1.6865 -3.3510  2.0053
17222TIP3   OH273156   4.990   0.961  16.998  0.3199  0.4021 -0.3603
17222TIP3    H173157   5.032   0.875  17.002  0.4844  0.5128  0.6153
17222TIP3    H273158   4.904   0.945  16.960  0.6255 -0.0824 -0.8492
17223TIP3   OH273159   0.749   0.238  14.199  0.1124  0.3427 -0.2910
17223TIP3    H173160   0.674   0.291  14.170  0.4334  1.0887  0.2197
17223TIP3    H273161   0.820   0.262  14.139  1.0443  2.5685  1.5252
17224TIP3   OH273162   4.221   4.186   0.919 -0.1037  0.2052  0.1870
17224TIP3    H173163   4.176   4.231   0.848 -1.9280 -1.0476  0.4994
17224TIP3    H273164   4.213   4.093   0.899  0.1490 -0.1408  1.5461
17225TIP3   OH273165   0.294   4.618  15.029 -0.1534 -0.2251 -0.1861
17225TIP3    H173166   0.370   4.606  15.085 -0.0085  0.5019 -0.2092
17225TIP3    H273167   0.309   4.703  14.987  0.2488 -1.1684 -2.0907
17226TIP3   OH273168   1.033   5.991  14.248  0.3418  0.1397  0.6173
17226TIP3    H173169   1.010   5.950  14.332  1.5426 -2.0719 -0.0742
17226TIP3    H273170   1.128   6.004  14.253  0.4259 -0.0294 -0.3839
17227TIP3   OH273171   2.356   0.662  12.833  0.6017  0.1052 -0.2904
17227TIP3    H173172   2.426   0.598  12.821  0.1361 -0.5009  0.1621
17227TIP3    H273173   2.391   0.723  12.899  1.2143  0.5870 -1.0404
17228TIP3   OH273174   4.564   4.954  14.236 -0.9393 -0.1333  0.0152
17228TIP3    H173175   4.616   4.921  14.310 -1.0466  0.8324  0.5370
17228TIP3    H273176   4.473   4.944  14.264 -1.0342 -1.0004 -0.5424
17229TIP3   OH273177   6.613   1.000  11.641 -0.9600  0.2946 -0.2406
17229TIP3    H173178   6.692   0.951  11.662 -0.1073  1.0531 -1.4890
17229TIP3    H273179   6.549   0.933  11.615  0.4885 -0.2153 -2.9214
17230TIP3   OH273180   3.027   6.433   1.397 -0.7377  0.9443  0.3835
17230TIP3    H173181   3.068   6.452   1.312  0.3010  0.4901  0.7646
17230TIP3    H273182   3.048   6.509   1.451 -2.7231  1.9635 -0.1876
17231TIP3   OH273183   2.516   3.151  10.821  0.1512 -0.1531  0.3659
17231TIP3    H173184   2.458   3.132  10.747 -1.1689 -0.4344  1.4301
17231TIP3    H273185   2.527   3.246  10.819  0.1774 -0.1632 -0.2140
17232TIP3   OH273186   0.721   0.986   0.970  0.1838 -0.4330  0.1269
17232TIP3    H173187   0.799   1.038   0.952 -0.7797  0.6999 -0.9956
17232TIP3    H273188   0.753   0.897   0.986  1.5185 -0.7065 -3.3112
17233TIP3   OH273189   5.565   4.628  13.084  0.1190  0.3002 -0.3651
17233TIP3    H173190   5.491   4.596  13.032  0.0825 -1.5977  0.7656
17233TIP3    H273191   5.528   4.650  13.169  0.5664  1.1132 -0.3666
17234TIP3   OH273192   6.434   1.586   3.167  0.2010  0.0865  0.2554
17234TIP3    H173193   6.373   1.596   3.093  0.9508 -0.3821 -0.4381
17234TIP3    H273194   6.448   1.676   3.198  2.0086  0.6437 -1.9346
17235TIP3   OH273195   1.134   1.781   1.113  0.4664 -0.3888  0.1049
17235TIP3    H173196   1.139   1.686   1.115  0.6234 -0.4321 -1.4300
17235TIP3    H273197   1.049   1.800   1.073  0.7266  0.1094 -0.2187
17236TIP3   OH273198   3.373   0.385   6.130 -0.6894  0.4154 -0.1229
17236TIP3    H173199   3.317   0.317   6.167  0.6946 -0.0028  1.2926
17236TIP3    H273200   3.455   0.341   6.110  0.3102  1.6702  1.0116
17237TIP3   OH273201   0.510   4.999   2.989 -0.2478  0.8097 -0.4587
17237TIP3    H173202   0.419   5.028   2.997 -0.0996  0.7870  2.3268
17237TIP3    H273203   0.560   5.080   2.977 -0.4572  1.0822  0.3959
17238TIP3   OH273204   2.981   4.380   5.802  0.2760  0.1280 -0.9076
17238TIP3    H173205   3.071   4.350   5.812 -0.0446 -0.6641 -0.2912
17238TIP3    H273206   2.981   4.433   5.722  1.3502  0.3987 -0.7362
17239TIP3   OH273207   0.650   2.291   0.318 -0.1550  0.0827  0.2522
17239TIP3    H173208   0.711   2.219   0.336 -2.8330 -2.3166  0.3904
17239TIP3    H273209   0.573   2.249   0.282 -2.3729  2.7667  1.4640
17240TIP3   OH273210   2.719   2.251  13.512  0.1572  0.2531 -0.1244
17240TIP3    H173211   2.675   2.175  13.552 -0.2470  0.4622 -0.1664
17240TIP3    H273212   2.795   2.266  13.568  0.5366 -0.5102 -0.4166
17241TIP3   OH273213   3.976   3.419  13.599  0.4922  0.1570 -0.1965
17241TIP3    H173214   3.903   3.432  13.540  0.5054  2.7525  0.2343
17241TIP3    H273215   4.051   3.403  13.542 -0.1388 -1.2870 -0.6732
17242TIP3   OH273216   3.826   3.992   1.710  0.5250 -0.4019  0.0680
17242TIP3    H173217   3.909   4.016   1.668  0.2748  0.9556  0.3031
17242TIP3    H273218   3.783   3.934   1.646  0.1644  1.5809 -1.5889
17243TIP3   OH273219   1.688   3.509   5.831 -0.0550  0.2689  0.2118
17243TIP3    H173220   1.774   3.515   5.872  0.3138  0.8676 -0.6258
17243TIP3    H273221   1.642   3.587   5.860  1.2452  2.3234 -2.7701
17244TIP3   OH273222   4.472   2.253   4.831 -0.3653  0.4818  0.1060
17244TIP3    H173223   4.483   2.181   4.893  0.5737  1.3728  1.0179
17244TIP3    H273224   4.427   2.214   4.756 -0.6552 -0.8443  0.9383
17245TIP3   OH273225   6.232   3.676   4.307  0.4309 -0.2912 -0.2492
17245TIP3    H173226   6.323   3.665   4.280 -0.3259 -3.5484 -2.0096
17245TIP3    H273227   6.232   3.653   4.400  1.4112 -0.3184 -0.2411
17246TIP3   OH273228   1.252   1.264   1.232  0.1860 -0.3389 -0.1936
17246TIP3    H173229   1.189   1.333   1.212  0.2811 -0.2013 -0.0248
17246TIP3    H273230   1.246   1.252   1.327 -0.6553 -1.3657 -0.3549
17247TIP3   OH273231   4.775   3.410   1.247 -0.5981 -0.3629 -0.3869
17247TIP3    H173232   4.714   3.364   1.306  0.9001 -0.3973  1.2047
17247TIP3    H273233   4.838   3.343   1.222  0.1592  0.2268 -0.0757
17248TIP3   OH273234   6.753   6.704  15.291 -0.4267 -0.2231  0.5304
17248TIP3    H173235   6.754   6.800  15.293  0.1258 -0.1706 -1.0908
17248TIP3    H273236   6.661   6.682  15.276 -0.6768  0.0086  1.6229
17249TIP3   OH273237   3.423   6.023  12.895  0.9908  0.3583 -0.1071
17249TIP3    H173238   3.443   6.096  12.953  2.3345  1.2144 -1.5559
17249TIP3    H273239   3.477   5.951  12.927 -0.0813  0.0522  1.1169
17250TIP3   OH273240   2.482   3.784  16.265  0.0232 -0.4448  0.2852
17250TIP3    H173241   2.550   3.743  16.212 -0.6919 -1.0012 -0.2189
17250TIP3    H273242   2.471   3.871  16.227  1.1313  0.0386  0.9942
17251TIP3   OH273243   2.039   6.185  11.282 -0.1267  0.5631  0.5795
17251TIP3    H173244   2.124   6.195  11.240  0.4101 -0.5485  1.3519
17251TIP3    H273245   1.979   6.163  11.211  0.3389  0.7855  0.1122
17252TIP3   OH273246   4.845   1.336   2.729 -0.3502  0.0418 -0.0609
17252TIP3    H173247   4.914   1.269   2.732  0.6005  0.9838 -0.4811
17252TIP3    H273248   4.866   1.396   2.800 -1.2939 -0.1742  0.4172
17253TIP3   OH273249   6.793   2.396  13.991 -0.4602  0.0217  0.5729
17253TIP3    H173250   6.753   2.478  13.961  0.8192  1.1660  1.8218
17253TIP3    H273251   6.740   2.371  14.067 -1.1965 -0.6328 -0.1469
17254TIP3   OH273252   4.566   6.447   5.539  0.3801 -0.0898  0.7791
17254TIP3    H173253   4.656   6.422   5.519  0.3457  0.6342 -0.3533
17254TIP3    H273254   4.558   6.537   5.507 -1.3422 -0.8540 -1.1499
17255TIP3   OH273255   4.683   2.324  16.674  0.6591  0.4570  0.5757
17255TIP3    H173256   4.614   2.391  16.670 -0.1078 -0.3066  0.7166
17255TIP3    H273257   4.757   2.369  16.715 -0.7127  0.5185  3.2122
17256TIP3   OH273258   3.166   5.423   4.903  0.0260 -0.0876 -0.0466
17256TIP3    H173259   3.164   5.503   4.956  0.9049 -0.3135  0.3524
17256TIP3    H273260   3.242   5.375   4.936  0.7925 -0.0917 -1.7366
17257TIP3   OH273261   0.077   3.401  10.546  0.3402 -0.3595  0.6160
17257TIP3    H173262   0.125   3.418  10.627 -0.4513 -0.6434  1.1630
17257TIP3    H273263   0.139   3.355  10.490  0.7027 -0.7547  1.3250
17258TIP3   OH273264   4.596   0.311   3.257  0.5173 -0.5719 -0.4197
17258TIP3    H173265   4.541   0.250   3.306 -0.9064  1.4726  0.6939
17258TIP3    H273266   4.680   0.310   3.303  0.6383 -1.8794 -0.6259
17259TIP3   OH273267   3.905   2.616   5.561  0.3857 -0.2729 -0.5161
17259TIP3    H173268   3.922   2.526   5.533  0.0777 -0.4966  0.0044
17259TIP3    H273269   3.868   2.658   5.483  0.2675 -0.6757 -0.6814
17260TIP3   OH273270   2.010   4.609  13.211  0.2495 -0.0766  0.4889
17260TIP3    H173271   2.105   4.620  13.204  0.5455 -2.2644  0.5712
17260TIP3    H273272   1.997   4.517  13.235 -1.9045  0.1246  0.3414
17261TIP3   OH273273   0.324   3.829  14.509  0.3129 -0.1458  0.1066
17261TIP3    H173274   0.235   3.795  14.522  0.1767  0.0446 -0.3109
17261TIP3    H273275   0.311   3.914  14.468  0.6353  0.5634  1.4109
17262TIP3   OH273276   5.501   4.506   6.077 -0.1115 -0.4415 -0.0240
17262TIP3    H173277   5.513   4.546   5.991  0.9696 -0.0495  0.2885
17262TIP3    H273278   5.581   4.529   6.125 -0.2349 -1.5276  0.7351
17263TIP3   OH273279   6.567   6.406  16.647  0.2309 -0.4411 -0.0843
17263TIP3    H173280   6.525   6.492  16.652  2.1014  0.5286 -0.2799
17263TIP3    H273281   6.602   6.392  16.735  0.9149 -0.4660 -0.3574
17264TIP3   OH273282   1.412   0.601   1.457 -0.0122 -0.3843 -0.0836
17264TIP3    H173283   1.360   0.645   1.389  0.7698  0.5323 -0.1113
17264TIP3    H273284   1.349   0.580   1.526 -0.3788  1.0270  0.0397
17265TIP3   OH273285   2.132   0.887  14.197  0.5938  0.6135 -0.2868
17265TIP3    H173286   2.208   0.836  14.224 -0.6983 -0.2358  2.1313
17265TIP3    H273287   2.082   0.828  14.141  1.4313  0.9881 -1.4510
17266TIP3   OH273288   4.981   6.354   0.987 -0.2485  0.0531  0.3360
17266TIP3    H173289   4.910   6.405   0.948 -1.0379 -0.8962  0.5000
17266TIP3    H273290   4.942   6.311   1.063  0.6322 -0.0959  0.7205
17267TIP3   OH273291   6.341   2.738   3.187 -0.0904  0.2843 -0.1252
17267TIP3    H173292   6.373   2.756   3.098 -0.5323  0.5694 -0.2289
17267TIP3    H273293   6.398   2.789   3.244 -0.1738  0.5650 -0.2902
17268TIP3   OH273294   0.869   0.981   1.301  0.0823 -0.1937  0.4606
17268TIP3    H173295   0.906   0.914   1.359 -1.9263 -2.1874 -0.3854
17268TIP3    H273296   0.790   1.011   1.346 -0.7737 -0.8027 -0.5787
17269TIP3   OH273297   1.754   0.407   3.807  0.0460  0.2730 -0.0086
17269TIP3    H173298   1.678   0.356   3.778  0.7227  0.2783 -1.9804
17269TIP3    H273299   1.768   0.381   3.898 -1.6523 -0.5254  0.0626
17270TIP3   OH273300   6.578   5.855   0.400  0.1419  0.2818  0.7164
17270TIP3    H173301   6.539   5.808   0.327 -0.3015 -0.1071  1.1918
17270TIP3    H273302   6.512   5.850   0.469 -0.3625  2.4971  0.4595
17271TIP3   OH273303   2.775   1.301  16.403 -0.7267  0.2605 -0.0416
17271TIP3    H173304   2.689   1.290  16.362 -0.6644  0.2943 -0.1810
17271TIP3    H273305   2.833   1.324  16.331 -1.0556  2.6926  0.3862
17272TIP3   OH273306   5.129   3.038  14.057 -0.5883 -0.4166 -0.2506
17272TIP3    H173307   5.069   3.039  14.132  0.3120 -2.0318  0.5630
17272TIP3    H273308   5.128   2.947  14.028 -0.8045  0.1611 -2.1529
17273TIP3   OH273309   3.988   3.517   4.706  0.4187 -0.1754 -0.2001
17273TIP3    H173310   4.067   3.464   4.697  0.3161 -0.2147 -1.0103
17273TIP3    H273311   3.928   3.480   4.641 -0.5424 -0.6299  0.9245
17274TIP3   OH273312   5.570   0.272   0.020  0.0646  0.0197 -0.1633
17274TIP3    H173313   5.623   0.201  -0.016  0.1070 -0.4108  0.7194
17274TIP3    H273314   5.506   0.227   0.077  0.0049  0.6731  0.2912
17275TIP3   OH273315   6.775   2.950  13.351  0.2473  0.1344  0.2827
17275TIP3    H173316   6.850   2.908  13.393  0.7789 -0.9165 -1.5986
17275TIP3    H273317   6.714   2.878  13.334 -0.2325  0.6368 -0.1480
17276TIP3   OH273318   5.295   4.763   1.134  0.6225 -0.1403 -0.0693
17276TIP3    H173319   5.278   4.713   1.054  0.5196  0.9203 -0.7327
17276TIP3    H273320   5.384   4.740   1.159  1.0491  0.3261 -1.1126
17277TIP3   OH273321   1.111   4.827  11.570 -0.2925  0.0027  0.5015
17277TIP3    H173322   1.185   4.889  11.566 -0.1502 -0.2067 -0.0550
17277TIP3    H273323   1.034   4.883  11.580 -0.4365  0.4500 -2.3758
17278TIP3   OH273324   5.751   2.497   3.483 -0.2212 -0.1407 -0.0517
17278TIP3    H173325   5.698   2.479   3.561  2.5092 -1.8668  1.5695
17278TIP3    H273326   5.749   2.592   3.473 -2.8208 -0.0795  0.4177
17279TIP3   OH273327   6.759   2.644   4.703  0.3722  0.1394 -0.0462
17279TIP3    H173328   6.784   2.719   4.650 -0.0373  0.6823  0.5113
17279TIP3    H273329   6.834   2.630   4.761  0.2578  0.4170  0.1699
17280TIP3   OH273330   5.051   1.131   1.134 -0.1060  0.0979  0.4559
17280TIP3    H173331   5.018   1.065   1.195 -0.6133  0.9065  1.0850
17280TIP3    H273332   5.146   1.126   1.142 -0.0651 -1.5929 -0.6478
17281TIP3   OH273333   3.833   3.452   0.576 -0.0686 -0.0866 -0.1209
17281TIP3    H173334   3.890   3.390   0.623 -0.8349 -0.5553  0.2255
17281TIP3    H273335   3.843   3.429   0.484  0.6291  0.1270 -0.1068
17282TIP3   OH273336   3.297   5.630  14.925 -0.3700 -0.1594  0.0750
17282TIP3    H173337   3.232   5.598  14.988 -1.2396  0.5673 -0.4269
17282TIP3    H273338   3.302   5.560  14.859  0.6224 -0.9685  0.9850
17283TIP3   OH273339   1.043   5.472   3.953  0.1730  0.4283  0.6349
17283TIP3    H173340   0.976   5.514   3.900  1.4601  2.0963  0.2373
17283TIP3    H273341   1.065   5.392   3.906 -1.3090  0.0039  0.6338
17284TIP3   OH273342   3.219   6.189   6.271 -0.2461 -0.3197 -0.1483
17284TIP3    H173343   3.246   6.268   6.318  2.4373 -1.3345  0.1692
17284TIP3    H273344   3.186   6.130   6.339 -0.0771 -0.3181 -0.0640
17285TIP3   OH273345   1.433   3.845  11.454 -0.1128 -0.1950  0.0179
17285TIP3    H173346   1.510   3.879  11.500 -1.0227  0.2523  1.2437
17285TIP3    H273347   1.468   3.811  11.371  1.3779  0.1169  0.4931
17286TIP3   OH273348   4.965   0.926   6.003  0.5700 -0.2685 -0.3740
17286TIP3    H173349   5.042   0.972   5.969  0.0804  0.8631  0.0044
17286TIP3    H273350   4.891   0.977   5.972  0.0252 -0.5619  0.4152
17287TIP3   OH273351   0.691   1.303   1.385  0.1977 -0.1311 -0.0900
17287TIP3    H173352   0.620   1.240   1.395 -1.8417  1.8888 -1.0036
17287TIP3    H273353   0.663   1.379   1.436  1.2007  1.1098 -1.3169
17288TIP3   OH273354   5.088   3.551   5.609 -0.2959 -0.4920  0.0620
17288TIP3    H173355   5.135   3.614   5.665 -1.0544 -0.3742  0.5897
17288TIP3    H273356   5.005   3.594   5.589 -0.5353 -1.0402 -0.1497
17289TIP3   OH273357   2.087   0.380  14.853 -0.0113 -0.2564  0.6961
17289TIP3    H173358   2.018   0.329  14.810 -1.3544  2.4078 -0.5373
17289TIP3    H273359   2.169   0.339  14.824 -0.9623 -0.3493 -2.1268
17290TIP3   OH273360   2.083   2.010   5.362 -0.6699  0.4714 -0.2011
17290TIP3    H173361   1.999   1.988   5.401 -0.0531 -1.2568  0.2792
17290TIP3    H273362   2.143   1.944   5.398  0.6274  0.9350 -1.4424
17291TIP3   OH273363   6.534   3.654  12.835  0.6726  0.5527 -0.2456
17291TIP3    H173364   6.465   3.594  12.808  0.4996 -0.3212  1.9579
17291TIP3    H273365   6.514   3.675  12.926  3.1469  0.4767  0.3849
17292TIP3   OH273366   5.191   5.400   2.359 -0.0681 -0.0471 -0.0418
17292TIP3    H173367   5.097   5.403   2.378  0.0718  1.0602  0.5612
17292TIP3    H273368   5.230   5.458   2.424  0.8733  0.7891 -1.3196
17293TIP3   OH273369   4.875   1.057  11.187  0.1497 -0.0041  0.0440
17293TIP3    H173370   4.889   1.151  11.193  0.7074 -0.1334  0.9682
17293TIP3    H273371   4.894   1.035  11.096  1.9413  0.4905  0.2565
17294TIP3   OH273372   3.546   5.403  13.296 -0.0244  0.2932 -0.0915
17294TIP3    H173373   3.572   5.460  13.225  0.9699  0.9791  0.7980
17294TIP3    H273374   3.612   5.333  13.297 -0.2497  0.0768 -0.0748
17295TIP3   OH273375   1.795   2.470  16.717 -0.3182  0.0411 -0.0746
17295TIP3    H173376   1.770   2.446  16.628 -0.3051 -0.2105 -0.0115
17295TIP3    H273377   1.787   2.565  16.720  0.9966  0.1893 -0.7510
17296TIP3   OH273378   0.148   1.991  10.511 -0.3389  0.1274 -0.7385
17296TIP3    H173379   0.068   1.946  10.483 -0.1967  0.8126 -2.3615
17296TIP3    H273380   0.208   1.921  10.534 -0.6331 -0.4865 -1.7695
17297TIP3   OH273381   0.460   4.813  16.772 -0.1935 -0.4585 -0.3573
17297TIP3    H173382   0.469   4.897  16.816 -1.3728 -1.6551  2.4633
17297TIP3    H273383   0.527   4.813  16.704  1.9533  1.5289  1.5903
17298TIP3   OH273384   1.072   5.095   2.619 -0.2950 -0.0884 -0.4796
17298TIP3    H173385   1.079   5.146   2.700  0.2568  0.5895 -0.9323
17298TIP3    H273386   1.096   5.158   2.550  1.4082 -1.2058 -0.9814
17299TIP3   OH273387   4.079   1.642   0.748 -0.2236  0.1027  0.0344
17299TIP3    H173388   4.118   1.572   0.799  0.0471  0.8277  0.8399
17299TIP3    H273389   4.139   1.716   0.757 -1.2321  0.9038  0.4185
17300TIP3   OH273390   2.093   3.798   4.681 -0.6170 -0.8006 -0.1689
17300TIP3    H173391   2.043   3.844   4.614 -0.1586 -0.2445 -0.1386
17300TIP3    H273392   2.110   3.712   4.644 -0.3584 -0.4946 -0.7696
17301TIP3   OH273393   1.627   2.680   3.692  0.1186  0.0190  0.0622
17301TIP3    H173394   1.661   2.751   3.638  1.6121 -0.3850  0.4078
17301TIP3    H273395   1.551   2.647   3.644  0.6146  0.5389 -1.1200
17302TIP3   OH273396   5.083   0.020  13.883  0.1643  0.5598  0.3591
17302TIP3    H173397   5.053   0.034  13.793  1.6387  1.4674 -0.0340
17302TIP3    H273398   5.013  -0.030  13.924 -1.1075  1.1758 -0.9455
17303TIP3   OH273399   0.252   3.741  12.922 -0.1535 -0.1654  0.3559
17303TIP3    H173400   0.208   3.658  12.943  1.1510 -1.4437 -1.5748
17303TIP3    H273401   0.290   3.770  13.004  0.4637 -2.1989  0.8443
17304TIP3   OH273402   4.684   1.531   0.608  0.1675 -0.2082  0.1222
17304TIP3    H173403   4.648   1.537   0.696  0.1402  1.0971  0.0384
17304TIP3    H273404   4.734   1.450   0.607 -1.8647 -1.5375  0.5845
17305TIP3   OH273405   6.049   3.219  16.348  0.2185 -0.0197 -0.5949
17305TIP3    H173406   6.055   3.278  16.423 -0.7928  1.6550 -1.7610
17305TIP3    H273407   6.139   3.190  16.334  1.0094  2.2358 -0.7014
17306TIP3   OH273408   4.819   6.757  15.416  0.0557  0.3475  0.1649
17306TIP3    H173409   4.756   6.760  15.488 -0.1448  1.4248 -0.0473
17306TIP3    H273410   4.861   6.671  15.425  0.7047  0.8265  2.1390
17307TIP3   OH273411   4.123   1.236  12.060  0.0926 -0.3084  0.2793
17307TIP3    H173412   4.158   1.176  11.994  0.0909  0.3472 -0.3279
17307TIP3    H273413   4.165   1.209  12.142  2.0754  0.5006 -0.4226
17308TIP3   OH273414   3.044   6.399  10.848  0.1328  0.3073  0.3901
17308TIP3    H173415   3.090   6.482  10.861 -0.8334  0.9102  0.0685
17308TIP3    H273416   2.955   6.416  10.877  0.2558 -1.0568  1.7037
17309TIP3   OH273417   6.693   4.414   0.979 -0.0270 -0.2735 -0.6718
17309TIP3    H173418   6.662   4.330   1.013 -0.0956 -0.0112 -0.0677
17309TIP3    H273419   6.670   4.477   1.047  0.9290  0.0821 -0.6598
17310TIP3   OH273420   3.259   4.098  10.743 -0.3348 -0.3725 -0.3600
17310TIP3    H173421   3.323   4.044  10.697 -1.1236  0.0664 -2.0415
17310TIP3    H273422   3.177   4.086  10.695 -0.7372  1.6231 -0.2646
17311TIP3   OH273423   1.162   2.952  14.383 -0.4366  0.1258  0.0082
17311TIP3    H173424   1.068   2.932  14.390 -0.4686  0.5770  1.2501
17311TIP3    H273425   1.205   2.869  14.403 -0.5758  0.1479  0.4138
17312TIP3   OH273426   3.704   3.651  14.437  0.2595  0.3840 -0.0594
17312TIP3    H173427   3.632   3.712  14.454  1.1129  1.4876 -0.2532
17312TIP3    H273428   3.699   3.587  14.508 -0.6960  0.6539  0.1246
17313TIP3   OH273429   6.705   1.305   1.574 -0.0351 -0.4844 -0.1577
17313TIP3    H173430   6.774   1.346   1.522 -0.5539 -0.6479 -0.9986
17313TIP3    H273431   6.639   1.374   1.585 -0.3079 -0.7002 -0.4376
17314TIP3   OH273432   5.111   6.777  17.198  0.3733  0.0271  0.2737
17314TIP3    H173433   5.046   6.832  17.155  0.6702  1.2840  1.3637
17314TIP3    H273434   5.186   6.835  17.214  1.2039 -1.0193  0.3300
17315TIP3   OH273435   2.808   5.512  13.219 -0.0545 -0.6881  0.3314
17315TIP3    H173436   2.776   5.551  13.137 -2.7728 -2.3825  0.4581
17315TIP3    H273437   2.856   5.434  13.191  1.2588  0.1210  0.2783
17316TIP3   OH273438   3.857   5.659   2.630 -0.2738 -0.0191  0.6808
17316TIP3    H173439   3.897   5.583   2.588 -0.1619 -0.1227  0.9690
17316TIP3    H273440   3.920   5.684   2.697 -0.4250  0.1763  0.7505
17317TIP3   OH273441   1.887   3.306  11.494  0.1898 -0.4291  0.5268
17317TIP3    H173442   1.952   3.244  11.461 -1.8108 -2.3194 -0.1015
17317TIP3    H273443   1.842   3.337  11.415 -0.0294  0.4453  0.9914
17318TIP3   OH273444   5.206   0.026  14.379  0.3212 -0.4884  0.5254
17318TIP3    H173445   5.234  -0.066  14.373  1.2513 -0.1677 -0.3454
17318TIP3    H273446   5.186   0.050  14.288 -0.1739  0.0982  0.7884
17319TIP3   OH273447   5.617   5.324   4.044 -0.2275  0.0878 -0.2275
17319TIP3    H173448   5.574   5.409   4.036  0.8084  0.5698 -0.9528
17319TIP3    H273449   5.607   5.284   3.957 -0.5403 -0.4499  0.0535
17320TIP3   OH273450   2.934   2.079  11.879 -0.1288  0.4004 -0.4301
17320TIP3    H173451   3.015   2.123  11.857 -0.9759  1.4087 -1.6222
17320TIP3    H273452   2.876   2.148  11.912 -0.6068 -0.2627  0.1834
17321TIP3   OH273453   4.045   4.987  12.724  0.0392 -0.2899 -0.2161
17321TIP3    H173454   4.020   4.993  12.816 -0.0649 -0.2795 -0.2449
17321TIP3    H273455   3.970   4.945  12.681  0.2103 -0.5683 -0.2432
17322TIP3   OH273456   4.866   3.797  16.256 -0.7595 -0.7195 -0.0492
17322TIP3    H173457   4.842   3.720  16.205  1.5604 -0.9485 -0.9152
17322TIP3    H273458   4.961   3.798  16.254 -0.6206  0.2704  2.8699
17323TIP3   OH273459   0.101   1.356  17.062 -0.2200 -0.3302  0.3421
17323TIP3    H173460   0.007   1.341  17.058 -0.0897 -0.8926 -1.0893
17323TIP3    H273461   0.111   1.451  17.057 -0.7098 -0.2418  0.8776
17324TIP3   OH273462   6.137   2.960  10.796  0.2947 -0.3569  0.4056
17324TIP3    H173463   6.215   2.975  10.851  0.1039 -1.1882  0.9218
17324TIP3    H273464   6.173   2.926  10.714  0.5483  0.4070  0.1888
17325TIP3   OH273465   4.706   0.021   4.109 -0.1922  0.2064 -0.1035
17325TIP3    H173466   4.632  -0.028   4.146  0.4624  0.8212  2.2075
17325TIP3    H273467   4.747   0.062   4.185  2.3640  0.1374 -1.3625
17326TIP3   OH273468   3.273   0.972   3.445 -0.2224  0.1035 -0.8582
17326TIP3    H173469   3.232   1.058   3.440  2.5987  1.7134  0.7702
17326TIP3    H273470   3.202   0.913   3.472 -2.0711  2.0295 -1.2334
17327TIP3   OH273471   0.736   0.963   2.847 -0.2099  0.4762 -0.4638
17327TIP3    H173472   0.708   1.015   2.923 -0.2711  0.2213 -0.3114
17327TIP3    H273473   0.793   0.896   2.884 -1.7407 -0.8300 -0.3761
17328TIP3   OH273474   2.212   0.471  16.770  0.2924  0.8283 -0.7614
17328TIP3    H173475   2.283   0.481  16.834 -0.3217 -0.5663  0.1597
17328TIP3    H273476   2.258   0.462  16.686  1.1773  0.8825 -0.3013
17329TIP3   OH273477   2.947   6.679  15.397 -0.0478 -0.0695  0.1694
17329TIP3    H173478   2.985   6.753  15.445  0.3114 -0.9755  1.3531
17329TIP3    H273479   3.019   6.644  15.345 -0.7304  1.6464 -2.0649
17330TIP3   OH273480   5.204   6.169   4.881 -0.0622  0.6740  0.1691
17330TIP3    H173481   5.117   6.171   4.921  0.7622 -0.0670  2.0947
17330TIP3    H273482   5.251   6.240   4.923  0.0646  1.6017 -1.4582
17331TIP3   OH273483   1.783   1.457  12.826 -0.7671  0.2701 -0.3781
17331TIP3    H173484   1.748   1.374  12.793  0.0947  0.2732 -1.3445
17331TIP3    H273485   1.721   1.523  12.795 -1.6018 -0.0170  0.6244
17332TIP3   OH273486   0.482   1.627  10.930 -1.0886 -0.2219  0.1356
17332TIP3    H173487   0.399   1.579  10.925 -1.0387 -0.4224  0.9637
17332TIP3    H273488   0.549   1.558  10.928 -0.9423 -0.0631 -0.4960
17333TIP3   OH273489   3.082   6.740   6.310  0.8696  0.3885  0.3861
17333TIP3    H173490   3.095   6.833   6.330 -0.4282  0.5385  0.6176
17333TIP3    H273491   3.168   6.700   6.323  1.5365  1.6184 -0.0938
17334TIP3   OH273492   0.468   1.655   2.703 -0.6159 -0.4705  0.4065
17334TIP3    H173493   0.468   1.729   2.764 -1.0457 -0.2873  0.1825
17334TIP3    H273494   0.558   1.621   2.708 -1.1316 -1.7880  2.7484
17335TIP3   OH273495   2.867   5.074   6.563 -0.3055 -0.0523  0.3738
17335TIP3    H173496   2.807   5.145   6.541 -1.1574 -0.0779  2.4721
17335TIP3    H273497   2.856   5.011   6.492 -1.3628  0.7940 -0.2430
17336TIP3   OH273498   2.011   2.121  16.180  0.5290  1.2427  0.1124
17336TIP3    H173499   1.930   2.086  16.217  0.1374  0.5675 -1.3146
17336TIP3    H273500   2.079   2.097  16.242 -0.0248 -0.3376  0.1280
17337TIP3   OH273501   0.625   0.496   3.457  0.1365  0.4496 -0.3457
17337TIP3    H173502   0.604   0.503   3.550 -1.1028 -1.8703 -0.3871
17337TIP3    H273503   0.717   0.520   3.451  0.4237 -0.0433  1.6050
17338TIP3   OH273504   5.126   4.425   4.643  0.1436 -0.0732 -0.2648
17338TIP3    H173505   5.058   4.489   4.623  1.5146  1.4273 -0.4259
17338TIP3    H273506   5.134   4.427   4.738 -0.7951 -1.1224 -0.1424
17339TIP3   OH273507   2.902   1.194  11.159 -0.0718 -0.3263  0.0459
17339TIP3    H173508   2.869   1.229  11.076  1.1775 -1.2089 -0.8593
17339TIP3    H273509   2.869   1.104  11.162 -0.9708  0.0102  1.0365
17340TIP3   OH273510   2.968   6.206  12.650 -0.0000  0.0519 -0.2166
17340TIP3    H173511   3.027   6.266  12.606  0.8838  1.1381  2.2600
17340TIP3    H273512   3.022   6.162  12.716 -1.3059 -1.1964  0.0905
17341TIP3   OH273513   5.541   0.503   3.651  0.4560 -0.0014  0.0318
17341TIP3    H173514   5.490   0.422   3.662  0.6984 -0.1877 -0.2089
17341TIP3    H273515   5.496   0.551   3.582 -0.7042  0.8806  1.3470
17342TIP3   OH273516   3.490   0.899   5.723 -0.0396 -0.3678  0.4389
17342TIP3    H173517   3.489   0.815   5.678 -1.4945 -0.5542  0.7686
17342TIP3    H273518   3.560   0.948   5.680 -0.9146 -0.7728 -1.5774
17343TIP3   OH273519   1.681   0.605  14.134 -0.3086  0.3944  0.2034
17343TIP3    H173520   1.588   0.595  14.112 -0.4312 -0.2061  0.9328
17343TIP3    H273521   1.702   0.526  14.183 -0.1480  1.8030  2.5335
17344TIP3   OH273522   4.151   4.790   1.697 -0.0608  0.0006 -0.1030
17344TIP3    H173523   4.055   4.796   1.695 -0.0530  0.9264  1.0238
17344TIP3    H273524   4.178   4.812   1.608 -0.9205 -1.4343 -0.7654
17345TIP3   OH273525   4.272   6.404  13.246  0.3308 -0.1075 -0.5313
17345TIP3    H173526   4.205   6.443  13.190 -0.6517 -1.4184 -0.3361
17345TIP3    H273527   4.234   6.320  13.274  0.6795  0.5410  2.2314
17346TIP3   OH273528   4.897   2.820   4.411 -0.8348  0.5258 -0.8043
17346TIP3    H173529   4.813   2.817   4.457 -0.6390  0.8900 -0.4067
17346TIP3    H273530   4.897   2.905   4.366  0.4566  1.8660  1.4924
17347TIP3   OH273531   0.672   3.173   2.214 -0.2184 -0.1023 -1.3667
17347TIP3    H173532   0.670   3.091   2.165 -2.7569  0.0886 -1.6960
17347TIP3    H273533   0.663   3.241   2.147 -0.3719  0.3282 -0.9141
17348TIP3   OH273534   2.683   2.003   1.279 -0.0518  0.0685  0.3956
17348TIP3    H173535   2.627   1.966   1.347  1.1969 -1.3493  0.7327
17348TIP3    H273536   2.698   1.930   1.218  0.2129  0.8348 -0.4863
17349TIP3   OH273537   1.411   2.678   1.828 -0.3880 -0.2227  0.0964
17349TIP3    H173538   1.485   2.632   1.790 -0.8278  0.6574 -1.9934
17349TIP3    H273539   1.354   2.610   1.864 -0.4574 -1.2379 -1.8531
17350TIP3   OH273540   1.042   0.841   1.943  0.1764  0.2859 -0.4830
17350TIP3    H173541   1.124   0.892   1.944 -0.1535  0.8166  0.7162
17350TIP3    H273542   1.065   0.758   1.985  0.0035  0.6101  0.2685
17351TIP3   OH273543   3.233   6.283   2.424 -0.0398  0.3647  0.1104
17351TIP3    H173544   3.328   6.289   2.417 -0.0435 -0.9241 -4.3370
17351TIP3    H273545   3.201   6.364   2.384 -0.9178  1.0876  2.1547
17352TIP3   OH273546   5.181   4.994  13.001 -0.5047  0.3342 -0.0184
17352TIP3    H173547   5.173   5.064  12.935  1.0016  0.4660 -0.0939
17352TIP3    H273548   5.248   5.026  13.061 -2.0208  0.3123  1.7475
17353TIP3   OH273549   6.483   6.535   4.155 -0.3916 -0.6148  0.3161
17353TIP3    H173550   6.487   6.626   4.123 -0.6166 -1.3219 -1.8660
17353TIP3    H273551   6.433   6.541   4.236  2.4921  1.6520  2.1185
17354TIP3   OH273552   4.933   4.787   1.658 -0.0460 -0.1781 -1.0294
17354TIP3    H173553   4.903   4.843   1.730 -0.2093  0.4819 -1.5980
17354TIP3    H273554   4.931   4.698   1.694 -1.5731 -0.0300 -0.6842
17355TIP3   OH273555   5.775   0.346  14.338  0.1916 -0.6020 -0.0030
17355TIP3    H173556   5.698   0.291  14.351 -2.3388  2.5576 -0.1505
17355TIP3    H273557   5.813   0.356  14.426 -1.8804  0.7086  0.8234
17356TIP3   OH273558   4.779   5.972  13.793  0.1788  0.1516 -0.4909
17356TIP3    H173559   4.736   5.978  13.707 -1.0529 -0.0263  0.1011
17356TIP3    H273560   4.830   5.891  13.789  0.4972  0.3761 -1.2037
17357TIP3   OH273561   2.451   4.350   0.973 -0.0018 -0.2973 -0.1538
17357TIP3    H173562   2.542   4.375   0.988 -0.2221  1.1317 -1.0280
17357TIP3    H273563   2.446   4.258   0.999  1.0112  0.3576  2.6472
17358TIP3   OH273564   6.676   3.096   0.351 -0.1194  0.0079 -0.2653
17358TIP3    H173565   6.628   3.026   0.395 -1.7732  0.4538 -1.2644
17358TIP3    H273566   6.708   3.152   0.422  0.0316 -1.0101  0.4790
17359TIP3   OH273567   0.863   1.811  15.545  0.3763  0.0320  0.2335
17359TIP3    H173568   0.929   1.870  15.582 -0.4806  0.4570  1.1139
17359TIP3    H273569   0.907   1.770  15.470  0.9199  1.9561 -0.5666
17360TIP3   OH273570   4.818   2.958  15.268 -0.1230 -0.5249 -0.1392
17360TIP3    H173571   4.735   3.003  15.255 -0.7070 -1.1978  1.0580
17360TIP3    H273572   4.844   2.982  15.357  2.0332  1.3323 -1.1605
17361TIP3   OH273573   2.643   1.395  13.708  0.1197 -0.4647  0.0217
17361TIP3    H173574   2.670   1.443  13.630  0.3296 -0.1480  0.2811
17361TIP3    H273575   2.587   1.457  13.756  1.4546  0.0470  1.0145
17362TIP3   OH273576   1.984   5.904   3.055 -0.1076  0.1971 -0.2424
17362TIP3    H173577   1.898   5.945   3.069  0.5662  0.9627  1.9938
17362TIP3    H273578   2.025   5.957   2.987 -0.6504  1.0290  0.0599
17363TIP3   OH273579   2.626   4.777   5.243  0.9794  0.0944  0.0248
17363TIP3    H173580   2.618   4.686   5.272  0.4320  0.1456  0.0568
17363TIP3    H273581   2.720   4.796   5.246  1.1288 -0.5736 -0.3019
17364TIP3   OH273582   0.292   3.414   4.699  0.4536  0.5324  0.4687
17364TIP3    H173583   0.199   3.430   4.714 -0.0641  0.9233 -2.4503
17364TIP3    H273584   0.337   3.476   4.756 -1.0292  0.1291  2.1642
17365TIP3   OH273585   5.027   4.984   4.233  0.2894  0.3312 -0.2058
17365TIP3    H173586   5.077   4.916   4.186 -1.5874  0.0829 -1.9749
17365TIP3    H273587   5.054   5.066   4.191  0.6178  0.3970  0.1355
17366TIP3   OH273588   2.240   5.606   2.203 -0.2188  0.5832 -0.0483
17366TIP3    H173589   2.187   5.673   2.246 -0.8368  0.2014 -0.2080
17366TIP3    H273590   2.178   5.538   2.178  0.4214 -0.1210  0.2365
17367TIP3   OH273591   5.130   4.740   4.156 -0.8067 -0.3275  0.0497
17367TIP3    H173592   5.200   4.708   4.213  0.2913  0.6649 -0.6855
17367TIP3    H273593   5.158   4.715   4.068  0.7100  3.4491 -0.7111
17368TIP3   OH273594   3.658   6.015  11.297  0.5990 -0.0967  0.4342
17368TIP3    H173595   3.611   6.013  11.213 -1.1542 -0.5319  1.3799
17368TIP3    H273596   3.711   5.935  11.296 -1.3808 -1.4945  0.7623
17369TIP3   OH273597   5.236   1.070  16.799 -0.3811  0.4180  0.3420
17369TIP3    H173598   5.213   1.009  16.869 -0.9756  0.9430  0.6181
17369TIP3    H273599   5.196   1.033  16.720  1.6540 -1.0437 -0.0839
17370TIP3   OH273600   1.542   0.765  10.801  0.6854  0.2129  0.8347
17370TIP3    H173601   1.580   0.680  10.825  0.2508  0.2862  1.8223
17370TIP3    H273602   1.448   0.749  10.798  0.7258 -0.1169 -2.1817
17371TIP3   OH273603   2.267   6.004  14.542 -0.6680  0.5515  0.1120
17371TIP3    H173604   2.205   5.932  14.531  0.9287 -1.2573  2.0285
17371TIP3    H273605   2.344   5.963  14.581  1.2517  2.9211 -0.9152
17372TIP3   OH273606   6.097   6.214   0.767  0.0331  0.1899  0.3018
17372TIP3    H173607   6.069   6.137   0.816  0.1582 -0.2313 -0.2809
17372TIP3    H273608   6.019   6.240   0.717  0.1938  0.0202 -0.0374
17373TIP3   OH273609   5.936   6.410  16.185  0.6526  0.2908 -0.0446
17373TIP3    H173610   5.899   6.439  16.268 -1.6038  0.4357 -1.0458
17373TIP3    H273611   6.031   6.414  16.199  0.3445  1.0323  2.2546
17374TIP3   OH273612   3.448   2.485   1.495 -0.5378  0.5930  0.7410
17374TIP3    H173613   3.492   2.496   1.410 -0.6869  1.3034  0.7485
17374TIP3    H273614   3.450   2.391   1.511  0.7088  0.5726  0.5876
17375TIP3   OH273615   0.790   6.784  14.234 -0.2505  0.1617  0.2997
17375TIP3    H173616   0.737   6.743  14.166 -1.0705 -0.1124  1.0857
17375TIP3    H273617   0.783   6.878  14.217 -3.2614  0.3827  1.9107
17376TIP3   OH273618   3.551   6.154   5.394  0.2546  0.1575  0.0295
17376TIP3    H173619   3.456   6.163   5.384  0.3444  2.1803  0.4172
17376TIP3    H273620   3.562   6.072   5.441 -1.3395  0.0252  0.2499
17377TIP3   OH273621   3.037   4.454  14.266  0.5823 -0.4469 -0.2086
17377TIP3    H173622   3.051   4.460  14.360 -0.2794 -0.0369 -0.0877
17377TIP3    H273623   2.971   4.385  14.256  0.5105 -0.3388 -0.4940
17378TIP3   OH273624   2.467   5.600   4.395  0.0107 -0.6807 -0.4032
17378TIP3    H173625   2.431   5.543   4.328  0.3619 -3.0364  1.2902
17378TIP3    H273626   2.391   5.642   4.435 -0.4660 -1.6666 -0.2448
17379TIP3   OH273627   0.358   1.968   3.403 -0.0543 -0.1062 -0.3517
17379TIP3    H173628   0.388   2.054   3.433  0.0508 -0.4680  0.6414
17379TIP3    H273629   0.434   1.911   3.417 -0.1397 -0.3656 -0.9613
17380TIP3   OH273630   0.872   0.503  16.943  0.7485 -0.4194 -0.1214
17380TIP3    H173631   0.915   0.562  17.004  0.7938  0.0898 -0.6422
17380TIP3    H273632   0.923   0.510  16.863 -1.5804  1.9961 -1.5520
17381TIP3   OH273633   1.913   0.567   5.355 -0.4599  0.2174  0.2707
17381TIP3    H173634   1.997   0.602   5.327 -0.7546 -0.0064 -0.9539
17381TIP3    H273635   1.848   0.613   5.302 -0.8830 -1.7811 -1.0623
17382TIP3   OH273636   0.042   3.423  13.257 -0.3773 -0.8285 -0.0233
17382TIP3    H173637  -0.024   3.354  13.245 -0.9197 -0.2461 -0.4374
17382TIP3    H273638   0.012   3.471  13.334 -1.4006  0.4915 -1.1938
17383TIP3   OH273639   4.489   5.300   3.941  0.7871  1.0080 -0.2861
17383TIP3    H173640   4.458   5.302   4.031  1.0132  0.8011 -0.2021
17383TIP3    H273641   4.491   5.207   3.918  0.2743  1.0878 -0.6640
17384TIP3   OH273642   1.635   4.676  14.442  0.0510  0.0640  1.0483
17384TIP3    H173643   1.725   4.695  14.414 -0.2069 -0.3739 -0.1186
17384TIP3    H273644   1.640   4.676  14.537  1.2465  0.2573  1.0081
17385TIP3   OH273645   5.515   1.239  14.467 -0.0618  0.1053 -0.0777
17385TIP3    H173646   5.474   1.322  14.443  1.5284  0.8395 -0.3839
17385TIP3    H273647   5.471   1.173  14.412 -1.7522  0.6055  0.5890
17386TIP3   OH273648   4.728   2.633   0.051  0.0192 -0.3240 -0.0050
17386TIP3    H173649   4.709   2.719   0.013  0.9273 -0.6507 -1.2300
17386TIP3    H273650   4.823   2.631   0.062 -0.0492 -0.9454  0.5987
17387TIP3   OH273651   6.596   4.827  15.444 -0.1155 -0.3657 -0.3800
17387TIP3    H173652   6.571   4.829  15.351  0.5382 -1.7491 -0.6181
17387TIP3    H273653   6.514   4.809  15.490 -0.5915  1.1277 -0.5887
17388TIP3   OH273654   6.423   0.805  13.434 -0.1707 -0.1650  0.4224
17388TIP3    H173655   6.388   0.817  13.346 -1.6778  3.6254  1.3137
17388TIP3    H273656   6.435   0.710  13.443  0.5252 -0.6911 -3.9227
17389TIP3   OH273657   3.854   6.658   5.770  0.6196 -0.5339 -0.0649
17389TIP3    H173658   3.811   6.661   5.855 -0.4906  1.6765 -0.6306
17389TIP3    H273659   3.784   6.642   5.707  1.1465 -0.3760 -0.7062
17390TIP3   OH273660   4.004   1.419   5.098 -0.0575 -0.0859  0.1361
17390TIP3    H173661   4.085   1.393   5.055 -1.0032 -1.4353 -0.9582
17390TIP3    H273662   4.031   1.456   5.182  1.8750  2.6571 -1.5425
17391TIP3   OH273663   5.830   6.191   6.194  0.5780 -0.0425  0.1101
17391TIP3    H173664   5.743   6.157   6.215  0.5560  0.9789  1.8682
17391TIP3    H273665   5.814   6.280   6.163  0.9861  0.1688  0.4932
17392TIP3   OH273666   2.012   3.785  16.598 -0.2147  0.2825 -0.5458
17392TIP3    H173667   2.047   3.737  16.523  0.3019  0.4046 -0.3868
17392TIP3    H273668   1.981   3.717  16.658  1.0149  0.1167 -0.0775
17393TIP3   OH273669   0.614   2.857   5.062  0.3683  0.3297 -0.0663
17393TIP3    H173670   0.644   2.880   4.974 -0.6908  2.5409  0.0765
17393TIP3    H273671   0.614   2.940   5.110 -2.4863 -0.1355  0.9476
17394TIP3   OH273672   6.357   1.997  14.687 -0.2950  0.4386 -0.2646
17394TIP3    H173673   6.318   2.018  14.602 -0.6778 -1.3635 -0.5743
17394TIP3    H273674   6.393   2.080  14.719 -1.0200  1.3407 -1.7290
17395TIP3   OH273675   0.495   4.748   5.526  0.1857 -0.3678 -0.3673
17395TIP3    H173676   0.564   4.690   5.494  2.4939  1.6101  0.7223
17395TIP3    H273677   0.457   4.700   5.600  2.3167 -0.4075  0.7766
17396TIP3   OH273678   5.638   4.011   5.855 -0.4203  0.2661 -0.1886
17396TIP3    H173679   5.607   4.055   5.776 -1.0520 -0.2956 -0.2637
17396TIP3    H273680   5.637   4.079   5.922  1.0061  0.9863 -0.8521
17397TIP3   OH273681   4.339   2.910  14.969  0.1609 -0.0918  0.0091
17397TIP3    H173682   4.343   2.915  14.874 -0.9108  0.0083 -0.0463
17397TIP3    H273683   4.294   2.990  14.996  1.0068  0.1817  0.6552
17398TIP3   OH273684   1.254   1.464   6.021 -0.6076 -0.0882 -0.2238
17398TIP3    H173685   1.263   1.370   6.036  1.6946  0.3238  1.4085
17398TIP3    H273686   1.207   1.497   6.098 -1.2069  0.1588 -0.6823
17399TIP3   OH273687   1.850   5.937   5.865 -0.2577 -0.2392  0.2008
17399TIP3    H173688   1.865   5.843   5.855 -0.4177 -0.1547 -1.0504
17399TIP3    H273689   1.910   5.964   5.934  1.8869 -0.7864 -1.3367
17400TIP3   OH273690   3.377   0.770   1.143  0.2593  0.3738  0.3528
17400TIP3    H173691   3.420   0.767   1.228  0.2684 -2.1117  0.3330
17400TIP3    H273692   3.426   0.837   1.094  3.3072 -1.3474  0.7837
17401TIP3   OH273693   5.626   1.505  16.703  0.2447 -1.1616 -0.5417
17401TIP3    H173694   5.565   1.473  16.637  0.6885 -0.9653 -1.0464
17401TIP3    H273695   5.571   1.550  16.767 -0.4620 -3.2081  0.3795
17402TIP3   OH273696   4.258   0.208  13.610  0.1419 -0.0371  0.2537
17402TIP3    H173697   4.174   0.184  13.650 -0.6189  1.5699 -0.2845
17402TIP3    H273698   4.289   0.127  13.570 -0.9454 -0.7638  0.8205
17403TIP3   OH273699   0.748   3.447  12.874  0.1768 -0.4803  0.0439
17403TIP3    H173700   0.830   3.484  12.842 -0.7711 -0.0930 -2.0293
17403TIP3    H273701   0.730   3.496  12.954  0.1226  1.9971 -1.3984
17404TIP3   OH273702   1.465   3.044   5.006  0.6594  0.4085  0.4080
17404TIP3    H173703   1.513   3.056   4.924  1.3889 -0.3012  0.7215
17404TIP3    H273704   1.518   2.983   5.057 -0.6238 -0.4811  0.7339
17405TIP3   OH273705   0.125   2.173  11.177  0.2429 -0.1763 -0.2765
17405TIP3    H173706   0.173   2.206  11.253  1.7423  0.3108 -1.3818
17405TIP3    H273707   0.140   2.238  11.109 -1.9977 -0.0351 -0.7139
17406TIP3   OH273708   2.147   1.293   2.009 -0.3615  0.6191  0.5281
17406TIP3    H173709   2.117   1.210   1.972 -1.6583  0.9203  0.8562
17406TIP3    H273710   2.144   1.355   1.935 -2.0084  0.9879  0.8591
17407TIP3   OH273711   0.568   3.721   1.499 -0.1737  0.6584  0.2229
17407TIP3    H173712   0.475   3.717   1.521  0.2359 -2.6360  1.9174
17407TIP3    H273713   0.612   3.725   1.583  1.2959  0.9397 -0.5264
17408TIP3   OH273714   4.374   5.163   0.027  0.1921  0.0174 -0.3969
17408TIP3    H173715   4.454   5.126  -0.011  0.3459  0.4805 -0.5353
17408TIP3    H273716   4.330   5.206  -0.046 -0.8316 -1.2915 -0.5888
17409TIP3   OH273717   5.080   0.605  16.476  0.1684 -0.0965 -0.0980
17409TIP3    H173718   5.169   0.640  16.464  0.3685  0.8656  3.2724
17409TIP3    H273719   5.089   0.512  16.456  1.3657  0.3589 -1.9832
17410TIP3   OH273720   6.285   6.715   4.975 -0.4879 -0.2580 -0.7741
17410TIP3    H173721   6.269   6.788   4.915 -0.5414  0.1301 -0.2943
17410TIP3    H273722   6.242   6.740   5.056  0.9195 -0.0506 -0.0522
17411TIP3   OH273723   4.636   4.458  15.694 -0.2588  0.1102  0.2651
17411TIP3    H173724   4.560   4.444  15.750  0.7275 -2.0785  1.1913
17411TIP3    H273725   4.607   4.522  15.628 -2.4305  0.3575  1.3852
17412TIP3   OH273726   1.681   1.104   1.440  0.2922 -0.3455  0.8936
17412TIP3    H173727   1.673   1.166   1.368 -0.5967 -1.9038 -0.3995
17412TIP3    H273728   1.717   1.156   1.512 -1.6919  2.0158  0.3064
17413TIP3   OH273729   6.062   2.775  11.195  0.3230 -0.3360 -0.2012
17413TIP3    H173730   6.125   2.730  11.138 -0.4068  0.9798 -2.1669
17413TIP3    H273731   6.116   2.822  11.259  1.2846 -0.3205 -0.9981
17414TIP3   OH273732   3.012   2.461  16.986  0.5625  0.0149 -0.8132
17414TIP3    H173733   3.066   2.522  17.036 -1.0098  0.0108  1.0191
17414TIP3    H273734   3.036   2.375  17.020 -1.9169  0.1246  1.5936
17415TIP3   OH273735   6.139   0.962   4.871 -0.8085 -0.4181 -0.6646
17415TIP3    H173736   6.195   0.892   4.838 -0.4096 -0.2074 -0.4340
17415TIP3    H273737   6.074   0.917   4.925 -0.2883 -0.5746 -0.1568
17416TIP3   OH273738   4.229   1.653   2.290  0.1169  0.4451 -0.7770
17416TIP3    H173739   4.206   1.679   2.201  2.1639 -0.7007 -1.7313
17416TIP3    H273740   4.316   1.691   2.304  0.2452 -0.2091  0.3409
17417TIP3   OH273741   5.875   1.715  15.573 -0.2123  0.3865  0.0741
17417TIP3    H173742   5.867   1.622  15.596 -0.2130  0.5246  0.6465
17417TIP3    H273743   5.947   1.746  15.628  0.6100  0.4425 -1.0032
17418TIP3   OH273744   4.891   3.875  14.956 -0.3239  0.7729  0.0246
17418TIP3    H173745   4.889   3.922  14.872 -1.6458  0.2853 -0.2459
17418TIP3    H273746   4.802   3.883  14.990 -0.0947  0.0065  0.8388
17419TIP3   OH273747   0.794   4.975  12.654 -0.0078 -0.0319  0.2016
17419TIP3    H173748   0.800   5.039  12.584  0.9477  0.3459  0.6129
17419TIP3    H273749   0.794   4.890  12.609  2.5682  0.1242 -0.2095
17420TIP3   OH273750   4.295   0.192  15.276 -0.1922 -0.1354  0.5669
17420TIP3    H173751   4.238   0.130  15.322 -0.6601 -0.4075 -0.3547
17420TIP3    H273752   4.336   0.140  15.206  0.3567  0.3116  0.5468
17421TIP3   OH273753   2.760   3.239  16.046 -0.4058  0.5754  0.4943
17421TIP3    H173754   2.792   3.227  16.135  0.5160 -1.3430 -0.0351
17421TIP3    H273755   2.669   3.207  16.049  0.1953 -1.2841  0.4078
17422TIP3   OH273756   5.362   0.638   2.195 -0.1052  0.9383 -0.0515
17422TIP3    H173757   5.321   0.652   2.280 -1.3906 -0.8506 -0.3359
17422TIP3    H273758   5.328   0.708   2.140 -0.2192  1.3782  0.5700
17423TIP3   OH273759   3.892   5.329   1.294 -0.3590  0.1252  0.3763
17423TIP3    H173760   3.881   5.418   1.259 -1.5231 -0.6127 -1.3167
17423TIP3    H273761   3.920   5.341   1.384 -0.6978  2.2148  0.2427
17424TIP3   OH273762   3.211   1.636   2.847  0.0688  0.1351  0.1821
17424TIP3    H173763   3.231   1.549   2.811 -2.4179  0.1687 -1.5774
17424TIP3    H273764   3.131   1.623   2.897  0.2354  1.2671  0.7674
17425TIP3   OH273765   6.765   2.424   3.885  0.0733 -0.3182 -0.3807
17425TIP3    H173766   6.787   2.517   3.880  2.2869 -0.7977 -0.9979
17425TIP3    H273767   6.846   2.382   3.913 -1.7750 -1.7942  3.3387
17426TIP3   OH273768   5.720   5.929   3.854 -0.4299  0.0212 -0.1091
17426TIP3    H173769   5.711   5.985   3.932 -1.6437  0.3633 -0.4782
17426TIP3    H273770   5.631   5.898   3.836 -0.0979 -0.3689 -1.1351
17427TIP3   OH273771   1.774   3.059   3.220 -0.2715  0.0852 -0.1432
17427TIP3    H173772   1.850   3.053   3.162 -0.9638 -0.8511 -0.9991
17427TIP3    H273773   1.811   3.076   3.307  1.0775 -2.2920 -0.1757
17428TIP3   OH273774   5.974   0.026   4.721 -0.3480  0.1154  0.3344
17428TIP3    H173775   5.907  -0.027   4.677 -0.0233 -1.3386  1.4976
17428TIP3    H273776   6.050  -0.032   4.727  0.0672  0.7552  1.5403
17429TIP3   OH273777   3.489   5.566  14.167  0.2703  0.2763 -0.1285
17429TIP3    H173778   3.482   5.658  14.193  0.6198  0.7122 -1.5075
17429TIP3    H273779   3.467   5.518  14.246 -0.3023  1.5441  0.5207
17430TIP3   OH273780   5.861   4.330  16.004  0.0172 -0.0361 -0.7210
17430TIP3    H173781   5.766   4.327  15.992 -0.0382 -0.0223 -0.2797
17430TIP3    H273782   5.896   4.322  15.915 -0.3790 -0.9355 -0.8145
17431TIP3   OH273783   0.014   4.766   6.284 -0.2726  0.3633 -0.4143
17431TIP3    H173784  -0.008   4.680   6.320  0.7781  0.0223 -0.5457
17431TIP3    H273785  -0.067   4.796   6.242 -0.9474 -0.0902  0.5353
17432TIP3   OH273786   6.714   5.230   3.355 -0.0870 -0.6488  0.5480
17432TIP3    H173787   6.708   5.290   3.280 -2.9920 -0.7402  0.5979
17432TIP3    H273788   6.780   5.166   3.328 -0.4779 -0.2347 -1.6388
17433TIP3   OH273789   0.785   1.513  11.959  0.1735 -0.3004  0.0106
17433TIP3    H173790   0.858   1.512  12.021  1.2013  1.5134 -1.0629
17433TIP3    H273791   0.816   1.460  11.886  0.6322  0.8093 -0.6251
17434TIP3   OH273792   3.134   5.603   1.665  0.5575  0.3899  0.3626
17434TIP3    H173793   3.217   5.558   1.678  1.4090  1.8782  0.2866
17434TIP3    H273794   3.068   5.540   1.695  1.5621 -1.4068 -0.9873
17435TIP3   OH273795   0.689   1.257   1.772 -0.2231 -0.3431 -0.2867
17435TIP3    H173796   0.676   1.352   1.769 -2.0378 -0.5855 -1.7112
17435TIP3    H273797   0.768   1.242   1.720 -1.1271  0.2376 -1.8920
17436TIP3   OH273798   0.435   2.084   2.657 -0.1707 -0.3795  0.0018
17436TIP3    H173799   0.522   2.049   2.640  0.7563  2.6705 -2.4626
17436TIP3    H273800   0.440   2.118   2.747  1.6298  0.7651 -0.4854
17437TIP3   OH273801   1.877   2.692  13.737 -0.2827  0.3383  0.2919
17437TIP3    H173802   1.842   2.640  13.809 -0.3595  1.7006  1.2700
17437TIP3    H273803   1.967   2.712  13.763  1.4490 -3.0556 -2.1448
17438TIP3   OH273804   1.322   6.377  14.091  0.0653  0.0163  0.0388
17438TIP3    H173805   1.371   6.393  14.010  1.5329 -0.2577  0.8460
17438TIP3    H273806   1.270   6.298  14.073  1.2685 -0.7280 -0.2680
17439TIP3   OH273807   5.618   1.143  10.638 -0.2392 -0.1883 -0.4049
17439TIP3    H173808   5.551   1.175  10.698  0.2998 -0.0241  0.1240
17439TIP3    H273809   5.668   1.081  10.690 -0.0007 -0.3292 -0.8025
17440TIP3   OH273810   0.309   3.747   2.013 -0.2302 -0.2825 -0.5165
17440TIP3    H173811   0.226   3.764   2.057 -0.9970 -1.9875 -1.2324
17440TIP3    H273812   0.361   3.826   2.029 -1.2551  0.0453  1.6027
17441TIP3   OH273813   3.961   3.440  13.876 -0.0369 -0.5501  0.4484
17441TIP3    H173814   3.944   3.436  13.782  1.7909 -1.3547  0.1193
17441TIP3    H273815   3.888   3.492  13.911 -0.4761  0.2068 -1.4675
17442TIP3   OH273816   4.611   1.649  11.365  0.0013  0.3890  0.4177
17442TIP3    H173817   4.672   1.612  11.429  1.2370  0.5343 -0.6303
17442TIP3    H273818   4.554   1.575  11.341  1.0582 -0.3016 -0.0512
17443TIP3   OH273819   5.351   4.029  15.276  0.3512  0.7499 -0.3699
17443TIP3    H173820   5.279   4.093  15.277  0.1776  0.5811 -1.0731
17443TIP3    H273821   5.429   4.081  15.295 -0.1274  0.6730  2.0713
17444TIP3   OH273822   4.259   5.069  11.404  0.5654  0.0121 -0.3113
17444TIP3    H173823   4.213   4.991  11.433  1.1586 -0.7717 -1.4073
17444TIP3    H273824   4.329   5.082  11.468  0.2399 -0.1320  0.0752
17445TIP3   OH273825   1.371   5.024  13.997  0.6512 -0.0732  0.2962
17445TIP3    H173826   1.441   4.958  14.000  0.8555  0.1607  1.1817
17445TIP3    H273827   1.324   5.007  13.916  0.6223 -1.3931  0.5757
17446TIP3   OH273828   4.557   3.135  14.777 -0.2326  0.2107  0.2031
17446TIP3    H173829   4.501   3.204  14.813 -0.1958  0.2289  0.2244
17446TIP3    H273830   4.503   3.096  14.708 -0.2121  0.3332  0.1168
17447TIP3   OH273831   4.079   6.450   2.927 -0.2118 -0.3809  0.2292
17447TIP3    H173832   4.148   6.420   2.867 -0.6818  0.2032 -0.6282
17447TIP3    H273833   4.050   6.370   2.972  0.1087 -0.8479 -0.3680
17448TIP3   OH273834   1.560   0.724  15.081 -0.2322  0.3830  0.1188
17448TIP3    H173835   1.628   0.660  15.058 -1.3587 -1.0306  0.5411
17448TIP3    H273836   1.606   0.808  15.084  1.1763 -0.2892 -1.1177
17449TIP3   OH273837   2.888   4.431   2.961  0.2953  0.0900 -0.3241
17449TIP3    H173838   2.972   4.422   2.915  1.7279  0.9642  1.9268
17449TIP3    H273839   2.877   4.526   2.972 -0.8235 -0.0368 -0.2509
17450TIP3   OH273840   2.934   5.994  15.061  0.1695 -1.0977  0.6356
17450TIP3    H173841   2.895   5.987  15.148  0.3748 -1.0425  0.7356
17450TIP3    H273842   2.964   6.085  15.056 -0.8760 -0.7759  0.0556
17451TIP3   OH273843   0.809   1.430  14.218 -0.3786 -0.3279  0.1011
17451TIP3    H173844   0.752   1.355  14.205  1.7345 -1.7418 -1.7389
17451TIP3    H273845   0.895   1.392  14.236  0.1602  1.6940  2.3052
17452TIP3   OH273846   1.376   1.967  12.510  0.3852  0.2809 -0.2604
17452TIP3    H173847   1.310   1.952  12.577  2.4657 -2.1074  1.4352
17452TIP3    H273848   1.352   1.908  12.438  0.5772 -0.5503  0.3372
17453TIP3   OH273849   0.333   4.858   1.494  0.0059  0.5821 -0.4311
17453TIP3    H173850   0.245   4.867   1.456 -0.1046  0.2029 -0.2695
17453TIP3    H273851   0.332   4.772   1.536  0.2052  0.8911  0.2164
17454TIP3   OH273852   0.321   3.660  11.714  0.2036 -0.1760  0.2781
17454TIP3    H173853   0.417   3.660  11.711  0.1957 -1.1072 -0.5026
17454TIP3    H273854   0.300   3.610  11.793  0.3594  0.0448  0.4608
17455TIP3   OH273855   2.407   6.264  17.042 -0.1876  0.4435  0.0456
17455TIP3    H173856   2.333   6.280  16.983  0.5320  0.2594 -0.9262
17455TIP3    H273857   2.471   6.331  17.019 -0.7435  1.8408  2.1695
17456TIP3   OH273858   3.731   1.410  11.574 -0.4542 -0.2591 -0.1236
17456TIP3    H173859   3.719   1.338  11.512 -1.4041  0.0141 -0.2770
17456TIP3    H273860   3.826   1.416  11.586 -0.2805 -0.6403 -1.1707
17457TIP3   OH273861   6.226   1.704  12.719  0.2484  0.0837 -0.2347
17457TIP3    H173862   6.291   1.635  12.706  0.4621  0.1475  0.4312
17457TIP3    H273863   6.274   1.777  12.757 -0.1739  0.1925  0.1097
17458TIP3   OH273864   2.036   4.217  13.731  0.0053 -0.0823  0.2008
17458TIP3    H173865   2.129   4.227  13.749  0.3163  0.4877 -1.5958
17458TIP3    H273866   2.000   4.179  13.812  2.0187 -1.6589  0.4351
17459TIP3   OH273867   1.961   0.921   2.046  0.1846  0.0112  0.1248
17459TIP3    H173868   1.968   0.840   1.996  0.5138 -0.4794  0.9538
17459TIP3    H273869   1.998   0.900   2.131 -2.6271  0.0903  1.4756
17460TIP3   OH273870   5.638   3.017   1.165  0.1671 -0.1569 -0.0521
17460TIP3    H173871   5.546   2.992   1.178  0.5468 -1.2203  0.6870
17460TIP3    H273872   5.657   2.991   1.074 -0.3583  0.4027 -0.3297
17461TIP3   OH273873   5.175   4.959  16.043  0.2648 -0.1980  0.1092
17461TIP3    H173874   5.107   5.006  16.093 -1.4399 -2.2832 -0.1001
17461TIP3    H273875   5.213   4.898  16.107  0.4917 -0.4784 -0.2932
17462TIP3   OH273876   0.920   6.736   6.051 -0.2165  0.4864 -0.0435
17462TIP3    H173877   0.890   6.811   6.103 -1.7341 -0.2999  0.2561
17462TIP3    H273878   0.956   6.675   6.115  2.3951  1.5108 -0.4154
17463TIP3   OH273879   5.333   5.052  13.431  0.1301 -0.0742 -0.4434
17463TIP3    H173880   5.256   5.109  13.428 -0.7473 -1.2458 -1.7936
17463TIP3    H273881   5.361   5.045  13.340  2.7427  1.4297  0.1657
17464TIP3   OH273882   2.160   4.910   5.656  0.2287  0.0070 -0.8564
17464TIP3    H173883   2.088   4.929   5.596 -0.7034  1.4081  0.6257
17464TIP3    H273884   2.129   4.836   5.708 -0.0609  0.4508 -0.3864
17465TIP3   OH273885   4.665   4.861   5.513 -0.4283  0.2002  0.0675
17465TIP3    H173886   4.619   4.923   5.457  0.7920 -1.7815 -3.4148
17465TIP3    H273887   4.757   4.871   5.491  0.0767 -0.9959  1.4358
17466TIP3   OH273888   2.236   6.575   3.851 -0.3397 -0.1001 -0.4278
17466TIP3    H173889   2.296   6.649   3.861 -0.8162  0.2893 -0.4093
17466TIP3    H273890   2.207   6.580   3.760  0.7840 -1.1622 -0.8572
17467TIP3   OH273891   1.995   0.639   1.347  0.9364  0.0293  0.2159
17467TIP3    H173892   1.964   0.704   1.411  1.1310  1.0814 -0.7341
17467TIP3    H273893   1.915   0.598   1.315  0.8522 -0.7866  1.3889
17468TIP3   OH273894   1.056   4.576   0.307 -0.4431  0.7253  1.1198
17468TIP3    H173895   1.025   4.545   0.222  1.0484  0.2084  0.7480
17468TIP3    H273896   1.029   4.668   0.310  0.8129  1.1958 -0.5833
17469TIP3   OH273897   2.829   0.209   2.984  0.1402  0.5100  0.1427
17469TIP3    H173898   2.836   0.257   2.902  0.6386 -0.6661 -0.5353
17469TIP3    H273899   2.918   0.207   3.020  0.0149  0.6098  0.4643
17470TIP3   OH273900   4.300   6.669  15.824 -0.7005  0.0195 -0.2478
17470TIP3    H173901   4.375   6.699  15.875 -1.2938  0.1239  0.6015
17470TIP3    H273902   4.254   6.750  15.801 -1.2532 -0.1090  0.3719
17471TIP3   OH273903   0.536   0.233  14.737  0.0538  0.0518  0.1485
17471TIP3    H173904   0.523   0.328  14.745 -0.6615  0.0251 -0.5520
17471TIP3    H273905   0.628   0.224  14.711 -0.2522  0.6687 -1.2696
17472TIP3   OH273906   0.400   6.038   4.723  0.4429 -0.2111  0.3777
17472TIP3    H173907   0.432   6.119   4.684  2.7600 -1.0347  0.3930
17472TIP3    H273908   0.414   6.049   4.817  4.0800 -1.7683  0.2057
17473TIP3   OH273909   6.296   4.055   0.242 -0.0593  0.2993  0.2670
17473TIP3    H173910   6.333   3.994   0.178 -0.9888  0.9229 -0.8978
17473TIP3    H273911   6.233   4.003   0.292  1.0551 -0.3239  1.0783
17474TIP3   OH273912   3.786   4.826  14.552 -0.0487 -0.0736 -0.5168
17474TIP3    H173913   3.775   4.856  14.642 -1.2342 -1.5236 -0.1322
17474TIP3    H273914   3.786   4.731  14.558  0.6461 -0.1908 -1.9766
17475TIP3   OH273915   6.058   2.581  12.567 -0.5053 -0.4023 -0.6281
17475TIP3    H173916   6.059   2.667  12.525 -0.5903  0.6249  1.3562
17475TIP3    H273917   6.005   2.593  12.646  0.6751 -1.8963  0.4582
17476TIP3   OH273918   0.953   2.185   4.157  0.2012  0.0635  0.4838
17476TIP3    H173919   0.940   2.213   4.248  1.3154  3.3869 -0.2537
17476TIP3    H273920   1.044   2.208   4.137 -0.0680 -0.4145 -1.5597
17477TIP3   OH273921   2.171   0.938   5.852 -0.2701 -0.5824  0.0697
17477TIP3    H173922   2.118   1.015   5.873  0.3800 -0.4908  1.4903
17477TIP3    H273923   2.176   0.889   5.934  2.1543 -0.3793  0.1184
17478TIP3   OH273924   2.990   0.162   5.178  0.4229 -0.5446 -0.5859
17478TIP3    H173925   2.958   0.180   5.266  1.3212 -0.9789 -0.1575
17478TIP3    H273926   2.961   0.072   5.160  1.7065 -1.0872 -0.0363
17479TIP3   OH273927   1.302   0.672  12.755  0.2537  0.1063  0.5947
17479TIP3    H173928   1.378   0.657  12.811  0.8156 -3.1918 -0.8102
17479TIP3    H273929   1.335   0.661  12.666 -0.8895  3.8603 -0.4464
17480TIP3   OH273930   5.362   5.551   0.597  0.9029 -0.0610 -0.1488
17480TIP3    H173931   5.420   5.578   0.526  0.7818  1.2064  0.2033
17480TIP3    H273932   5.311   5.629   0.617  1.1628 -0.2859  1.5523
17481TIP3   OH273933   4.986   6.185  12.356  0.1184 -0.2952  0.3407
17481TIP3    H173934   5.018   6.220  12.439  0.7030  0.3142 -0.1335
17481TIP3    H273935   5.006   6.253  12.292 -1.5471 -0.1748 -0.0869
17482TIP3   OH273936   6.004   1.332  15.855 -0.2273  0.6880 -0.7501
17482TIP3    H173937   6.084   1.383  15.841  0.1083  0.1044 -0.9748
17482TIP3    H273938   6.017   1.251  15.806 -0.4686  0.0875  0.1443
17483TIP3   OH273939   5.282   3.626   3.368 -0.3534  0.1131  0.2112
17483TIP3    H173940   5.316   3.652   3.283  0.5686 -0.7260  0.3143
17483TIP3    H273941   5.244   3.539   3.353 -2.4495  0.9801  0.1090
17484TIP3   OH273942   4.459   5.189  15.978  0.4032 -0.4888  0.5478
17484TIP3    H173943   4.496   5.133  16.046 -0.7394 -0.6574  1.0566
17484TIP3    H273944   4.365   5.183  15.992  0.2362  1.0786  0.2216
17485TIP3   OH273945   1.243   2.916   5.115  0.5034  0.4628 -0.0450
17485TIP3    H173946   1.317   2.922   5.055  1.4361  0.8627  1.0925
17485TIP3    H273947   1.283   2.921   5.202 -0.6917 -1.1381  0.6433
17486TIP3   OH273948   2.257   3.797  10.512 -0.1651  0.1188 -0.0695
17486TIP3    H173949   2.283   3.890  10.515 -1.0033  0.3774 -0.4684
17486TIP3    H273950   2.339   3.749  10.515  0.2852  0.8831  0.0976
17487TIP3   OH273951   2.493   4.311   1.441 -0.0506 -0.5977  0.3072
17487TIP3    H173952   2.456   4.264   1.366 -1.4590  0.7768  0.0973
17487TIP3    H273953   2.421   4.316   1.504  1.0180 -1.4562  1.6689
17488TIP3   OH273954   2.419   1.173  15.978 -0.4597  0.4588 -0.6463
17488TIP3    H173955   2.377   1.092  15.953 -1.4106  0.7276  0.0280
17488TIP3    H273956   2.505   1.146  16.012 -0.8802 -0.2877 -0.1553
17489TIP3   OH273957   2.617   0.125   3.708  0.8531  0.6030 -0.2116
17489TIP3    H173958   2.590   0.212   3.737  2.5905  0.5032  2.0238
17489TIP3    H273959   2.694   0.141   3.652  0.5455  0.5498 -0.6520
17490TIP3   OH273960   3.102   4.207   2.017 -0.1677 -0.0876  0.3616
17490TIP3    H173961   3.010   4.218   1.994 -0.3985 -2.4545 -0.0699
17490TIP3    H273962   3.148   4.213   1.933  0.1157  1.0537  0.5718
17491TIP3   OH273963   4.409   6.532  16.456 -0.3705 -0.3467  0.2206
17491TIP3    H173964   4.448   6.487  16.531 -0.7181 -1.4708 -0.2529
17491TIP3    H273965   4.317   6.542  16.480  0.0686  2.0530  1.2178
17492TIP3   OH273966   4.309   6.319  12.918 -0.1440 -0.0024  0.0922
17492TIP3    H173967   4.227   6.363  12.895  0.3372 -0.3662 -2.6128
17492TIP3    H273968   4.363   6.388  12.957 -1.5355  0.3373  1.5298
17493TIP3   OH273969   6.163   4.465  12.300  0.2937 -0.2708 -0.0426
17493TIP3    H173970   6.256   4.450  12.285  0.1990 -0.9640  0.0255
17493TIP3    H273971   6.119   4.418  12.229 -0.0858 -2.0406  1.2711
17494TIP3   OH273972   4.032   0.481   4.683 -0.1524 -0.1612 -0.3934
17494TIP3    H173973   4.027   0.485   4.778 -1.1914 -0.4316 -0.4262
17494TIP3    H273974   4.040   0.388   4.663  0.0991 -0.1020 -0.5677
17495TIP3   OH273975   3.170   5.141   6.428 -0.3932  0.0311 -0.5052
17495TIP3    H173976   3.157   5.047   6.413  0.5368 -0.2046  0.0895
17495TIP3    H273977   3.265   5.153   6.427 -0.2905  0.3729  2.6342
17496TIP3   OH273978   5.645   1.089  12.711  0.0685 -0.0748  0.2107
17496TIP3    H173979   5.614   1.009  12.668  0.3508 -0.6086  0.9695
17496TIP3    H273980   5.643   1.156  12.643  0.5836 -0.9158 -0.6445
17497TIP3   OH273981   2.984   2.685  17.246 -0.4964  0.3470 -0.6484
17497TIP3    H173982   3.066   2.699  17.197 -0.0966 -0.2036 -0.1580
17497TIP3    H273983   2.944   2.772  17.250 -0.9983  0.2689 -2.7177
17498TIP3   OH273984   3.602   6.723   2.231  0.2161 -0.0779 -0.0851
17498TIP3    H173985   3.578   6.634   2.254 -0.1871  0.4990  1.9088
17498TIP3    H273986   3.689   6.716   2.193  0.4895 -1.2491  0.7296
17499TIP3   OH273987   5.543   4.138   3.565  0.1886 -0.1260  0.3328
17499TIP3    H173988   5.460   4.186   3.562  1.0136  1.2955 -0.5900
17499TIP3    H273989   5.595   4.183   3.632  0.4022 -0.7446  0.5981
17500TIP3   OH273990   4.874   0.162  15.021  0.1125  0.3593 -0.2031
17500TIP3    H173991   4.809   0.200  15.079  0.3438  1.1736 -0.4621
17500TIP3    H273992   4.834   0.166  14.934  1.0816  2.2927 -0.6062
17501TIP3   OH273993   3.804   6.764  12.150 -0.3264 -0.1590  0.2021
17501TIP3    H173994   3.796   6.751  12.244  0.8266 -1.0837  0.1952
17501TIP3    H273995   3.897   6.782  12.136 -0.4913  0.0141 -0.7642
17502TIP3   OH273996   2.035   2.192  13.671  0.7380 -0.2461 -0.1343
17502TIP3    H173997   2.107   2.129  13.669  2.1151  1.2575 -2.4050
17502TIP3    H273998   2.043   2.235  13.756  2.1848 -0.5094 -0.1068
17503TIP3   OH273999   1.929   3.732  15.914 -0.2955  0.2206  0.5691
17503TIP3    H174000   1.963   3.717  16.002  0.1523  0.3363  0.4203
17503TIP3    H274001   1.966   3.660  15.862  0.8706  1.1216  0.1087
17504TIP3   OH274002   1.946   6.624  14.814  0.4666  0.3668 -0.0506
17504TIP3    H174003   2.033   6.650  14.845  0.1772  0.2525  0.8997
17504TIP3    H274004   1.885   6.663  14.877 -0.0600 -1.3694  0.5940
17505TIP3   OH274005   5.143   2.488  17.067  0.0134 -0.1911 -0.4936
17505TIP3    H174006   5.216   2.427  17.054  0.8260  0.7628 -0.5249
17505TIP3    H274007   5.079   2.464  17.000  0.6023 -0.5929 -0.9197
17506TIP3   OH274008   4.316   3.735  14.333  0.2012 -0.1130 -0.2268
17506TIP3    H174009   4.321   3.751  14.427  1.3641 -0.7108 -0.1683
17506TIP3    H274010   4.224   3.715  14.317 -0.6149  2.7969  0.2684
17507TIP3   OH274011   5.818   4.566   3.989  0.5522  0.5199 -0.0726
17507TIP3    H174012   5.909   4.578   3.961  1.0476 -0.7748  0.9193
17507TIP3    H274013   5.809   4.620   4.067 -0.7919  4.0123 -2.3714
17508TIP3   OH274014   4.575   0.926  13.031 -0.0023  0.5748 -0.0251
17508TIP3    H174015   4.486   0.923  12.996  0.5529  0.4548 -1.4743
17508TIP3    H274016   4.631   0.895  12.960  1.1238 -0.3064  1.1924
17509TIP3   OH274017   4.506   0.796   3.613  0.4352 -0.0937 -0.0238
17509TIP3    H174018   4.588   0.781   3.659  0.4589  0.5036  0.1303
17509TIP3    H274019   4.508   0.733   3.540  1.5760  0.7227 -0.7245
17510TIP3   OH274020   5.024   2.098  11.512 -0.0625 -0.1522  0.0954
17510TIP3    H174021   5.096   2.152  11.544 -0.3535 -1.0607  2.5093
17510TIP3    H274022   4.946   2.134  11.555 -0.5292 -1.3437  0.2847
17511TIP3   OH274023   6.377   3.485  12.200 -0.4019  0.1928 -0.1855
17511TIP3    H174024   6.308   3.511  12.261  1.4116 -0.0293  2.0864
17511TIP3    H274025   6.417   3.567  12.173 -0.0643  0.1982  0.3326
17512TIP3   OH274026   0.648   6.726   4.780  0.0290  0.2878  0.0123
17512TIP3    H174027   0.700   6.695   4.853 -0.8013  0.0597  0.5227
17512TIP3    H274028   0.625   6.816   4.804  2.0036  1.1885 -1.2274
17513TIP3   OH274029   6.163   2.565  13.922  0.1902 -0.0294  0.0297
17513TIP3    H174030   6.179   2.606  13.837  0.1953 -0.8528 -0.3765
17513TIP3    H274031   6.165   2.637  13.985  0.5812  0.5314 -0.6230
17514TIP3   OH274032   0.585   4.750   4.306 -0.2049 -0.2598 -0.2362
17514TIP3    H174033   0.540   4.668   4.284 -0.1525 -0.8517  1.6084
17514TIP3    H274034   0.676   4.723   4.322  0.2589  0.5038 -1.4404
17515TIP3   OH274035   3.965   0.099   0.866 -0.2777  0.4836  0.0936
17515TIP3    H174036   4.052   0.113   0.905 -0.2344 -0.9514  0.5753
17515TIP3    H274037   3.906   0.093   0.941 -0.5290 -0.2173 -0.1573
17516TIP3   OH274038   4.505   0.639   0.614  0.6637  0.1335 -0.4288
17516TIP3    H174039   4.565   0.568   0.592 -0.0022 -0.2745 -0.9863
17516TIP3    H274040   4.418   0.597   0.616  0.3619  0.7654  0.0761
17517TIP3   OH274041   5.754   0.800  13.508 -0.5511 -0.0716  0.1764
17517TIP3    H174042   5.728   0.846  13.428 -0.0358 -0.0822 -0.0016
17517TIP3    H274043   5.848   0.787  13.498 -0.1634  1.3771  1.5185
17518TIP3   OH274044   2.826   2.863  12.472 -0.3525 -0.4212 -0.0265
17518TIP3    H174045   2.854   2.773  12.492 -0.0137 -0.1240  0.8734
17518TIP3    H274046   2.905   2.916  12.485 -1.0626  0.3071  1.6715
17519TIP3   OH274047   5.282   5.146   3.349  0.6247 -0.2235  0.2178
17519TIP3    H174048   5.315   5.076   3.292 -0.2337 -0.6475  0.2161
17519TIP3    H274049   5.236   5.205   3.290  2.1370  0.8709  0.0840
17520TIP3   OH274050   2.654   6.343  15.087 -0.3728 -0.5752 -0.0425
17520TIP3    H174051   2.744   6.364  15.111 -1.1826  1.5284  1.4802
17520TIP3    H274052   2.642   6.385  15.002  0.0980 -0.9420 -0.2941
17521TIP3   OH274053   5.150   6.539  12.750 -0.3557  0.1151  0.4253
17521TIP3    H174054   5.185   6.613  12.702  0.3300 -0.4073  0.0912
17521TIP3    H274055   5.190   6.546  12.837  0.4076 -0.3456  0.1188
17522TIP3   OH274056   3.313   6.664  13.242 -0.0158  0.4481  0.2674
17522TIP3    H174057   3.327   6.756  13.263 -0.2076  0.6719 -0.5470
17522TIP3    H274058   3.398   6.633  13.211  0.3018  0.0825  1.4450
17523TIP3   OH274059   3.812   3.942  14.733  0.0197  0.2014  0.1172
17523TIP3    H174060   3.824   3.854  14.769 -0.2530 -0.0030 -0.2844
17523TIP3    H274061   3.779   3.927  14.645 -1.2561  0.7178  0.4875
17524TIP3   OH274062   5.705   0.119   4.184  0.2665  0.2812 -0.4360
17524TIP3    H174063   5.661   0.169   4.252 -0.3160  1.3303 -1.5529
17524TIP3    H274064   5.639   0.058   4.152  0.3645  0.1982 -0.4814
17525TIP3   OH274065   2.691   1.634  14.340 -0.4286  0.7689 -0.1877
17525TIP3    H174066   2.781   1.628  14.307 -1.0627  1.8418 -2.3458
17525TIP3    H274067   2.640   1.667  14.265 -2.9771 -1.5459  0.3701
17526TIP3   OH274068   1.412   1.993   1.754 -0.1017  0.4174  0.0215
17526TIP3    H174069   1.412   2.070   1.698  1.3123 -0.0090 -0.5810
17526TIP3    H274070   1.377   1.923   1.699  1.5781 -0.0733 -0.4728
17527TIP3   OH274071   0.369   1.256   1.954 -0.0336  0.4600 -0.0667
17527TIP3    H174072   0.363   1.275   2.048  0.0535 -1.0442  0.2734
17527TIP3    H274073   0.322   1.174   1.943  0.6840  0.1711 -1.1915
17528TIP3   OH274074   4.998   3.444  15.691 -0.2482  0.2312  0.1547
17528TIP3    H174075   4.905   3.457  15.673 -0.5841 -0.3752  1.3780
17528TIP3    H274076   5.040   3.522  15.655 -0.7359 -1.0530 -3.7470
17529TIP3   OH274077   4.023   1.189  11.430  0.1921 -0.0138  0.0956
17529TIP3    H174078   4.026   1.266  11.487 -0.5725  2.2479 -2.6901
17529TIP3    H274079   4.112   1.180  11.397  0.8897 -1.9598  2.2581
17530TIP3   OH274080   4.078   4.340  15.967 -0.4977  0.4334 -0.7893
17530TIP3    H174081   4.101   4.283  16.041  0.3350 -0.7270 -1.9045
17530TIP3    H274082   4.069   4.427  16.006  2.6234  0.3890  0.2793
17531TIP3   OH274083   6.761   5.093  11.562  0.6010  0.1837 -0.4733
17531TIP3    H174084   6.800   5.011  11.593  1.3440  0.3542 -0.9322
17531TIP3    H274085   6.671   5.070  11.539  0.1968 -0.0866  1.2158
17532TIP3   OH274086   3.901   0.757  16.906 -0.7361 -0.4066  0.4460
17532TIP3    H174087   3.976   0.717  16.864 -1.6739 -0.4209 -1.3006
17532TIP3    H274088   3.933   0.784  16.992  1.3706  0.0013 -0.4153
17533TIP3   OH274089   1.487   1.021  14.172 -0.0464 -0.4897 -0.4882
17533TIP3    H174090   1.551   1.070  14.121  0.1689  0.7589  0.9436
17533TIP3    H274091   1.533   0.995  14.251 -1.1462  0.0008  0.3401
17534TIP3   OH274092   0.397   5.429  16.904 -0.7579  0.6563  0.3285
17534TIP3    H174093   0.350   5.357  16.947  2.6595 -0.6791  2.3014
17534TIP3    H274094   0.403   5.497  16.971  2.6724 -0.5403  1.4950
17535TIP3   OH274095   2.148   6.294  16.478  0.0161 -0.4824  0.4556
17535TIP3    H174096   2.057   6.265  16.480  0.4298 -2.1179 -1.4580
17535TIP3    H274097   2.184   6.269  16.563 -0.7161 -1.9575  0.3512
17536TIP3   OH274098   6.086   5.629   2.876 -0.1777 -0.9949 -0.1590
17536TIP3    H174099   6.027   5.628   2.800 -0.7879  0.4838  0.2492
17536TIP3    H274100   6.047   5.566   2.937 -0.3692 -1.2832 -0.5729
17537TIP3   OH274101   4.910   2.246   1.555 -0.7666 -0.5295 -0.1087
17537TIP3    H174102   4.856   2.217   1.628  0.9697 -0.7607  1.1632
17537TIP3    H274103   4.929   2.338   1.574 -0.8118 -0.4185 -0.5961
17538TIP3   OH274104   2.408   1.164   1.401 -0.2038  0.0875 -0.3416
17538TIP3    H174105   2.438   1.074   1.388  0.1486  0.2871 -1.0100
17538TIP3    H274106   2.465   1.216   1.343  0.0421  0.8182  0.5297
17539TIP3   OH274107   4.118   5.338  15.085 -0.7524 -0.1155  0.0368
17539TIP3    H174108   4.075   5.402  15.029 -0.9281 -2.1151 -2.2831
17539TIP3    H274109   4.178   5.390  15.139 -0.7391  1.9855 -1.8356
17540TIP3   OH274110   3.472   0.454   2.430  0.0869  0.4950  0.0153
17540TIP3    H174111   3.456   0.535   2.380 -0.6818  2.1685  2.7635
17540TIP3    H274112   3.528   0.482   2.503 -0.6081 -1.3499  1.3255
17541TIP3   OH274113   0.225   0.581  16.826 -0.1195 -0.2791  0.0324
17541TIP3    H174114   0.289   0.582  16.754  1.0956 -1.0523  1.0697
17541TIP3    H274115   0.154   0.526  16.793  0.1633 -0.1720 -0.7895
17542TIP3   OH274116   4.111   3.908   5.734  0.1436 -0.2354 -0.0537
17542TIP3    H174117   4.119   3.856   5.814 -1.1796  0.0652  0.2852
17542TIP3    H274118   4.099   3.998   5.765  1.0960  0.1024 -0.6196
17543TIP3   OH274119   2.242   5.907   3.816 -0.2443  0.1596  0.2696
17543TIP3    H174120   2.295   5.954   3.880  0.3379  0.4410 -0.4009
17543TIP3    H274121   2.155   5.902   3.856  0.2902 -0.3770  1.4208
17544TIP3   OH274122   2.410   6.038  15.801 -0.9288  0.4972 -0.2543
17544TIP3    H174123   2.388   5.993  15.883 -1.0736  1.0000 -0.0136
17544TIP3    H274124   2.351   6.113  15.798  0.9863  2.1372  0.6220
17545TIP3   OH274125   4.152   1.681   2.020 -0.7991  0.2227  0.5949
17545TIP3    H174126   4.097   1.636   1.956 -3.3855  0.9574  2.1729
17545TIP3    H274127   4.130   1.773   2.011  0.6735  0.6294  0.8638
17546TIP3   OH274128   1.207   3.953  11.564  0.0441  0.2241 -0.1909
17546TIP3    H174129   1.297   3.940  11.535  0.4283 -1.9986  1.7211
17546TIP3    H274130   1.215   3.975  11.657 -1.3900 -3.0617  0.8365
17547TIP3   OH274131   1.783   1.793  15.492 -0.2009 -0.5571 -0.4927
17547TIP3    H174132   1.694   1.824  15.482 -0.0724  0.4566  1.1068
17547TIP3    H274133   1.776   1.698  15.484 -0.9735 -0.3623 -3.0128
17548TIP3   OH274134   1.783   2.423  11.912 -0.2333 -0.0441 -0.4048
17548TIP3    H174135   1.703   2.431  11.964 -1.2498 -3.2415 -1.2616
17548TIP3    H274136   1.854   2.424  11.976 -0.6381  4.2923  0.2857
17549TIP3   OH274137   3.660   5.920   0.504  0.1122 -0.1133 -0.0683
17549TIP3    H174138   3.644   5.910   0.598 -0.4586  0.6581 -0.0752
17549TIP3    H274139   3.588   5.874   0.462  1.7417 -2.7660 -0.1957
17550TIP3   OH274140   3.486   0.737  17.064  0.7686 -0.4938 -0.3789
17550TIP3    H174141   3.513   0.822  17.098 -0.1180 -0.8098  1.2292
17550TIP3    H274142   3.521   0.734  16.975  2.5211  0.7210  0.2169
17551TIP3   OH274143   6.461   6.437  17.071 -0.6139 -0.2824 -0.1444
17551TIP3    H174144   6.402   6.367  17.098 -0.9805 -0.7944 -2.1151
17551TIP3    H274145   6.420   6.475  16.993  0.2357  1.2736  0.1107
17552TIP3   OH274146   6.784   2.004   2.657  0.4761  0.5234  0.0530
17552TIP3    H174147   6.746   1.994   2.744 -0.6040 -0.4750 -0.4871
17552TIP3    H274148   6.759   1.923   2.611  0.5993  1.2381 -1.3265
17553TIP3   OH274149   2.008   0.035  13.324  0.3159 -0.4311  0.1009
17553TIP3    H174150   1.959  -0.033  13.277  0.6571 -0.6491  0.0591
17553TIP3    H274151   1.941   0.096  13.353 -0.1871 -1.5863  1.4873
17554TIP3   OH274152   5.852   0.648   3.712  0.6117 -0.6947  0.1171
17554TIP3    H174153   5.934   0.661   3.759  0.4645 -0.2228  0.2579
17554TIP3    H274154   5.804   0.730   3.725  1.6029  0.5088 -2.9145
17555TIP3   OH274155   4.573   4.466   6.512 -0.2669  0.1042  0.1705
17555TIP3    H174156   4.590   4.429   6.426  0.5445  0.6013  0.1065
17555TIP3    H274157   4.598   4.397   6.573 -0.7333 -0.2061  0.0103
17556TIP3   OH274158   3.228   4.744  15.555  0.1553 -0.0211 -0.2779
17556TIP3    H174159   3.158   4.682  15.534 -0.4740 -0.0995  1.8297
17556TIP3    H274160   3.182   4.825  15.578  0.7507  0.0423  0.7440
17557TIP3   OH274161   4.827   4.248   1.159  0.1529 -0.1597 -0.1749
17557TIP3    H174162   4.823   4.186   1.086  0.6832  1.2490 -1.4730
17557TIP3    H274163   4.741   4.288   1.160 -0.4096 -1.3448  1.0932
17558TIP3   OH274164   0.620   0.946  12.045  0.5725 -0.2026 -0.5028
17558TIP3    H174165   0.548   0.886  12.024  0.4190  0.2808 -1.3819
17558TIP3    H274166   0.689   0.923  11.983  1.1031 -0.5143  0.1920
17559TIP3   OH274167   5.018   2.971  17.239 -0.1624 -1.0273 -0.0991
17559TIP3    H174168   5.059   2.956  17.324 -1.3970 -2.6568  0.2575
17559TIP3    H274169   5.091   2.988  17.179  0.7606 -0.4251  1.1602
17560TIP3   OH274170   4.184   3.156  11.872 -0.1292 -0.1372 -0.1707
17560TIP3    H174171   4.196   3.111  11.788  0.0930  0.2321 -0.3399
17560TIP3    H274172   4.208   3.247  11.854 -0.1808 -0.0334  0.2701
17561TIP3   OH274173   3.816   2.240   0.022 -0.1002  0.2667  0.0053
17561TIP3    H174174   3.897   2.199   0.049  0.2634 -0.2887 -1.7905
17561TIP3    H274175   3.841   2.328  -0.006 -0.3094  0.4848  0.4860
17562TIP3   OH274176   0.037   3.430  15.465 -0.2183  0.2578  0.1226
17562TIP3    H174177   0.028   3.521  15.434  2.2389  1.0907  1.5331
17562TIP3    H274178  -0.001   3.377  15.395 -0.6018  2.3132 -1.3270
17563TIP3   OH274179   5.798   5.491  14.853  0.3501  0.6693  0.3600
17563TIP3    H174180   5.880   5.500  14.804  1.0581 -0.4527  1.2900
17563TIP3    H274181   5.731   5.524  14.793  0.9302 -2.1621 -2.0738
17564TIP3   OH274182   0.231   3.681   4.094  0.1651  0.1922  0.5624
17564TIP3    H174183   0.178   3.736   4.036  0.4586  1.6049  1.5918
17564TIP3    H274184   0.244   3.600   4.044 -1.0479  0.6862 -0.6238
17565TIP3   OH274185   0.412   1.275  14.489 -0.5213 -0.1264  0.0526
17565TIP3    H174186   0.445   1.188  14.513 -0.3939  0.0959  0.6795
17565TIP3    H274187   0.317   1.268  14.499 -0.5617 -0.3559 -0.4385
17566TIP3   OH274188   2.587   1.784  11.808 -0.1870  0.0301 -0.1516
17566TIP3    H174189   2.666   1.803  11.758  1.2659  1.0781  2.3540
17566TIP3    H274190   2.615   1.783  11.899 -2.4618 -2.9346  0.6836
17567TIP3   OH274191   6.669   6.291  16.878 -0.0158 -0.4940 -0.6908
17567TIP3    H174192   6.634   6.212  16.919 -4.3152  1.7342  0.5956
17567TIP3    H274193   6.706   6.342  16.950  2.2796 -0.9693 -1.4391
17568TIP3   OH274194   3.856   4.221   4.544  0.6213 -0.4236  0.9099
17568TIP3    H174195   3.880   4.303   4.587  0.3467 -1.5416  3.3290
17568TIP3    H274196   3.760   4.221   4.546  0.6302 -1.1063  1.5529
17569TIP3   OH274197   6.520   2.824   0.099 -0.2233 -0.4508  0.0879
17569TIP3    H174198   6.462   2.836   0.174  1.0869  2.1152  0.8223
17569TIP3    H274199   6.477   2.869   0.027 -0.5784 -1.2504 -0.2084
17570TIP3   OH274200   2.330   1.690  16.844  0.6048 -0.1846  0.1927
17570TIP3    H174201   2.398   1.721  16.785 -0.3318  0.1406 -0.7482
17570TIP3    H274202   2.273   1.766  16.857  0.9867 -0.1475  1.8215
17571TIP3   OH274203   4.490   0.291   1.906 -0.0022  0.1744 -0.2536
17571TIP3    H174204   4.409   0.277   1.955 -0.7473  1.1925 -1.1506
17571TIP3    H274205   4.481   0.378   1.868  2.2232  1.0100  0.9223
17572TIP3   OH274206   0.354   6.372   5.059  0.2412 -0.3411  0.2659
17572TIP3    H174207   0.274   6.382   5.007  0.1574 -1.6308  0.1128
17572TIP3    H274208   0.338   6.423   5.138 -0.3026  0.2822 -0.2378
17573TIP3   OH274209   4.304   4.635   1.857 -0.5105  0.0517  0.4149
17573TIP3    H174210   4.304   4.653   1.951  2.4286  2.3496  0.1518
17573TIP3    H274211   4.261   4.711   1.817  1.1673  0.7622 -0.1649
17574TIP3   OH274212   3.582   2.940   1.061  0.1657  0.4571 -0.1756
17574TIP3    H174213   3.535   3.023   1.067  0.5298  0.5649  2.1848
17574TIP3    H274214   3.630   2.946   0.978 -2.7520  0.9373 -1.9864
17575TIP3   OH274215   2.924   6.690  16.411 -0.1012  0.5228  0.2258
17575TIP3    H174216   2.892   6.605  16.382  2.8627 -0.9599  0.8995
17575TIP3    H274217   2.992   6.713  16.348  2.3208  0.0952  2.5146
17576TIP3   OH274218   5.703   5.748  16.728 -0.0660 -0.3824  0.6421
17576TIP3    H174219   5.620   5.789  16.702 -0.4085 -1.3225  0.1854
17576TIP3    H274220   5.683   5.704  16.810 -0.8479 -2.9058 -0.7662
17577TIP3   OH274221   4.424   5.251  16.668  0.8715  0.3036  0.2924
17577TIP3    H174222   4.450   5.299  16.747 -0.5371  0.0057  0.9798
17577TIP3    H274223   4.429   5.159  16.694  0.0248  0.2174  0.1793
17578TIP3   OH274224   1.743   3.681   6.202 -0.7040  0.4874  0.0021
17578TIP3    H174225   1.771   3.592   6.225  0.6497  0.0357 -2.9582
17578TIP3    H274226   1.662   3.693   6.251 -0.5604 -2.0989  1.0670
17579TIP3   OH274227   4.115   4.802  16.600 -0.0565 -0.6737  0.0571
17579TIP3    H174228   4.020   4.798  16.607 -0.3638  1.9005 -1.1628
17579TIP3    H274229   4.139   4.882  16.648  1.1898 -0.1280 -1.3743
17580TIP3   OH274230   4.341   0.291   2.331 -0.4732  0.2159 -0.1712
17580TIP3    H174231   4.272   0.344   2.292  0.4390  1.6103  0.0495
17580TIP3    H274232   4.295   0.223   2.380 -1.7483  1.9813  1.2140
17581TIP3   OH274233   0.080   5.066  11.309  0.0757  0.6759  0.4567
17581TIP3    H174234   0.045   5.154  11.300 -1.4331  0.2597  1.7218
17581TIP3    H274235   0.035   5.030  11.386  1.8285 -0.6416  0.9439
17582TIP3   OH274236   0.762   2.590  12.287  0.0357 -0.2107 -0.1306
17582TIP3    H174237   0.674   2.614  12.317  0.0516 -0.4472  0.1122
17582TIP3    H274238   0.802   2.673  12.262  0.4513  0.1613  1.6506
17583TIP3   OH274239   3.940   5.417   4.913 -0.1956 -0.1003 -0.4227
17583TIP3    H174240   3.978   5.490   4.865  2.4968 -0.8867  0.3086
17583TIP3    H274241   3.937   5.447   5.004  1.3299 -0.9794 -0.0504
17584TIP3   OH274242   5.259   5.753   3.931  0.1431  0.0981 -0.1425
17584TIP3    H174243   5.234   5.705   4.009  0.8519  1.3338  0.8972
17584TIP3    H274244   5.177   5.771   3.886 -0.2451 -0.8821  0.1598
17585TIP3   OH274245   1.568   4.637   4.384 -0.9703 -0.1362  0.6455
17585TIP3    H174246   1.481   4.607   4.411 -1.3171 -1.2047 -1.4440
17585TIP3    H274247   1.571   4.619   4.290  2.5174 -2.6880  1.0616
17586TIP3   OH274248   5.503   1.825   0.563  0.0088  0.3086 -0.0633
17586TIP3    H174249   5.432   1.773   0.527  1.8754 -1.5333 -1.2781
17586TIP3    H274250   5.474   1.846   0.652 -1.6653 -1.0869 -0.2276
17587TIP3   OH274251   3.595   0.029   4.650 -0.2031  0.3414 -0.5617
17587TIP3    H174252   3.653  -0.021   4.708  0.6939  2.1444  0.1597
17587TIP3    H274253   3.652   0.056   4.577 -0.4280  1.1365 -0.4439
17588TIP3   OH274254   4.506   3.387   0.132  0.5301  0.1321  0.0125
17588TIP3    H174255   4.495   3.310   0.077 -0.5189 -0.9262  1.5995
17588TIP3    H274256   4.433   3.444   0.109  0.0443 -0.3471  0.3251
17589TIP3   OH274257   6.400   1.232  11.294  0.2049  0.1953  0.3756
17589TIP3    H174258   6.357   1.147  11.283 -0.0035  0.4350 -0.8330
17589TIP3    H274259   6.348   1.291  11.240  1.2656  0.7675 -0.0410
17590TIP3   OH274260   3.703   3.243  16.762 -0.3062 -0.1632  0.5109
17590TIP3    H174261   3.622   3.282  16.794 -1.8913 -2.8075 -0.0186
17590TIP3    H274262   3.676   3.182  16.693  2.3902  0.6195 -1.4071
17591TIP3   OH274263   6.292   1.659   4.650  0.0107  0.3351  0.2693
17591TIP3    H174264   6.248   1.576   4.633  0.5637  0.0860  0.0381
17591TIP3    H274265   6.319   1.654   4.741 -0.4052  0.4763  0.4028
17592TIP3   OH274266   5.374   0.532   2.675  0.1386  0.1429  0.0771
17592TIP3    H174267   5.400   0.485   2.595  1.1889  0.6324  0.1111
17592TIP3    H274268   5.440   0.601   2.684  0.7267 -0.6321  2.0160
17593TIP3   OH274269   2.290   2.146  16.949  0.0542 -0.3983 -0.4922
17593TIP3    H174270   2.255   2.060  16.972  1.9930 -0.6463  1.8542
17593TIP3    H274271   2.235   2.208  16.996 -1.5148 -0.2427 -2.3947
17594TIP3   OH274272   2.302   3.643  17.141 -0.3672  0.3041  0.1395
17594TIP3    H174273   2.217   3.649  17.097 -1.2160 -0.2335  1.6375
17594TIP3    H274274   2.314   3.728  17.182  0.4114  0.7942 -1.0446
17595TIP3   OH274275   0.952   2.550  11.110  0.4858  0.4243  0.1808
17595TIP3    H174276   0.962   2.579  11.201  0.0000  2.8317 -0.4396
17595TIP3    H274277   1.034   2.574  11.068 -0.0877  1.3702 -0.4540
17596TIP3   OH274278   4.506   1.533   4.774  0.3080 -0.1001 -0.4694
17596TIP3    H174279   4.502   1.438   4.783 -2.6321  0.0466  1.1143
17596TIP3    H274280   4.527   1.564   4.862 -1.0039  0.7220 -0.4139
17597TIP3   OH274281   5.071   0.711  11.587 -0.0828  0.5844  0.2710
17597TIP3    H174282   4.985   0.704  11.544 -0.6902  1.6213  1.2399
17597TIP3    H274283   5.134   0.696  11.517 -1.0334 -1.4305 -0.2293
17598TIP3   OH274284   1.810   3.139   2.383  0.1095  0.1175 -0.0930
17598TIP3    H174285   1.824   3.045   2.373  0.7200  0.1927  0.0215
17598TIP3    H274286   1.735   3.146   2.443  0.1525 -0.2925  0.0107
17599TIP3   OH274287   0.458   4.533   3.277 -0.0530 -0.4616 -1.0453
17599TIP3    H174288   0.419   4.553   3.362  1.1651 -1.2152 -0.2695
17599TIP3    H274289   0.411   4.455   3.246 -0.4951 -0.1876 -1.0758
17600TIP3   OH274290   1.629   0.804   6.191  0.0399  0.0830  0.7201
17600TIP3    H174291   1.614   0.763   6.106  0.2577  0.1296  0.6579
17600TIP3    H274292   1.715   0.845   6.182  1.4654 -2.4013  1.9126
17601TIP3   OH274293   4.597   4.279   1.956  0.3649 -0.4878 -0.3603
17601TIP3    H174294   4.602   4.371   1.981 -1.0081 -0.2682 -0.8257
17601TIP3    H274295   4.675   4.265   1.902  0.1959  0.6094 -0.9250
17602TIP3   OH274296   4.310   5.485   4.668 -0.5735  0.5105  0.1012
17602TIP3    H174297   4.255   5.530   4.731 -0.4984 -0.3171  0.7697
17602TIP3    H274298   4.250   5.433   4.615 -0.4771 -0.1179  0.6017
17603TIP3   OH274299   6.591   1.544   1.844 -0.5438  0.3314 -0.4114
17603TIP3    H174300   6.565   1.502   1.926  2.7870 -1.5175 -0.1171
17603TIP3    H274301   6.627   1.629   1.870  0.5876 -0.2887  0.0950
17604TIP3   OH274302   0.494   4.820  11.937 -0.0978 -0.0347 -0.2562
17604TIP3    H174303   0.505   4.894  11.877  0.2424  0.8403  0.8436
17604TIP3    H274304   0.469   4.861  12.020  2.2424 -0.9402  0.9833
17605TIP3   OH274305   4.623   2.434  14.111 -0.0919 -0.0613 -0.8044
17605TIP3    H174306   4.542   2.466  14.152 -0.1972 -2.2326  0.8934
17605TIP3    H274307   4.601   2.425  14.018 -1.4877  0.2980 -0.5329
17606TIP3   OH274308   6.492   0.123   3.689 -0.0670 -0.4898 -0.1061
17606TIP3    H174309   6.432   0.170   3.748 -1.1315 -1.4774 -0.3682
17606TIP3    H274310   6.451   0.130   3.603 -0.5058 -2.2407 -0.0840
17607TIP3   OH274311   4.411   1.590   2.069 -0.7308  0.1673 -0.2259
17607TIP3    H174312   4.329   1.602   2.021  0.1055 -1.3730 -2.1632
17607TIP3    H274313   4.395   1.513   2.123 -0.1803 -0.9461 -1.5997
17608TIP3   OH274314   1.477   0.937   4.635 -0.0259  0.6952 -0.6721
17608TIP3    H174315   1.521   0.866   4.589 -0.3331 -0.2659  0.4507
17608TIP3    H274316   1.544   0.973   4.692 -0.6271 -0.8534  1.1337
17609TIP3   OH274317   0.591   3.748   4.763  0.1558  0.7059  0.1555
17609TIP3    H174318   0.603   3.756   4.668 -2.9539  0.0832 -0.3983
17609TIP3    H274319   0.536   3.823   4.786  0.5550  0.6314  1.4259
17610TIP3   OH274320   4.952   2.189  15.905 -0.6536 -0.4346  0.0875
17610TIP3    H174321   5.011   2.256  15.871  2.1214 -2.1556  1.1257
17610TIP3    H274322   4.954   2.120  15.839 -1.5693 -0.5164  0.1329
17611TIP3   OH274323   0.997   2.916  11.516  0.2414  0.7415  0.1012
17611TIP3    H174324   0.904   2.916  11.494  0.4209  0.1526 -0.7114
17611TIP3    H274325   1.040   2.953  11.439  0.8330 -0.7298 -0.3008
17612TIP3   OH274326   0.650   6.478  11.104  0.0591 -0.4030  0.5836
17612TIP3    H174327   0.701   6.438  11.033  1.2859  1.3784  0.3909
17612TIP3    H274328   0.713   6.485  11.176 -1.2716 -2.5554  2.0766
17613TIP3   OH274329   1.917   2.366   5.639 -0.1778 -0.0542 -0.0468
17613TIP3    H174330   2.009   2.378   5.664 -0.4947  0.8970  0.7073
17613TIP3    H274331   1.910   2.409   5.554 -0.3019  1.4331  0.6822
17614TIP3   OH274332   3.495   6.644   4.148  0.1417 -0.4853 -0.4239
17614TIP3    H174333   3.407   6.660   4.182  0.1857  0.8058 -0.8557
17614TIP3    H274334   3.534   6.585   4.212 -0.9978 -0.9967 -0.1727
17615TIP3   OH274335   4.020   5.974  15.660 -0.2903 -0.0094 -0.1990
17615TIP3    H174336   3.925   5.969  15.652 -0.4515  0.7512  0.9289
17615TIP3    H274337   4.035   6.003  15.751  0.9968  0.2386 -0.4635
17616TIP3   OH274338   5.734   6.075  14.895  0.1964 -0.4389 -0.5014
17616TIP3    H174339   5.693   5.990  14.880 -0.1522  0.1837 -3.8811
17616TIP3    H274340   5.799   6.059  14.963 -1.0649 -2.9784  0.2113
17617TIP3   OH274341   6.416   3.618   3.203  0.1230  0.0927 -0.1078
17617TIP3    H174342   6.476   3.670   3.149 -0.4324  0.4215 -0.4156
17617TIP3    H274343   6.329   3.635   3.166 -0.0844 -0.9595 -0.1396
17618TIP3   OH274344   5.218   4.829  14.726 -0.3762 -0.0406  0.5205
17618TIP3    H174345   5.205   4.769  14.800 -1.0901  0.5956  0.9240
17618TIP3    H274346   5.215   4.916  14.765 -0.1543  0.2894 -0.1826
17619TIP3   OH274347   0.611   1.243  14.194 -0.0367  0.2718  0.7742
17619TIP3    H174348   0.598   1.184  14.120  0.2948  0.8093  0.2778
17619TIP3    H274349   0.588   1.191  14.271  0.2088 -0.4879  0.3421
17620TIP3   OH274350   5.025   2.049   3.871  0.0609  0.0767 -0.7768
17620TIP3    H174351   5.063   2.098   3.944 -0.7412 -1.6180  0.8729
17620TIP3    H274352   5.069   2.083   3.793  1.5753  1.3690  0.5758
17621TIP3   OH274353   3.494   6.801   2.933 -0.0852  0.3333 -0.5690
17621TIP3    H174354   3.514   6.782   2.842  0.6019 -0.2756 -0.3049
17621TIP3    H274355   3.420   6.744   2.954  1.6901 -1.9055  0.0946
17622TIP3   OH274356   5.066   3.911  12.051 -0.7719 -0.4017 -0.1017
17622TIP3    H174357   5.046   3.845  12.117 -0.3997  1.2282  1.7451
17622TIP3    H274358   5.138   3.962  12.090 -0.9319  0.9643 -1.5160
17623TIP3   OH274359   4.702   6.006  14.937  0.9224  0.6866 -0.2265
17623TIP3    H174360   4.665   6.046  14.858 -0.0463  1.4192  0.5643
17623TIP3    H274361   4.683   6.069  15.006 -0.4232 -0.9957  1.0273
17624TIP3   OH274362   4.677   0.338  12.977  0.1944 -0.1984  0.4224
17624TIP3    H174363   4.717   0.253  12.991 -1.7603 -1.1447  0.5182
17624TIP3    H274364   4.734   0.399  13.023  1.8450 -1.3636  0.0302
17625TIP3   OH274365   2.037   4.099  15.812  0.2024  0.5809 -0.0423
17625TIP3    H174366   2.099   4.028  15.800  0.9901  1.2783 -0.1742
17625TIP3    H274367   2.088   4.179  15.798 -0.4222  1.2128  1.0912
17626TIP3   OH274368   6.755   4.872  14.592 -0.0043  0.2614 -0.4161
17626TIP3    H174369   6.674   4.842  14.552 -0.7423 -1.0438  1.8941
17626TIP3    H274370   6.779   4.803  14.653  0.8566  2.2263  1.6146
17627TIP3   OH274371   6.208   3.026   4.878 -0.1125 -0.1595 -0.3905
17627TIP3    H174372   6.210   2.947   4.933 -0.6738 -0.5994 -0.9795
17627TIP3    H274373   6.243   2.998   4.794 -2.0439 -0.3042 -1.2131
17628TIP3   OH274374   3.840   1.054  11.216 -0.5280  0.5036 -0.0100
17628TIP3    H174375   3.774   0.991  11.186  1.0644 -0.2613 -2.2957
17628TIP3    H274376   3.857   1.108  11.139  2.4368 -0.2461 -0.0038
17629TIP3   OH274377   1.371   5.057   4.091  0.5371  0.2202 -0.0250
17629TIP3    H174378   1.384   5.012   4.008  0.6504  0.9334 -0.4017
17629TIP3    H274379   1.397   5.147   4.074 -2.3863  1.1615 -0.1164
17630TIP3   OH274380   5.830   4.985  14.756 -0.4824  0.1765  0.2921
17630TIP3    H174381   5.887   4.943  14.820 -0.2653  0.2867  0.1694
17630TIP3    H274382   5.744   4.944  14.770 -0.1079 -0.8712 -0.3355
17631TIP3   OH274383   2.121   6.452   1.036  0.5163  0.1168  1.0560
17631TIP3    H174384   2.085   6.514   0.973 -1.7585 -0.6005  1.5373
17631TIP3    H274385   2.106   6.492   1.121 -1.1947 -1.1106  1.3893
17632TIP3   OH274386   1.830   2.625  11.364 -0.0802  0.7056 -0.2093
17632TIP3    H174387   1.866   2.620  11.453 -1.0479  1.2065  0.2247
17632TIP3    H274388   1.866   2.706  11.328  1.2489 -0.0774 -0.7218
17633TIP3   OH274389   1.718   0.139  13.805 -0.6798  0.5865 -0.2909
17633TIP3    H174390   1.746   0.141  13.897  1.4427  1.5281 -0.8919
17633TIP3    H274391   1.644   0.200  13.801 -1.5389 -0.3187  0.9682
17634TIP3   OH274392   5.837   5.603   5.518 -0.8051 -0.6436  0.1649
17634TIP3    H174393   5.751   5.620   5.480 -0.3427 -0.4813 -0.8512
17634TIP3    H274394   5.826   5.523   5.569 -1.5954 -0.5255  0.1876
17635TIP3   OH274395   0.736   0.317   5.761 -0.1164 -0.0094  0.1161
17635TIP3    H174396   0.789   0.269   5.697 -1.1193 -0.1274 -0.6571
17635TIP3    H274397   0.793   0.327   5.837  1.1247  0.1702 -0.8090
17636TIP3   OH274398   5.577   0.864  12.571 -0.5152  0.2607 -0.1985
17636TIP3    H174399   5.490   0.850  12.608 -0.3916 -1.0475 -0.3649
17636TIP3    H274400   5.594   0.786  12.520  2.2359 -1.2600  2.7066
17637TIP3   OH274401   5.061   6.549   1.349 -0.2672 -0.1682 -0.0838
17637TIP3    H174402   5.057   6.624   1.409 -3.1550 -1.2591  1.3001
17637TIP3    H274403   4.986   6.562   1.291  0.4811 -0.9036 -1.2414
17638TIP3   OH274404   6.404   3.223   3.065  0.3664  0.0397  0.1956
17638TIP3    H174405   6.347   3.183   3.130  1.1243 -1.7687 -0.1830
17638TIP3    H274406   6.389   3.172   2.985  1.3595  0.5276 -0.3273
17639TIP3   OH274407   0.607   3.256  13.025 -0.0851  0.3851  0.1035
17639TIP3    H174408   0.522   3.299  13.025 -1.0970 -1.5032  0.2662
17639TIP3    H274409   0.660   3.308  12.965 -1.4240  1.4425 -0.2164
17640TIP3   OH274410   2.037   5.607  12.599 -0.1248  0.2042  0.2761
17640TIP3    H174411   2.036   5.691  12.646  0.8787  2.2248 -2.9546
17640TIP3    H274412   2.118   5.565  12.628  0.2100  1.1389  0.7652
17641TIP3   OH274413   1.026   1.308   4.052 -0.1964  0.1955 -0.0454
17641TIP3    H174414   0.965   1.378   4.030 -1.1547  0.3099  2.6007
17641TIP3    H274415   1.113   1.346   4.040 -0.6786  2.2855  2.2696
17642TIP3   OH274416   6.650   4.141   1.035 -0.4303 -0.0449  0.3157
17642TIP3    H174417   6.651   4.113   0.943 -1.0852 -0.8183  0.5344
17642TIP3    H274418   6.602   4.073   1.080 -0.0666  0.3061  1.2557
17643TIP3   OH274419   0.531   4.495   2.857 -0.2843 -0.3676 -0.3286
17643TIP3    H174420   0.495   4.424   2.805 -1.5882 -0.1249  0.1849
17643TIP3    H274421   0.545   4.566   2.794  0.1947 -0.7792 -0.6940
17644TIP3   OH274422   2.793   0.586   1.977 -0.0263  0.1365  0.7578
17644TIP3    H174423   2.806   0.536   2.057  1.4619 -0.5945  0.0962
17644TIP3    H274424   2.744   0.526   1.920 -1.5567  0.8491  1.2736
17645TIP3   OH274425   4.395   1.586  15.069 -0.0589 -0.8200  0.1881
17645TIP3    H174426   4.341   1.585  15.148  0.8013 -1.1188  0.7817
17645TIP3    H274427   4.466   1.647  15.089 -0.8287  0.5563 -1.0495
17646TIP3   OH274428   1.356   6.598  17.304 -0.5711 -0.2832  0.2059
17646TIP3    H174429   1.327   6.597  17.395 -0.0007  0.8614  0.4239
17646TIP3    H274430   1.288   6.649  17.258 -0.8953 -0.9187 -0.0313
17647TIP3   OH274431   4.323   1.112  14.872  0.6955  0.0936 -0.5388
17647TIP3    H174432   4.413   1.082  14.871  0.9839  0.9207 -1.5646
17647TIP3    H274433   4.307   1.144  14.783 -0.3316  0.7417 -0.1458
17648TIP3   OH274434   4.170   4.381  12.658 -0.4878  0.3617 -0.0111
17648TIP3    H174435   4.227   4.456  12.641 -0.7679  0.5293 -0.2234
17648TIP3    H274436   4.229   4.311  12.683 -0.0730  0.1870 -1.3880
17649TIP3   OH274437   5.944   3.540  11.041 -0.1700 -0.4786 -0.4879
17649TIP3    H174438   5.871   3.496  11.084 -0.5166 -0.7855 -1.3660
17649TIP3    H274439   5.903   3.604  10.983  0.2232 -0.9828 -1.3508
17650TIP3   OH274440   0.344   6.470   4.220  0.2638  0.2512 -0.3968
17650TIP3    H174441   0.400   6.545   4.200 -0.7082  0.7433 -1.3412
17650TIP3    H274442   0.301   6.449   4.137  0.5813 -1.4212 -0.1749
17651TIP3   OH274443   0.473   2.062  11.364 -0.0977 -0.7915  0.3031
17651TIP3    H174444   0.546   2.118  11.338  1.2436 -1.9039  1.5426
17651TIP3    H274445   0.402   2.123  11.383  0.6353  0.3427 -0.4540
17652TIP3   OH274446   0.709   3.269   5.750  0.2982  0.4430 -0.5000
17652TIP3    H174447   0.659   3.194   5.717 -0.3156  0.6579 -0.0855
17652TIP3    H274448   0.644   3.338   5.759  0.8829  1.0599 -0.9790
17653TIP3   OH274449   3.247   1.743  13.533  0.1521  0.7046 -0.5770
17653TIP3    H174450   3.319   1.726  13.594 -0.2204 -0.4899 -0.4416
17653TIP3    H274451   3.177   1.778  13.588 -0.0880 -0.1109 -0.3557
17654TIP3   OH274452   1.975   0.322   3.640  0.0865 -0.4523 -0.3637
17654TIP3    H174453   1.986   0.383   3.567 -0.2283 -0.1480 -0.1615
17654TIP3    H274454   1.905   0.361   3.693  0.7929 -0.2922  0.4823
17655TIP3   OH274455   5.237   6.808  11.568  0.0220  0.0372  0.6520
17655TIP3    H174456   5.214   6.829  11.478 -3.9656  2.1186  1.9215
17655TIP3    H274457   5.286   6.725  11.562  0.2832  0.2959 -3.3443
17656TIP3   OH274458   1.984   1.159   3.721  0.3019 -0.7050  0.0964
17656TIP3    H174459   2.066   1.134   3.679 -0.9611 -0.5674 -2.6976
17656TIP3    H274460   1.926   1.083   3.708 -0.0828 -0.7818  1.9575
17657TIP3   OH274461   5.664   1.363  11.542  0.1503 -0.1770 -0.1216
17657TIP3    H174462   5.710   1.279  11.543 -0.4942 -0.5355 -0.0339
17657TIP3    H274463   5.584   1.345  11.493 -0.8090 -0.0416  1.3637
17658TIP3   OH274464   0.754   1.892  13.054 -0.6378  0.0854 -0.0926
17658TIP3    H174465   0.682   1.953  13.070  1.1411  1.5124  3.6120
17658TIP3    H274466   0.766   1.846  13.137 -0.1241 -3.5376 -1.9453
17659TIP3   OH274467   4.295   3.794  11.209  0.1481  0.2006 -0.1931
17659TIP3    H174468   4.359   3.811  11.278  1.1940 -1.2713 -0.7539
17659TIP3    H274469   4.344   3.801  11.127 -1.0036  1.5865 -0.8245
17660TIP3   OH274470   0.257   0.237  14.903  0.0378 -0.0173  0.4821
17660TIP3    H174471   0.185   0.176  14.921  0.5210 -0.0127  2.7120
17660TIP3    H274472   0.327   0.182  14.870  0.2539 -0.6294  1.8807
17661TIP3   OH274473   1.763   3.128  11.268  0.1841  0.3793  0.4704
17661TIP3    H174474   1.698   3.198  11.258  0.4275  0.6121  0.4996
17661TIP3    H274475   1.743   3.088  11.352 -0.3693 -0.0172  0.1565
17662TIP3   OH274476   4.966   0.568  13.496 -0.2932 -0.4487 -0.0997
17662TIP3    H174477   5.014   0.506  13.441  1.1431 -0.2092  0.8330
17662TIP3    H274478   4.960   0.648  13.443  1.7914  0.0491  0.3163
17663TIP3   OH274479   0.859   5.965  12.010 -0.3384  0.3339 -0.1226
17663TIP3    H174480   0.908   5.887  11.982  2.0717  0.9490  2.0178
17663TIP3    H274481   0.797   5.932  12.074  0.6860  0.0925  0.7903
17664TIP3   OH274482   3.690   4.433  13.253 -0.0951 -0.3302 -0.4403
17664TIP3    H174483   3.756   4.378  13.295 -0.3830 -0.2758  0.0862
17664TIP3    H274484   3.741   4.492  13.196  0.2706 -0.5983 -0.3953
17665TIP3   OH274485   4.241   0.323   4.515 -0.3407 -0.0845  0.2560
17665TIP3    H174486   4.294   0.290   4.442  1.9907  1.7367  0.9796
17665TIP3    H274487   4.151   0.322   4.482  0.6097  0.8527 -2.7434
17666TIP3   OH274488   0.526   6.279   4.682 -0.3790 -0.0360 -0.2278
17666TIP3    H174489   0.561   6.341   4.618 -0.7042  1.2677  0.8090
17666TIP3    H274490   0.513   6.331   4.762  1.4241 -1.8813  1.4164
17667TIP3   OH274491   0.002   5.261   2.824  0.3207 -0.3106 -0.1021
17667TIP3    H174492   0.073   5.219   2.776  0.1606 -0.5743 -0.1134
17667TIP3    H274493  -0.020   5.199   2.893 -1.3763 -1.2696 -1.4147
17668TIP3   OH274494   1.600   1.243   5.510 -0.0665 -0.4903 -0.6552
17668TIP3    H174495   1.671   1.191   5.549  0.7527  1.3620  0.4583
17668TIP3    H274496   1.522   1.219   5.560  0.5266  0.1652  0.6183
17669TIP3   OH274497   1.772   2.917   5.776 -0.2353 -0.2776  0.0401
17669TIP3    H174498   1.751   2.879   5.690 -2.9839  0.0165  0.4867
17669TIP3    H274499   1.837   2.858   5.813  3.0152  0.9447 -3.1700
17670TIP3   OH274500   6.506   4.135  15.237  0.0185 -0.4845 -0.1571
17670TIP3    H174501   6.566   4.208  15.251  0.1968 -0.7873  0.7211
17670TIP3    H274502   6.526   4.103  15.149  0.2255  0.2494 -0.3857
17671TIP3   OH274503   4.754   5.605   1.562  0.1466  0.5464 -0.2467
17671TIP3    H174504   4.847   5.623   1.574  0.0596  1.0152 -0.2464
17671TIP3    H274505   4.716   5.613   1.650  0.1009  0.3912 -0.2523
17672TIP3   OH274506   6.664   4.114  10.693 -0.2913  0.5942  0.0850
17672TIP3    H174507   6.713   4.032  10.690  0.3458  0.9513  0.3552
17672TIP3    H274508   6.631   4.126  10.605 -1.3845 -0.5353  0.3123
17673TIP3   OH274509   0.119   2.190  12.613 -0.1049 -0.5956 -0.2887
17673TIP3    H174510   0.075   2.274  12.631 -0.2981 -0.7526 -0.0131
17673TIP3    H274511   0.109   2.178  12.519 -2.1013 -1.4109 -0.0272
17674TIP3   OH274512   2.005   3.370   5.528 -0.3522  0.1072 -0.2677
17674TIP3    H174513   2.071   3.364   5.597  1.2205  0.8451 -1.6461
17674TIP3    H274514   1.956   3.450   5.547 -0.2143  0.0784  0.2140
17675TIP3   OH274515   4.909   2.366   3.899  0.1431 -0.1805 -0.1242
17675TIP3    H174516   4.817   2.345   3.884  0.2376 -0.7778  0.1138
17675TIP3    H274517   4.955   2.326   3.825  0.3149 -0.7613  0.2882
17676TIP3   OH274518   6.005   0.243   2.704  0.6005  0.2266  0.3594
17676TIP3    H174519   5.979   0.271   2.616  0.2614 -0.3170  0.2804
17676TIP3    H274520   5.922   0.236   2.751  0.8238  1.0696  0.8971
17677TIP3   OH274521   3.845   4.645  16.741 -0.0701 -0.8744 -0.4904
17677TIP3    H174522   3.764   4.646  16.689 -1.7894 -2.6265  1.9372
17677TIP3    H274523   3.871   4.553  16.743  0.8495 -0.6124  0.4411
17678TIP3   OH274524   2.379   0.319  17.225 -0.0604 -0.3514 -0.0434
17678TIP3    H174525   2.302   0.271  17.194  0.1711 -1.3519  0.8917
17678TIP3    H274526   2.359   0.342  17.315  0.5735 -0.2510  0.0745
17679TIP3   OH274527   3.554   6.284  13.870  0.2692  0.5648  0.2358
17679TIP3    H174528   3.472   6.235  13.881 -0.0542  1.3620  1.6000
17679TIP3    H274529   3.596   6.244  13.794 -0.9641 -0.4488  0.0580
17680TIP3   OH274530   5.714   6.183   2.292  0.9060 -0.0232  0.4019
17680TIP3    H174531   5.772   6.199   2.367  1.7137 -0.9442 -0.0032
17680TIP3    H274532   5.671   6.267   2.277  2.7165  0.9344  0.2352
17681TIP3   OH274533   0.900   1.344  11.437 -0.4213 -0.1984 -0.6518
17681TIP3    H174534   0.955   1.285  11.488 -2.3841  0.1638  2.0649
17681TIP3    H274535   0.947   1.427  11.435 -0.0606 -0.3817  0.1202
17682TIP3   OH274536   0.625   4.230   0.804  0.2158 -0.3552 -0.3892
17682TIP3    H174537   0.688   4.248   0.735 -0.6832 -0.0783 -1.1554
17682TIP3    H274538   0.621   4.134   0.809  1.0667 -0.3811  0.0310
17683TIP3   OH274539   4.635   2.624   4.668 -0.2786  0.3887  0.7804
17683TIP3    H174540   4.656   2.636   4.761  1.4302  0.7725  0.3948
17683TIP3    H274541   4.710   2.576   4.634  1.4882  4.1609 -1.2946
17684TIP3   OH274542   0.072   2.477   2.552 -0.5072 -0.1287 -0.6664
17684TIP3    H174543   0.070   2.388   2.515 -0.5939 -1.2296  1.7875
17684TIP3    H274544   0.156   2.481   2.597 -1.0003  0.6264  0.2016
17685TIP3   OH274545   4.848   3.039  15.538 -0.0845 -0.0811  0.0157
17685TIP3    H174546   4.926   2.993  15.566 -0.4029 -0.9109 -0.4281
17685TIP3    H274547   4.837   3.109  15.602  1.5291  0.6224 -0.4438
17686TIP3   OH274548   3.909   2.424   2.487 -0.6115 -0.3097 -0.6089
17686TIP3    H174549   3.941   2.335   2.505 -2.0205 -0.5910  0.6822
17686TIP3    H274550   3.989   2.477   2.488  0.0297 -1.1816  1.2243
17687TIP3   OH274551   3.802   2.084   2.968 -0.8218  0.3026 -0.5437
17687TIP3    H174552   3.790   2.135   2.887  0.2375  0.9530 -0.3099
17687TIP3    H274553   3.828   2.149   3.033 -1.4801 -0.2492  0.2841
17688TIP3   OH274554   6.592   4.770   4.910  0.1283 -0.4911  0.0630
17688TIP3    H174555   6.533   4.714   4.959 -1.2653 -0.4366 -1.4611
17688TIP3    H274556   6.561   4.859   4.926 -0.9909 -0.5333 -1.6493
17689TIP3   OH274557   6.466   3.278   1.036  0.1933 -0.1515  1.1218
17689TIP3    H174558   6.436   3.368   1.018 -1.5464 -1.0434 -0.8055
17689TIP3    H274559   6.562   3.285   1.038  0.2659  1.3538 -1.7395
17690TIP3   OH274560   1.077   0.980   4.760 -0.7632 -0.2130  0.2812
17690TIP3    H174561   1.096   0.898   4.715 -3.0154  0.0936 -1.4346
17690TIP3    H274562   1.086   0.960   4.853  3.3528 -1.0770 -0.1031
17691TIP3   OH274563   3.577   2.863  13.918  0.4341 -0.8173  0.1835
17691TIP3    H174564   3.523   2.914  13.978  0.4965 -0.3976 -0.1137
17691TIP3    H274565   3.640   2.925  13.883  1.1240 -1.3091  0.5329
17692TIP3   OH274566   5.132   6.606   5.713  0.2581  0.0713  0.8554
17692TIP3    H174567   5.070   6.629   5.643  1.1810 -0.2375 -0.0906
17692TIP3    H274568   5.105   6.519   5.741 -0.2044  0.2536  1.0062
17693TIP3   OH274569   3.428   3.345   3.763 -0.3106 -0.6908  0.6791
17693TIP3    H174570   3.477   3.427   3.768 -0.0371 -0.9018  1.5903
17693TIP3    H274571   3.457   3.294   3.838  0.1841 -2.0074 -0.3515
17694TIP3   OH274572   5.070   5.169   1.127 -0.4935 -0.5659  0.0653
17694TIP3    H174573   5.022   5.191   1.047  1.6996  0.2311 -1.1060
17694TIP3    H274574   5.146   5.120   1.096  0.2456 -0.5187  1.7241
17695TIP3   OH274575   2.723   0.469  15.116 -0.2441 -0.3498  0.6769
17695TIP3    H174576   2.794   0.406  15.106  1.1450  1.2604 -0.1268
17695TIP3    H274577   2.664   0.451  15.044  1.6558  1.0567 -1.3644
17696TIP3   OH274578   4.754   2.574   4.126 -0.0838 -0.4841  0.2237
17696TIP3    H174579   4.662   2.556   4.110 -0.3688  1.5169 -0.6722
17696TIP3    H274580   4.777   2.641   4.061  1.8331 -0.4886  0.8340
17697TIP3   OH274581   6.674   2.735   2.199 -0.7811  0.0830  0.5539
17697TIP3    H174582   6.620   2.659   2.223 -0.5378 -1.4836 -3.1857
17697TIP3    H274583   6.763   2.700   2.194 -0.2790  1.2353  1.0453
17698TIP3   OH274584   3.377   0.567   4.016  0.4564 -0.4061  0.1518
17698TIP3    H174585   3.320   0.557   3.940  0.7989 -1.1108 -0.0200
17698TIP3    H274586   3.459   0.599   3.981 -0.4315  2.7146  0.6258
17699TIP3   OH274587   3.701   1.713  14.663 -0.0412 -0.0124  0.2890
17699TIP3    H174588   3.764   1.784  14.651 -1.6703  1.2361 -1.5479
17699TIP3    H274589   3.714   1.656  14.588 -0.7665  0.0188  0.1277
17700TIP3   OH274590   1.366   5.577  12.946 -0.1052  0.0383  0.5727
17700TIP3    H174591   1.408   5.593  13.030  0.3794  1.5373  0.0775
17700TIP3    H274592   1.304   5.649  12.936 -0.4949 -0.3828 -0.1394
17701TIP3   OH274593   4.081   5.616  14.747 -0.3056  0.5285  0.0039
17701TIP3    H174594   4.004   5.628  14.691 -0.8598 -0.3156  0.5571
17701TIP3    H274595   4.045   5.595  14.833  0.4546 -2.9567 -0.3693
17702TIP3   OH274596   2.358   1.645  11.724  0.3926  0.0080 -0.2570
17702TIP3    H174597   2.440   1.688  11.750  0.2060  0.3730 -0.2596
17702TIP3    H274598   2.302   1.717  11.693 -1.1235  0.3069  2.7172
17703TIP3   OH274599   0.283   5.948   3.863  0.0429 -0.6337  0.7219
17703TIP3    H174600   0.365   5.986   3.832 -0.7289  0.6483  0.1799
17703TIP3    H274601   0.307   5.859   3.891  1.5858 -0.3148  0.5069
17704TIP3   OH274602   6.310   2.297  12.620 -0.7688  0.1802 -0.0538
17704TIP3    H174603   6.402   2.316  12.603 -1.1137  2.1860  0.0615
17704TIP3    H274604   6.283   2.363  12.683 -2.4849  0.0967 -0.6425
17705TIP3   OH274605   4.200   0.140   3.219 -0.3411  0.3542  0.0717
17705TIP3    H174606   4.253   0.196   3.274 -0.6569  1.4808 -0.7372
17705TIP3    H274607   4.146   0.090   3.280 -1.6711  2.5431  0.7975
17706TIP3   OH274608   3.535   4.238   5.965  0.1771  0.2716 -0.1355
17706TIP3    H174609   3.482   4.190   5.901 -0.0014  1.7378 -1.1310
17706TIP3    H274610   3.477   4.251   6.040 -0.3107  0.3579 -0.5238
17707TIP3   OH274611   2.250   0.552  11.907  0.0025  0.2262  0.3589
17707TIP3    H174612   2.287   0.468  11.879 -0.8384  0.2026 -0.7540
17707TIP3    H274613   2.170   0.561  11.855  0.7280  2.2997 -0.5106
17708TIP3   OH274614   4.370   3.366   1.016 -1.2676  0.3419 -0.1155
17708TIP3    H174615   4.430   3.292   1.026 -1.3524  0.0585 -1.4577
17708TIP3    H274616   4.338   3.384   1.104  0.2518  0.0475  0.5202
17709TIP3   OH274617   6.647   3.745   0.203  0.3270  0.5111 -0.0465
17709TIP3    H174618   6.733   3.776   0.230  0.7868 -0.6257 -0.1476
17709TIP3    H274619   6.665   3.664   0.155 -0.8897 -0.5325  1.1910
17710TIP3   OH274620   5.145   2.408  12.186  0.4436 -0.1885  1.2301
17710TIP3    H174621   5.056   2.395  12.219 -0.0862 -0.8043 -0.3722
17710TIP3    H274622   5.166   2.326  12.142  0.8963  0.7830 -0.4235
17711TIP3   OH274623   4.766   1.213   1.253  0.2931  0.5629 -0.4615
17711TIP3    H174624   4.727   1.167   1.326  1.7008 -0.6841 -0.4329
17711TIP3    H274625   4.805   1.144   1.199  2.6183  1.6855 -0.3454
17712TIP3   OH274626   1.058   1.546   2.759  0.0945  0.1656  0.4430
17712TIP3    H174627   1.060   1.625   2.812 -1.7929  0.8693 -0.4475
17712TIP3    H274628   0.982   1.557   2.702  0.6265 -1.6528 -0.7079
17713TIP3   OH274629   4.947   5.919   4.970 -0.1790 -0.1388 -0.4094
17713TIP3    H174630   5.034   5.937   5.006 -0.1637 -0.3588 -0.3308
17713TIP3    H274631   4.921   5.837   5.013 -0.2737 -0.2630 -0.7023
17714TIP3   OH274632   6.387   0.264   2.700  0.6329  0.2281 -0.1844
17714TIP3    H174633   6.304   0.279   2.743  0.1316 -3.8003  0.7135
17714TIP3    H274634   6.453   0.275   2.769  0.7077  1.7541 -0.4794
17715TIP3   OH274635   1.932   3.418   0.336  0.4151 -0.6682 -0.9586
17715TIP3    H174636   1.975   3.344   0.379  2.5846  1.6462  1.1163
17715TIP3    H274637   1.959   3.410   0.244 -0.4858 -3.1049 -1.0980
17716TIP3   OH274638   1.740   4.488   1.292  0.2438  0.4777  0.3009
17716TIP3    H174639   1.664   4.436   1.265  0.5602  1.1153 -2.0156
17716TIP3    H274640   1.802   4.424   1.325  0.6634 -0.7199 -2.5882
17717TIP3   OH274641   0.366   5.911  14.180  0.2685  0.1861  0.3857
17717TIP3    H174642   0.370   5.867  14.095  2.1259 -1.2692  1.1481
17717TIP3    H274643   0.369   6.004  14.160  1.6519 -0.1426 -1.1335
17718TIP3   OH274644   3.190   3.207  16.966 -0.0872 -0.3639  0.2346
17718TIP3    H174645   3.172   3.299  16.983  2.4635  0.4975 -1.2316
17718TIP3    H274646   3.104   3.165  16.970 -1.9876  2.6859 -2.7331
17719TIP3   OH274647   2.238   0.281  12.043  0.0708  0.0380 -0.0349
17719TIP3    H174648   2.296   0.274  12.118  0.1835 -2.6010 -0.2611
17719TIP3    H274649   2.297   0.283  11.967 -0.0775 -0.0486 -0.1535
17720TIP3   OH274650   1.031   2.010  14.146  0.6285 -0.3183 -0.0952
17720TIP3    H174651   1.016   1.936  14.206  1.8454 -0.7893 -0.3291
17720TIP3    H274652   1.084   2.071  14.198  0.1846  0.0903 -0.1210
17721TIP3   OH274653   4.489   5.221   4.766 -0.2425 -0.1156 -0.0680
17721TIP3    H174654   4.510   5.221   4.673  0.8954 -1.5129  0.1591
17721TIP3    H274655   4.483   5.314   4.789 -0.9336  0.2523 -1.5934
17722TIP3   OH274656   4.462   1.750   2.375 -0.2568  0.2880 -1.0464
17722TIP3    H174657   4.475   1.826   2.432 -1.1496  0.6038 -1.2338
17722TIP3    H274658   4.546   1.737   2.332  0.0548  0.8498 -0.6237
17723TIP3   OH274659   2.939   4.027  10.948 -0.4090 -0.6059 -0.0258
17723TIP3    H174660   2.939   4.041  10.854  0.1972  0.4618  0.1166
17723TIP3    H274661   2.957   4.114  10.985  0.1449 -1.1600  1.0441
17724TIP3   OH274662   1.394   5.872   3.899 -0.5671  0.6361  0.3513
17724TIP3    H174663   1.390   5.961   3.936 -1.4617 -0.1324  2.2213
17724TIP3    H274664   1.359   5.816   3.968  1.3804 -1.3847 -0.2126
17725TIP3   OH274665   0.523   0.519   3.975  0.0991 -0.5925 -0.0682
17725TIP3    H174666   0.495   0.520   3.883 -1.3485 -0.6522  0.3530
17725TIP3    H274667   0.507   0.607   4.007  0.7962 -0.5152  0.0785
17726TIP3   OH274668   3.388   4.020  16.594 -0.4151 -0.1736  0.2154
17726TIP3    H174669   3.402   3.998  16.502 -0.6845 -0.2008  0.1813
17726TIP3    H274670   3.293   4.010  16.607 -0.3275 -0.5427  0.5872
17727TIP3   OH274671   0.853   2.514   4.346 -0.6095  0.4589 -0.0727
17727TIP3    H174672   0.875   2.519   4.439  1.2358 -1.2308 -0.3425
17727TIP3    H274673   0.777   2.456   4.342  0.1417 -0.5793  0.3120
17728TIP3   OH274674   5.857   4.062  11.424  0.4818 -0.3358  0.2634
17728TIP3    H174675   5.871   3.998  11.493 -2.1854 -1.4527 -0.1069
17728TIP3    H274676   5.873   4.014  11.342 -1.5276 -0.6213 -0.0152
17729TIP3   OH274677   6.008   4.595   2.171 -0.1495 -0.2138  0.7796
17729TIP3    H174678   5.945   4.579   2.241  1.8345  1.0300  2.9583
17729TIP3    H274679   6.080   4.535   2.189  1.1348  1.2960  0.8198
17730TIP3   OH274680   1.053   2.442  11.610  0.4755  0.1718  0.4360
17730TIP3    H174681   1.034   2.515  11.670  0.9159 -0.6784  1.6535
17730TIP3    H274682   0.972   2.432  11.560  0.2578  1.2233  0.5391
17731TIP3   OH274683   5.418   4.058   1.248 -0.4036  0.1620 -0.0850
17731TIP3    H174684   5.467   3.991   1.202  0.0574  0.2522  0.2616
17731TIP3    H274685   5.424   4.033   1.340  1.5435  1.7474  0.3023
17732TIP3   OH274686   6.120   0.580  12.205  0.0185 -0.1422 -0.0675
17732TIP3    H174687   6.094   0.504  12.154  1.7135 -1.4533  0.9088
17732TIP3    H274688   6.203   0.555  12.246 -0.1159  1.6807  1.5004
17733TIP3   OH274689   1.759   0.059   2.891  0.1978  0.2185 -0.5329
17733TIP3    H174690   1.840   0.058   2.941  0.7399 -2.6842 -1.3095
17733TIP3    H274691   1.774   0.124   2.822  2.5286 -1.2972 -1.5719
17734TIP3   OH274692   0.456   0.808  15.431  0.3563  0.4083 -0.0321
17734TIP3    H174693   0.547   0.806  15.462  1.1651  1.3528 -2.1232
17734TIP3    H274694   0.403   0.795  15.509  2.2998 -0.7089  1.1818
17735TIP3   OH274695   0.433   6.035   5.558  0.3655 -0.0785  0.4296
17735TIP3    H174696   0.467   5.949   5.584  0.9187 -0.2797 -0.8880
17735TIP3    H274697   0.511   6.090   5.549  0.2794 -0.1841 -1.3284
17736TIP3   OH274698   1.911   3.346  12.120  0.5660 -0.3496 -0.1161
17736TIP3    H174699   1.912   3.440  12.138 -0.9647 -0.0969 -1.1386
17736TIP3    H274700   1.853   3.309  12.186  2.1513 -0.8088  1.0827
17737TIP3   OH274701   3.330   0.099   0.461  0.0098 -0.1183  0.2139
17737TIP3    H174702   3.377   0.146   0.530  0.6222 -0.2070 -0.1351
17737TIP3    H274703   3.326   0.008   0.492  0.6655 -0.2475 -0.0478
17738TIP3   OH274704   6.247   4.249   0.031 -0.4287 -0.0260 -0.6313
17738TIP3    H174705   6.326   4.270  -0.017  0.7244 -2.1754  0.1988
17738TIP3    H274706   6.278   4.210   0.113 -2.3244  2.1590  1.2862
17739TIP3   OH274707   0.894   4.900   4.981  0.0886 -0.0395 -0.4369
17739TIP3    H174708   0.879   4.934   5.069 -0.2705 -1.5292  0.1046
17739TIP3    H274709   0.982   4.931   4.958  0.0060  0.7381  0.2475
17740TIP3   OH274710   2.132   5.958   2.307 -0.1021  0.0146  0.5928
17740TIP3    H174711   2.053   5.972   2.255  0.9534  1.5500 -0.7142
17740TIP3    H274712   2.204   5.978   2.247  1.2365  0.0662  2.1461
17741TIP3   OH274713   5.571   4.781   0.472  0.0167  0.5922  0.0969
17741TIP3    H174714   5.547   4.849   0.409  0.6319  0.5340 -0.2079
17741TIP3    H274715   5.656   4.749   0.442 -0.4091 -0.5512  0.0344
17742TIP3   OH274716   1.600   4.709  15.067  0.1665 -0.0731  0.0968
17742TIP3    H174717   1.572   4.730  14.978  1.6169 -2.7026 -1.0998
17742TIP3    H274718   1.546   4.633  15.092  0.4870 -0.0013  1.0485
17743TIP3   OH274719   0.619   5.238   3.249  0.5189 -0.2701  0.4130
17743TIP3    H174720   0.608   5.232   3.154 -1.5086  0.1133  0.5749
17743TIP3    H274721   0.614   5.147   3.279 -0.2017 -0.2923  0.2517
17744TIP3   OH274722   3.097   3.177  11.183  0.2732  0.9013  0.0335
17744TIP3    H174723   3.110   3.187  11.277  0.7204  1.4270 -0.0742
17744TIP3    H274724   3.173   3.127  11.154 -0.4842 -0.3396  0.1255
17745TIP3   OH274725   4.440   2.139  15.317 -0.2550 -0.1820  0.1571
17745TIP3    H174726   4.420   2.178  15.232 -1.2931  0.8697  0.8561
17745TIP3    H274727   4.509   2.075  15.298  0.2150  0.7121 -1.3140
17746TIP3   OH274728   3.903   1.433   0.633  0.1935 -0.0617  0.1432
17746TIP3    H174729   3.939   1.390   0.556  0.1672 -0.2737  0.2483
17746TIP3    H274730   3.958   1.510   0.646  0.8900 -0.6245  0.5681
17747TIP3   OH274731   2.237   2.382  14.122  0.2894  0.0548  0.6229
17747TIP3    H174732   2.288   2.462  14.111 -0.5822  0.4846 -0.5295
17747TIP3    H274733   2.172   2.405  14.189  2.3402 -0.9120  3.1029
17748TIP3   OH274734   5.674   3.334  15.891  0.3365  0.7804 -0.1698
17748TIP3    H174735   5.766   3.331  15.862  0.1950 -0.2886 -0.5668
17748TIP3    H274736   5.628   3.377  15.818  0.1917 -0.7076 -1.0008
17749TIP3   OH274737   5.891   5.895   4.850 -0.1051  0.0058  0.5684
17749TIP3    H174738   5.956   5.825   4.841 -1.2316 -1.1776  1.2779
17749TIP3    H274739   5.812   5.859   4.810 -1.4747 -0.2731  3.2949
17750TIP3   OH274740   0.273   2.525  10.739  0.0997  0.0508  0.7802
17750TIP3    H174741   0.332   2.580  10.687 -0.1452  1.2316  1.7049
17750TIP3    H274742   0.240   2.460  10.678 -0.6470  1.7507 -0.7056
17751TIP3   OH274743   2.951   4.827  14.588  0.2316  0.1803 -0.0864
17751TIP3    H174744   2.915   4.786  14.509  0.4642 -1.0375  0.4277
17751TIP3    H274745   3.022   4.882  14.556 -0.9827  1.3274 -0.9388
17752TIP3   OH274746   0.118   5.353  15.947 -0.5413 -0.3419 -0.5978
17752TIP3    H174747   0.098   5.382  15.858  0.6135 -2.5452 -1.6551
17752TIP3    H274748   0.033   5.335  15.986 -1.0530  0.4984 -1.2972
17753TIP3   OH274749   2.107   0.675   4.578  0.6015 -0.1247  0.3953
17753TIP3    H174750   2.084   0.606   4.639  2.0879 -0.4423  0.6519
17753TIP3    H274751   2.044   0.667   4.506 -1.0135  0.0906  1.7305
17754TIP3   OH274752   6.649   0.501  15.323  0.2620  0.0170  0.6580
17754TIP3    H174753   6.669   0.431  15.385  2.8746  0.3474  0.2968
17754TIP3    H274754   6.734   0.537  15.299 -0.7483  0.9246 -1.9596
17755TIP3   OH274755   1.112   2.916  14.695  0.5502 -0.0539 -0.2484
17755TIP3    H174756   1.141   3.001  14.729  1.6017 -0.3790 -0.3094
17755TIP3    H274757   1.126   2.923  14.601  0.4927 -0.2461 -0.2707
17756TIP3   OH274758   0.666   4.536   2.371 -0.1680 -0.1932  0.4357
17756TIP3    H174759   0.664   4.621   2.326 -2.2533 -0.1771  0.4418
17756TIP3    H274760   0.623   4.553   2.455  0.8913 -0.9063  1.1365
17757TIP3   OH274761   3.970   2.450   4.389 -0.1624  0.0243 -0.0026
17757TIP3    H174762   4.032   2.436   4.318 -1.3156  2.9354 -1.7866
17757TIP3    H274763   4.021   2.497   4.456  0.1551  0.1331 -0.3198
17758TIP3   OH274764   0.868   2.133   5.713 -0.5839 -0.3989  0.8630
17758TIP3    H174765   0.935   2.093   5.768 -0.6426  1.2318  2.2278
17758TIP3    H274766   0.892   2.109   5.623  2.1189  0.4876  1.2599
17759TIP3   OH274767   5.330   4.114   4.158 -0.2903  0.2816  0.2796
17759TIP3    H174768   5.328   4.197   4.204 -0.2676 -0.2704  1.3132
17759TIP3    H274769   5.318   4.137   4.066  0.8852  1.5088  0.4120
17760TIP3   OH274770   6.270   0.959  13.621 -0.1457  0.3420  0.5500
17760TIP3    H174771   6.277   0.879  13.673 -0.2655 -0.1634 -0.1929
17760TIP3    H274772   6.336   0.949  13.552 -0.2616  0.8142  0.3633
17761TIP3   OH274773   1.801   2.741   0.300  0.1824 -0.3093 -0.3572
17761TIP3    H174774   1.735   2.804   0.327  1.4278  0.1837  1.7640
17761TIP3    H274775   1.775   2.716   0.211 -2.6396  0.0718  0.2590
17762TIP3   OH274776   2.243   2.603  11.449 -0.1854 -0.2188  0.5700
17762TIP3    H174777   2.253   2.653  11.368  1.6852 -1.4669 -0.0323
17762TIP3    H274778   2.332   2.577  11.472 -0.6665  0.1285  3.0852
17763TIP3   OH274779   2.427   5.355  11.801 -0.2009  0.2677  0.7301
17763TIP3    H174780   2.333   5.361  11.817 -0.2772  0.1896  0.3046
17763TIP3    H274781   2.464   5.426  11.854 -1.0320  4.3066 -3.4619
17764TIP3   OH274782   3.103   2.986  16.076  0.2655  0.3730  0.1202
17764TIP3    H174783   3.106   3.076  16.043  0.3256  0.7159  1.0469
17764TIP3    H274784   3.017   2.978  16.117  0.2153 -0.0286 -0.0548
17765TIP3   OH274785   5.577   1.120  11.255  0.4840  0.1515  0.1161
17765TIP3    H174786   5.621   1.146  11.174 -0.9421  0.2885 -0.6524
17765TIP3    H274787   5.526   1.197  11.280  0.0322 -0.2756  0.5255
17766TIP3   OH274788   3.367   1.276   3.695 -0.2550 -0.0507  0.4407
17766TIP3    H174789   3.462   1.266   3.693 -0.2742 -2.0797  3.3154
17766TIP3    H274790   3.352   1.358   3.743  0.0892 -0.3075  1.0040
17767TIP3   OH274791   6.787   5.756  11.538 -0.0449 -0.3324 -0.5099
17767TIP3    H174792   6.733   5.808  11.479  1.4626  0.8833 -0.8829
17767TIP3    H274793   6.775   5.798  11.624 -2.1146 -2.0044  0.1084
17768TIP3   OH274794   6.114   2.411   1.337  0.1092 -0.1904 -0.1536
17768TIP3    H174795   6.089   2.380   1.249  2.5985  0.7813 -1.2962
17768TIP3    H274796   6.128   2.332   1.387 -1.4348 -0.7695 -0.5782
17769TIP3   OH274797   4.584   5.145   1.723 -0.5687 -0.4333  0.1159
17769TIP3    H174798   4.612   5.198   1.648  0.5894 -1.3197 -0.1010
17769TIP3    H274799   4.583   5.055   1.690  1.1878 -0.9981  1.4811
17770TIP3   OH274800   2.899   0.118  15.542 -0.4444  0.2973 -0.4645
17770TIP3    H174801   2.899   0.165  15.626  1.0336  0.3208 -0.4435
17770TIP3    H274802   2.891   0.186  15.476 -1.5486  0.2844 -0.3642
17771TIP3   OH274803   1.231   3.762   3.231 -0.3762  0.8097 -0.0430
17771TIP3    H174804   1.174   3.703   3.281  0.6104 -0.2584 -0.1544
17771TIP3    H274805   1.311   3.768   3.282  1.0965 -1.1769 -1.9255
17772TIP3   OH274806   4.327   3.185   3.444  0.4666  0.2397 -0.0951
17772TIP3    H174807   4.308   3.091   3.438  0.8114  0.1795 -0.2490
17772TIP3    H274808   4.305   3.219   3.357  0.2090  0.3272  0.0033
17773TIP3   OH274809   5.097   5.302  14.984  0.2755 -0.4049  0.1874
17773TIP3    H174810   5.101   5.219  14.937  1.3213  0.5270 -1.4873
17773TIP3    H274811   5.176   5.349  14.957 -0.7637  1.5221  0.2898
17774TIP3   OH274812   6.586   3.245   4.381 -0.1934 -0.1375 -0.1559
17774TIP3    H174813   6.598   3.196   4.299  1.2750 -0.0339 -0.0309
17774TIP3    H274814   6.619   3.187   4.449 -0.6418  0.1104  0.2831
17775TIP3   OH274815   3.791   2.001   5.169 -0.5020  0.2299 -0.4876
17775TIP3    H174816   3.781   2.089   5.133  1.0652 -0.3174 -2.4467
17775TIP3    H274817   3.702   1.969   5.181 -1.1169  2.3119  0.9503
17776TIP3   OH274818   5.318   1.425   3.015  0.0538  0.1895 -0.2006
17776TIP3    H174819   5.232   1.467   3.012 -0.1529 -0.2722 -1.0005
17776TIP3    H274820   5.377   1.487   2.971  0.2274  0.6844  0.6910
17777TIP3   OH274821   1.960   1.767   0.465  0.0339 -0.6643  0.7470
17777TIP3    H174822   1.898   1.734   0.400  1.1052 -0.8523 -0.2116
17777TIP3    H274823   1.937   1.720   0.545 -0.0965 -1.8897  0.0262
17778TIP3   OH274824   2.649   0.700   0.177 -0.1088  0.0347 -0.4350
17778TIP3    H174825   2.573   0.755   0.197  0.0305  0.1264 -0.1453
17778TIP3    H274826   2.690   0.685   0.263 -0.5258 -1.0782 -0.4148
17779TIP3   OH274827   2.906   1.789   5.436  0.3898  0.7773  0.1796
17779TIP3    H174828   2.989   1.812   5.394  0.3024  0.6524 -0.0588
17779TIP3    H274829   2.916   1.698   5.463  0.0978  0.5645 -0.4163
17780TIP3   OH274830   2.229   6.568  16.621  0.3197 -0.7420 -0.2840
17780TIP3    H174831   2.241   6.660  16.646  0.0721 -0.0754 -2.4014
17780TIP3    H274832   2.261   6.564  16.531  0.9487 -2.9091 -0.0294
17781TIP3   OH274833   6.634   2.239   4.684 -0.2544 -0.0017  0.7559
17781TIP3    H174834   6.576   2.195   4.622 -1.1466  1.3753  0.5678
17781TIP3    H274835   6.607   2.204   4.770  0.0879 -0.9170  0.5104
17782TIP3   OH274836   4.680   1.871   5.042  0.2468  0.0201 -0.4087
17782TIP3    H174837   4.638   1.926   4.976 -0.4042  0.0858  0.0559
17782TIP3    H274838   4.741   1.816   4.992  0.2578  0.5429 -0.9794
17783TIP3   OH274839   1.987   2.572   3.817 -0.0502  0.4148  0.1535
17783TIP3    H174840   1.960   2.658   3.783 -2.0443 -0.2438 -0.0427
17783TIP3    H274841   1.961   2.510   3.749  2.4351 -0.3016 -0.2360
17784TIP3   OH274842   6.369   1.874   3.975  0.6320  0.3857  0.0319
17784TIP3    H174843   6.301   1.811   3.952  0.3968  0.6314  0.0661
17784TIP3    H274844   6.449   1.837   3.936 -0.1256  2.0407 -3.3957
17785TIP3   OH274845   3.568   0.279  11.959  0.1193  0.0913 -0.5993
17785TIP3    H174846   3.538   0.263  12.048 -1.0748 -0.4331 -1.0842
17785TIP3    H274847   3.569   0.374  11.951  0.8905  0.1634  0.1741
17786TIP3   OH274848   6.481   1.523   2.142 -0.2291  0.2989  0.1782
17786TIP3    H174849   6.532   1.444   2.160 -0.4951  0.1805  0.4353
17786TIP3    H274850   6.418   1.527   2.214 -0.2181  0.7450  0.1656
17787TIP3   OH274851   2.085   6.467   3.234 -0.2231 -0.3294  0.9298
17787TIP3    H174852   2.036   6.466   3.316  2.0781 -1.1745  2.3970
17787TIP3    H274853   2.070   6.554   3.197  0.2148  0.8015  3.2576
17788TIP3   OH274854   6.116   1.725   0.539 -1.2504 -0.0165 -0.2754
17788TIP3    H174855   6.119   1.657   0.606 -0.4653  0.5148  0.2519
17788TIP3    H274856   6.060   1.689   0.470 -0.8563 -1.1820 -0.0057
17789TIP3   OH274857   4.864   2.413  11.568  0.5577  0.2198  0.3789
17789TIP3    H174858   4.946   2.450  11.601  0.6341  0.9886 -0.6044
17789TIP3    H274859   4.858   2.446  11.478 -0.4645 -0.4311  0.1943
17790TIP3   OH274860   3.947   3.905   1.024 -0.2218 -0.1494 -0.2888
17790TIP3    H174861   3.861   3.934   1.055 -1.0377 -0.3437 -2.1742
17790TIP3    H274862   3.941   3.915   0.929  2.4153  1.3157 -0.3765
17791TIP3   OH274863   1.542   4.785  16.820  0.1866 -0.1660  0.2706
17791TIP3    H174864   1.551   4.742  16.734 -2.2474 -0.5261  0.1301
17791TIP3    H274865   1.550   4.878  16.800 -0.4994 -0.2361 -0.3789
17792TIP3   OH274866   0.024   2.542   1.120  0.4826  0.2453 -0.7139
17792TIP3    H174867   0.087   2.558   1.049  1.4150 -0.4888 -0.0781
17792TIP3    H274868   0.066   2.476   1.175 -0.4723  0.3822  0.2152
17793TIP3   OH274869   2.116   6.655   1.238 -0.2581  0.1350  0.3518
17793TIP3    H174870   2.203   6.669   1.276  0.3609  0.7005 -1.1696
17793TIP3    H274871   2.062   6.626   1.311  1.5930 -1.8534  1.0497
17794TIP3   OH274872   1.203   1.744  16.806  0.3489  0.1532  0.0884
17794TIP3    H174873   1.164   1.774  16.888 -0.7447 -2.0351  0.4625
17794TIP3    H274874   1.261   1.672  16.833  1.1470  0.3881 -0.9353
17795TIP3   OH274875   3.527   6.612  14.877 -0.1033 -0.4188  0.2065
17795TIP3    H174876   3.505   6.677  14.811  1.1119 -1.4113 -1.2641
17795TIP3    H274877   3.558   6.663  14.952 -1.5835  0.7370  0.0802
17796TIP3   OH274878   0.803   3.254   4.003  0.0820 -0.0160  0.0003
17796TIP3    H174879   0.750   3.246   4.082  1.0037  0.9553  0.7388
17796TIP3    H274880   0.861   3.179   4.005  0.2109  0.0933  0.3273
17797TIP3   OH274881   0.076   2.581   2.205 -0.0667  0.1244  0.5481
17797TIP3    H174882   0.064   2.599   2.298 -0.2959  1.8062  0.2381
17797TIP3    H274883   0.136   2.508   2.202  1.0657  0.9390  2.0202
17798TIP3   OH274884   2.443   2.131  13.754 -0.4814  0.1099 -0.3202
17798TIP3    H174885   2.433   2.057  13.814  0.7039  0.0793 -0.1475
17798TIP3    H274886   2.413   2.207  13.804 -2.1270 -0.2882 -0.6455
17799TIP3   OH274887   1.144   2.614  14.047  0.3298 -0.1485  0.2183
17799TIP3    H174888   1.150   2.710  14.041 -1.0086 -0.0265  0.5377
17799TIP3    H274889   1.223   2.589  14.096  0.9541  0.7246 -0.2935
17800TIP3   OH274890   6.287   1.392   1.796  0.3184  0.1910 -0.1787
17800TIP3    H174891   6.221   1.417   1.730 -1.0673 -0.0582  1.0659
17800TIP3    H274892   6.300   1.299   1.781 -0.4209  0.0122  0.2503
17801TIP3   OH274893   0.392   1.467   2.279  0.3142 -0.5108 -0.6324
17801TIP3    H174894   0.338   1.546   2.278 -0.0732 -0.7692 -0.9636
17801TIP3    H274895   0.421   1.457   2.188  1.3105 -0.1205 -0.3658
17802TIP3   OH274896   5.962   2.122  13.669 -0.4729  0.2674 -0.3302
17802TIP3    H174897   5.991   2.144  13.757  0.4900 -1.3176 -0.1948
17802TIP3    H274898   5.890   2.060  13.682 -0.4355  0.1506 -0.6608
17803TIP3   OH274899   4.856   4.322  13.268 -0.1636  0.4672  0.5625
17803TIP3    H174900   4.861   4.227  13.268 -2.9937  0.2161 -0.8610
17803TIP3    H274901   4.945   4.351  13.291  1.4952 -2.4580 -1.5703
17804TIP3   OH274902   5.430   1.005  15.795  0.4504 -0.3680 -0.1061
17804TIP3    H174903   5.505   0.954  15.826 -1.2049 -1.9737  1.4939
17804TIP3    H274904   5.425   1.079  15.856 -2.1523 -2.9509  3.2504
17805TIP3   OH274905   0.001   0.066   5.235  0.4241 -0.1824  0.4271
17805TIP3    H174906   0.021   0.003   5.304  1.6528 -1.0713 -0.6836
17805TIP3    H274907   0.084   0.076   5.187 -0.6881 -0.5958 -1.6858
17806TIP3   OH274908   6.568   2.169  14.841 -0.4229  0.6989 -0.4825
17806TIP3    H174909   6.517   2.178  14.921  0.5024  0.4945  0.1429
17806TIP3    H274910   6.535   2.238  14.784 -3.1777 -0.9806 -1.1116
17807TIP3   OH274911   0.392   3.503  11.416 -0.6266 -0.5499 -0.5408
17807TIP3    H174912   0.467   3.502  11.357 -0.0893 -1.4314  0.1305
17807TIP3    H274913   0.415   3.568  11.482  0.8689 -2.7705  1.2596
17808TIP3   OH274914   4.951   5.988  14.847 -0.0140  0.0101  0.4894
17808TIP3    H174915   4.977   6.059  14.906  0.1247  0.8482 -0.5622
17808TIP3    H274916   4.860   5.970  14.870 -0.1327  0.7151  0.5860
17809TIP3   OH274917   6.131   1.466  12.875  0.2367  0.2033  0.2341
17809TIP3    H174918   6.093   1.380  12.855  1.1844 -0.8635  2.6311
17809TIP3    H274919   6.171   1.495  12.793 -0.6732 -1.3230 -0.7933
17810TIP3   OH274920   1.692   6.404  11.013  0.3027  0.3854 -0.5976
17810TIP3    H174921   1.782   6.372  11.014  0.0041 -0.5220  0.5243
17810TIP3    H274922   1.654   6.365  10.934  1.0344  1.2617 -1.4073
17811TIP3   OH274923   1.512   4.730  11.396 -0.0784 -0.0450 -0.9188
17811TIP3    H174924   1.480   4.642  11.413  0.5032 -0.0944  0.0183
17811TIP3    H274925   1.524   4.734  11.301 -2.3977 -0.1489 -1.2661
17812TIP3   OH274926   5.054   4.526  16.377 -0.0171  0.4501 -0.0154
17812TIP3    H174927   5.106   4.447  16.358 -0.5995  0.3819 -1.4490
17812TIP3    H274928   5.119   4.592  16.399  0.5566 -0.1379  0.1135
17813TIP3   OH274929   4.553   3.880  16.151 -0.4072  0.1623 -0.4097
17813TIP3    H174930   4.612   3.913  16.219  1.7049 -0.7800 -1.6782
17813TIP3    H274931   4.611   3.845  16.084 -2.3810 -3.1991 -0.6074
17814TIP3   OH274932   4.219   5.502  16.232  0.1760  0.2212  0.2452
17814TIP3    H174933   4.264   5.422  16.261 -1.1222 -0.7437 -0.3148
17814TIP3    H274934   4.131   5.495  16.268 -0.2207  0.9923 -0.5348
17815TIP3   OH274935   6.340   2.494   0.877  0.7476 -0.4205  0.1325
17815TIP3    H174936   6.406   2.554   0.910  0.2555 -0.1843  0.7104
17815TIP3    H274937   6.263   2.509   0.933  0.5299 -1.3910  0.1183
17816TIP3   OH274938   3.809   0.766   5.934  0.3407 -0.5082 -0.3591
17816TIP3    H174939   3.864   0.697   5.972 -0.5304  0.3591  2.6907
17816TIP3    H274940   3.737   0.776   5.995 -0.6285  1.7577 -1.7500
17817TIP3   OH274941   6.000   0.671  12.459  0.3722 -0.1893 -0.1115
17817TIP3    H174942   6.056   0.662  12.382  0.7254 -1.3764  0.2592
17817TIP3    H274943   5.917   0.702  12.425  0.5033 -0.7614 -0.9788
17818TIP3   OH274944   5.206   5.683  15.772 -0.1117 -0.4537  0.1765
17818TIP3    H174945   5.181   5.775  15.761 -0.6867 -0.5040  0.9683
17818TIP3    H274946   5.129   5.635  15.742 -0.0035 -0.6727  0.2540
17819TIP3   OH274947   0.926   2.503   4.609 -0.6962 -0.3501 -0.7120
17819TIP3    H174948   1.010   2.533   4.645 -0.8951 -0.1467 -0.4076
17819TIP3    H274949   0.934   2.408   4.605 -0.1470 -0.2747 -1.4603
17820TIP3   OH274950   3.049   1.542   5.745 -0.5255 -0.2199 -0.2611
17820TIP3    H174951   3.142   1.527   5.730  0.0520  1.0700  1.6370
17820TIP3    H274952   3.016   1.458   5.775  0.6336 -0.0980  1.5084
17821TIP3   OH274953   3.649   4.389  14.823 -0.2167 -0.0575 -0.1146
17821TIP3    H174954   3.716   4.333  14.785 -1.1198 -0.5879 -0.9699
17821TIP3    H274955   3.594   4.414  14.749 -1.4482 -0.3156  0.6895
17822TIP3   OH274956   3.049   1.731   5.945 -0.6058  0.3693 -0.2878
17822TIP3    H174957   3.030   1.682   5.865 -1.0790 -0.5222  0.3451
17822TIP3    H274958   2.968   1.778   5.964 -0.6081  0.3123 -0.1552
17823TIP3   OH274959   1.805   3.205   2.988 -0.1310  0.1887  0.2017
17823TIP3    H174960   1.805   3.243   2.900 -1.6687  2.6600  1.1837
17823TIP3    H274961   1.726   3.150   2.990 -0.2515  0.3573  0.1228
17824TIP3   OH274962   4.272   0.515   0.673  0.0170  0.4811  0.0405
17824TIP3    H174963   4.284   0.439   0.729 -0.5330 -1.7511 -2.6605
17824TIP3    H274964   4.178   0.525   0.666  0.0521  0.2103 -1.0534
17825TIP3   OH274965   5.319   0.453  14.353 -0.1318  0.0687  0.2070
17825TIP3    H174966   5.233   0.413  14.337 -1.8797  2.6746  2.1934
17825TIP3    H274967   5.368   0.385  14.400 -1.2299 -1.3440 -0.6141
17826TIP3   OH274968   2.595   2.891   4.377  0.0248 -0.2700 -0.0900
17826TIP3    H174969   2.675   2.929   4.341 -0.2414  0.1207 -0.2794
17826TIP3    H274970   2.575   2.945   4.454 -0.7592  0.4621 -0.7815
17827TIP3   OH274971   3.767   3.359  15.025  0.0237  0.2374 -0.2349
17827TIP3    H174972   3.741   3.415  15.098 -1.8439 -1.8147  0.7976
17827TIP3    H274973   3.685   3.318  14.996  1.0947 -0.8849 -1.8544
17828TIP3   OH274974   0.604   3.959   1.669  0.0096 -0.0017 -0.1010
17828TIP3    H174975   0.628   3.992   1.582  0.7250  0.8674  0.4105
17828TIP3    H274976   0.509   3.968   1.672 -0.1038 -0.6704 -1.0375
17829TIP3   OH274977   5.059   0.862  14.824  0.6195  0.0356 -0.2564
17829TIP3    H174978   5.105   0.872  14.908  1.0038  1.7557 -0.6296
17829TIP3    H274979   5.045   0.768  14.815  0.7459 -0.2005  1.6452
17830TIP3   OH274980   6.375   1.197  14.173 -0.0224  0.4442  0.1103
17830TIP3    H174981   6.359   1.148  14.253 -0.9854  0.6105  0.0353
17830TIP3    H274982   6.469   1.210  14.171  0.3615 -1.8455 -0.1284
17831TIP3   OH274983   6.393   5.251   0.424 -0.2558 -0.2233  0.1558
17831TIP3    H174984   6.394   5.328   0.368 -0.7897 -1.2177 -1.2885
17831TIP3    H274985   6.412   5.284   0.511 -0.6426  1.5566 -0.3976
17832TIP3   OH274986   0.228   0.782  12.490 -0.2330  0.5225  0.4366
17832TIP3    H174987   0.242   0.834  12.570 -1.0815  0.5914  0.5499
17832TIP3    H274988   0.191   0.699  12.522 -0.3071  0.4397  0.1350
17833TIP3   OH274989   4.293   5.261   3.366  0.5296 -0.2687  0.1848
17833TIP3    H174990   4.241   5.332   3.330 -0.4505  0.5628  2.9481
17833TIP3    H274991   4.384   5.291   3.358  0.3992 -0.3279 -1.8389
17834TIP3   OH274992   6.045   6.163  11.365 -0.5224 -0.0104 -0.0357
17834TIP3    H174993   6.039   6.250  11.328  1.3862 -0.3589 -1.3092
17834TIP3    H274994   5.988   6.109  11.311 -1.2605  0.3301  0.3965
17835TIP3   OH274995   6.720   1.599   0.447  0.0019  0.5915  0.6832
17835TIP3    H174996   6.722   1.664   0.377 -0.7757  0.4627  0.5349
17835TIP3    H274997   6.795   1.542   0.429 -0.1347  0.6167  0.0139
17836TIP3   OH274998   3.689   0.918  17.095 -0.4771 -0.2619  0.3343
17836TIP3    H174999   3.710   1.009  17.117 -0.6739 -0.1568  0.0852
17836TIP3    H275000   3.693   0.914  17.000  2.1009 -1.1335  0.4165
17837TIP3   OH275001   1.077   0.947  11.423 -0.0399 -0.1281  0.8890
17837TIP3    H175002   0.991   0.906  11.421 -0.6667  1.1429  0.8405
17837TIP3    H275003   1.096   0.960  11.516 -0.1251  0.0555  0.8802
17838TIP3   OH275004   1.883   1.950   4.536  0.0580  0.3402 -0.6127
17838TIP3    H175005   1.848   1.958   4.625  1.4687 -0.9020  0.0951
17838TIP3    H275006   1.855   1.863   4.507  0.3914  0.3614 -1.0141
17839TIP3   OH275007   5.982   1.091  13.376  0.5127 -0.2711  0.5966
17839TIP3    H175008   5.996   1.151  13.303  0.1325  0.9948  1.5334
17839TIP3    H275009   5.958   1.147  13.450 -1.0116 -1.6433  1.2161
17840TIP3   OH275010   3.652   4.985   3.714  0.3817 -1.0043 -0.3071
17840TIP3    H175011   3.604   5.060   3.750  3.2947  1.1825 -0.5721
17840TIP3    H275012   3.594   4.911   3.726 -2.6592  1.2613  0.0937
17841TIP3   OH275013   3.848   5.686  13.973  0.3678 -0.5315  0.1999
17841TIP3    H175014   3.812   5.658  13.889 -2.5237 -1.4621  1.6036
17841TIP3    H275015   3.864   5.605  14.021 -0.0279  0.0061  1.2774
17842TIP3   OH275016   1.380   6.743   5.352  0.1268 -0.1442 -0.1372
17842TIP3    H175017   1.374   6.828   5.309  0.6681 -0.2210 -0.3759
17842TIP3    H275018   1.474   6.724   5.354 -0.0657 -1.5934 -1.7997
17843TIP3   OH275019   4.746   5.571  13.245  0.1907  0.1961 -0.3457
17843TIP3    H175020   4.677   5.637  13.249  1.4508  1.5846 -0.5265
17843TIP3    H275021   4.790   5.578  13.330  1.8692  1.3778 -1.2541
17844TIP3   OH275022   2.959   3.420  15.696 -0.1866 -0.1524  0.2618
17844TIP3    H175023   3.029   3.452  15.753  0.3517 -4.0295  2.1164
17844TIP3    H275024   2.961   3.478  15.620  0.9742  3.5828  2.8433
17845TIP3   OH275025   1.769   6.754  14.305  0.0970  0.4025 -0.2174
17845TIP3    H175026   1.743   6.677  14.255  0.3689 -0.5669  1.0837
17845TIP3    H275027   1.817   6.809  14.242  0.8932 -1.0177 -0.9032
17846TIP3   OH275028   1.002   3.492   2.535 -0.0463 -0.2259 -0.1597
17846TIP3    H175029   0.936   3.424   2.521  1.0803 -0.7531 -4.1602
17846TIP3    H275030   0.955   3.574   2.518 -0.1789 -0.4536 -0.9406
17847TIP3   OH275031   6.626   6.058  17.232  0.3675 -0.2665  0.4384
17847TIP3    H175032   6.637   6.114  17.309  1.0349  1.5334 -0.8905
17847TIP3    H275033   6.694   5.992  17.241  0.9330  0.3694  1.0364
17848TIP3   OH275034   5.813   2.520  14.147  0.1583 -0.2849  0.7702
17848TIP3    H175035   5.740   2.542  14.204  0.0836 -0.4887  0.7571
17848TIP3    H275036   5.772   2.503  14.062 -0.1225 -2.8726  1.3332
17849TIP3   OH275037   3.956   0.293  14.618  0.3171  0.0994  0.3911
17849TIP3    H175038   3.945   0.201  14.594  0.9082  0.0072  0.4665
17849TIP3    H275039   4.049   0.311  14.603  0.0604  0.8952 -0.3393
17850TIP3   OH275040   6.358   4.393   5.518  0.4297 -0.0355 -0.3759
17850TIP3    H175041   6.287   4.454   5.499  0.7559  0.3881 -0.2645
17850TIP3    H275042   6.320   4.330   5.579  0.3813  0.6939  0.3676
17851TIP3   OH275043   6.703   6.181  12.502 -0.8568  0.1186 -0.2597
17851TIP3    H175044   6.616   6.190  12.542 -1.5754  0.2705 -1.8080
17851TIP3    H275045   6.688   6.188  12.408  0.8517  0.2191 -0.5664
17852TIP3   OH275046   4.165   3.977  14.744  0.3883 -0.1842 -0.0322
17852TIP3    H175047   4.091   3.918  14.729 -0.1064  0.8394 -1.8035
17852TIP3    H275048   4.233   3.920  14.780 -1.5578 -0.9584  2.7645
17853TIP3   OH275049   4.906   1.322   5.133 -0.0479 -0.4970  0.1994
17853TIP3    H175050   4.964   1.249   5.156  0.6597 -0.7645 -2.1102
17853TIP3    H275051   4.960   1.400   5.145  0.5316 -0.6800 -1.0633
17854TIP3   OH275052   3.738   1.229   2.897  0.1382  0.2668  0.0649
17854TIP3    H175053   3.705   1.175   2.969  1.2599  0.7036  0.9389
17854TIP3    H275054   3.805   1.174   2.856  0.2162  0.4133 -0.0032
17855TIP3   OH275055   2.444   2.737  13.083 -0.6074 -0.1274  0.5979
17855TIP3    H175056   2.538   2.722  13.087 -0.6021 -0.9849 -1.5671
17855TIP3    H275057   2.417   2.745  13.175  1.5505  0.1259  1.2555
17856TIP3   OH275058   3.007   1.900  12.536 -0.0423 -0.3850  0.5137
17856TIP3    H175059   2.919   1.902  12.576 -0.4854  0.4102 -0.4685
17856TIP3    H275060   3.064   1.940  12.602 -0.9273  1.8300  0.0385
17857TIP3   OH275061   3.354   1.485  17.026  0.5432 -0.2822 -0.2368
17857TIP3    H175062   3.374   1.418  16.960  0.1742  0.2609 -0.9129
17857TIP3    H275063   3.416   1.468  17.097  0.2886 -1.4932 -0.2843
17858TIP3   OH275064   4.581   4.987  15.487 -0.1115 -0.0545  0.4380
17858TIP3    H175065   4.583   5.011  15.580  2.1928  0.5057  0.3102
17858TIP3    H275066   4.559   5.068  15.441  1.2635  0.3052  0.3785
17859TIP3   OH275067   3.798   4.540  14.544 -0.2809 -0.6244 -0.4305
17859TIP3    H175068   3.886   4.576  14.556 -0.4801 -0.0442 -0.6810
17859TIP3    H275069   3.809   4.475  14.474  0.1042 -1.1732  0.1171
17860TIP3   OH275070   0.434   2.640  14.583  0.0409 -0.4146 -0.4127
17860TIP3    H175071   0.469   2.576  14.645  0.5998 -1.0224 -1.3314
17860TIP3    H275072   0.385   2.588  14.520  1.2103 -0.0681 -1.6620
17861TIP3   OH275073   0.561   0.784   4.762 -0.7184  0.0942 -0.1262
17861TIP3    H175074   0.635   0.832   4.724 -0.3943  0.4994  0.9748
17861TIP3    H275075   0.537   0.720   4.696 -0.3812  0.9935 -1.1414
17862TIP3   OH275076   2.400   4.299  11.488  0.4174 -0.5395 -0.5204
17862TIP3    H175077   2.445   4.325  11.568 -1.1143 -0.3930  0.3430
17862TIP3    H275078   2.315   4.343  11.493 -0.3274 -1.8054 -1.4392
17863TIP3   OH275079   5.866   1.465   2.475 -0.1455  0.4112  0.4866
17863TIP3    H175080   5.811   1.447   2.551 -0.5673  0.1663  0.1277
17863TIP3    H275081   5.953   1.433   2.501 -0.2212  0.5928  0.9701
17864TIP3   OH275082   0.545   0.153  14.374  0.1650  0.2974  0.7752
17864TIP3    H175083   0.456   0.166  14.408 -0.3972 -0.7534 -0.2031
17864TIP3    H275084   0.568   0.237  14.335 -2.4197 -0.6303 -3.3470
17865TIP3   OH275085   4.861   2.570   0.987 -0.2943  0.0182 -0.0228
17865TIP3    H175086   4.889   2.486   0.950  1.7265 -0.1550  1.7230
17865TIP3    H275087   4.923   2.633   0.952 -2.2580  1.0384 -1.9484
17866TIP3   OH275088   1.566   3.237  14.894  0.3745  0.3120  0.3384
17866TIP3    H175089   1.509   3.295  14.946  0.3544  0.4922  0.1152
17866TIP3    H275090   1.647   3.287  14.884 -0.4871  1.3805 -1.9750
17867TIP3   OH275091   6.387   3.727  11.716 -0.2207 -0.4304  0.2108
17867TIP3    H175092   6.390   3.631  11.716 -0.1218 -0.4274  0.2369
17867TIP3    H275093   6.451   3.752  11.649  0.3882 -0.3611  0.8092
17868TIP3   OH275094   5.160   2.451  16.335  0.1608 -0.3654  0.0077
17868TIP3    H175095   5.117   2.368  16.357 -1.6542 -0.0788 -2.0471
17868TIP3    H275096   5.201   2.434  16.250 -2.4181  1.4431 -1.7321
17869TIP3   OH275097   0.592   5.996  16.170  0.1122  0.0704  0.1811
17869TIP3    H175098   0.518   6.057  16.178 -1.7036 -2.0266  0.4021
17869TIP3    H275099   0.592   5.947  16.252 -0.3224 -2.0998 -1.0284
17870TIP3   OH275100   3.819   6.337   0.973 -0.3563  0.2824  0.0462
17870TIP3    H175101   3.757   6.341   1.045 -1.5806  0.4631 -0.9745
17870TIP3    H275102   3.767   6.357   0.895  0.5214 -1.6187 -1.1144
17871TIP3   OH275103   1.103   2.512   0.024 -0.4336  0.2497 -0.5780
17871TIP3    H175104   1.154   2.473   0.095 -1.3486 -2.4682 -1.2991
17871TIP3    H275105   1.113   2.452  -0.049 -3.3082  0.4239 -1.2571
17872TIP3   OH275106   6.074   1.971   0.806  0.3595  0.8339 -0.2822
17872TIP3    H175107   6.157   2.017   0.819  1.4440 -1.4236  1.5172
17872TIP3    H275108   6.099   1.879   0.793 -1.8483 -0.3946  2.8614
17873TIP3   OH275109   5.010   6.073   4.310  0.2423  0.4321 -0.3653
17873TIP3    H175110   5.053   6.148   4.268  1.9179  0.2613  0.9226
17873TIP3    H275111   4.996   6.100   4.400 -1.3459  0.0273 -0.4579
17874TIP3   OH275112   3.482   0.685   3.060 -0.2141  0.4392 -0.2019
17874TIP3    H175113   3.567   0.712   3.025  0.4575 -0.1254  0.9200
17874TIP3    H275114   3.418   0.740   3.015  0.6570  0.2799 -1.7193
17875TIP3   OH275115   6.478   6.039  15.999 -0.1578  0.4046  0.0632
17875TIP3    H175116   6.419   6.105  15.961 -0.4882  0.4955  0.7293
17875TIP3    H275117   6.432   6.007  16.076  0.4176  0.0599  0.2678
17876TIP3   OH275118   1.008   4.234  11.051 -0.0605  0.5434 -0.0174
17876TIP3    H175119   0.964   4.163  11.098  0.8100 -0.4151 -0.6135
17876TIP3    H275120   1.097   4.234  11.086  1.1730 -1.3757 -2.8151
17877TIP3   OH275121   1.798   3.624  13.537 -0.6926 -0.2679 -0.0778
17877TIP3    H175122   1.796   3.720  13.542 -2.3469 -0.2580 -0.2736
17877TIP3    H275123   1.890   3.601  13.549 -0.5243  1.2393  2.1646
17878TIP3   OH275124   4.952   6.706   5.198 -0.4663 -0.2417 -0.4501
17878TIP3    H175125   5.026   6.717   5.138 -0.4833  1.5003 -0.2159
17878TIP3    H275126   4.877   6.742   5.151 -0.3144  1.9647  0.8733
17879TIP3   OH275127   4.011   5.238   4.513  0.2899 -0.1543 -0.2494
17879TIP3    H175128   3.977   5.219   4.601  2.0136 -1.3190  0.2065
17879TIP3    H275129   4.065   5.163   4.491  1.9021  1.2348 -1.2755
17880TIP3   OH275130   5.952   6.176  12.643  0.0345  0.6694 -0.4889
17880TIP3    H175131   6.042   6.200  12.624  0.6244 -1.6239 -0.8637
17880TIP3    H275132   5.939   6.092  12.598 -1.9004  0.3612  0.5267
17881TIP3   OH275133   0.183   5.612  11.563  0.1884  0.5107 -0.2407
17881TIP3    H175134   0.231   5.695  11.564 -0.1437  0.7015 -0.0711
17881TIP3    H275135   0.091   5.637  11.559 -0.2355  0.3177  3.7722
17882TIP3   OH275136   6.773   0.055  12.279 -0.3345 -0.0280 -0.4944
17882TIP3    H175137   6.848   0.039  12.336 -0.6627  0.4427  0.0793
17882TIP3    H275138   6.811   0.093  12.200  0.1086 -0.5330 -0.5301
17883TIP3   OH275139   6.822   4.467  14.505  0.6263 -0.1366  0.5078
17883TIP3    H175140   6.746   4.446  14.451  0.7023  0.6021  0.0986
17883TIP3    H275141   6.826   4.563  14.504  2.3962 -0.1739 -0.6657
17884TIP3   OH275142   5.172   2.153  12.086  0.3596  0.2132 -0.0941
17884TIP3    H175143   5.211   2.177  12.003  3.5084  1.0828  1.4977
17884TIP3    H275144   5.226   2.081  12.118 -0.1386  0.5697  1.6472
17885TIP3   OH275145   2.966   0.819  14.461  0.1075 -0.8641 -0.1012
17885TIP3    H175146   2.983   0.909  14.431 -0.0798 -0.9542 -0.4894
17885TIP3    H275147   2.993   0.819  14.552  1.3903 -0.7787 -0.4631
17886TIP3   OH275148   3.449   1.900   3.656  0.1083  0.1424 -0.5892
17886TIP3    H175149   3.532   1.936   3.626  0.0681 -0.4013 -1.3774
17886TIP3    H275150   3.473   1.819   3.702 -0.0641 -0.6547 -1.8692
17887TIP3   OH275151   0.169   5.666  15.199 -0.0438 -0.0506 -0.1699
17887TIP3    H175152   0.128   5.749  15.173  0.2795  0.7482  1.6956
17887TIP3    H275153   0.262   5.680  15.186 -0.1081 -0.8914 -1.7879
17888TIP3   OH275154   4.803   4.865  11.190  0.2387  0.1580 -0.0704
17888TIP3    H175155   4.782   4.779  11.152 -0.8874  0.9670 -1.3422
17888TIP3    H275156   4.736   4.878  11.257  1.1242 -0.4469  0.9749
17889TIP3   OH275157   6.111   6.350   5.998 -0.5673 -0.0782  0.0578
17889TIP3    H175158   6.074   6.263   5.985 -0.4167 -0.1983  0.4525
17889TIP3    H275159   6.158   6.345   6.081 -1.2126  0.5905  0.4809
17890TIP3   OH275160   0.059   2.925   2.507 -0.4761  0.0897  0.3514
17890TIP3    H175161  -0.025   2.930   2.552 -0.2360 -1.1693  0.9755
17890TIP3    H275162   0.037   2.934   2.414 -1.1915  0.6390  0.5667
17891TIP3   OH275163   4.155   2.858   3.047 -0.1757  0.5816 -0.5611
17891TIP3    H175164   4.067   2.887   3.068 -0.1450  1.6369 -1.7739
17891TIP3    H275165   4.182   2.805   3.122 -1.2345  1.5506  0.5327
17892TIP3   OH275166   2.037   2.109   1.465  0.1681 -0.3054  0.4999
17892TIP3    H175167   2.094   2.185   1.457 -1.9118  1.3165  0.3295
17892TIP3    H275168   2.037   2.089   1.559 -0.6106  1.0192  0.8008
17893TIP3   OH275169   4.481   6.790   1.482  0.2217  0.5142  1.4234
17893TIP3    H175170   4.434   6.718   1.524 -0.1146 -0.0214  0.1617
17893TIP3    H275171   4.528   6.833   1.554  0.6131 -1.0920  2.1636
17894TIP3   OH275172   0.393   5.633   2.493 -0.0664  0.1778  0.4437
17894TIP3    H175173   0.326   5.679   2.543  2.4816  0.9782  3.4457
17894TIP3    H275174   0.398   5.546   2.533 -1.6729 -1.2537 -2.1810
17895TIP3   OH275175   6.046   3.220   5.473 -0.1911 -0.4016 -0.3100
17895TIP3    H175176   6.110   3.186   5.536  2.2788  2.9017 -0.7439
17895TIP3    H275177   5.975   3.255   5.527 -0.1490 -1.3344  0.3673
17896TIP3   OH275178   1.372   5.439  17.277 -0.4197 -0.6841 -0.8585
17896TIP3    H175179   1.279   5.453  17.295 -0.3442 -0.3341 -0.7254
17896TIP3    H275180   1.402   5.523  17.241 -0.1924 -0.8492 -1.0560
17897TIP3   OH275181   6.232   1.980  12.524  0.1649  0.2138  0.4228
17897TIP3    H175182   6.217   2.022  12.439  1.4181  1.9496  1.0073
17897TIP3    H275183   6.324   1.952  12.520  1.3064  3.1953  2.2918
17898TIP3   OH275184   5.319   5.843   4.382 -0.2699 -0.1383  1.0640
17898TIP3    H175185   5.254   5.895   4.335 -0.9141 -0.3570  1.6955
17898TIP3    H275186   5.268   5.786   4.440  0.3714 -2.0597 -0.1574
17899TIP3   OH275187   1.704   5.052  13.681  0.4412 -0.0286  0.8157
17899TIP3    H175188   1.768   5.065  13.611 -1.4323  1.0992 -0.7947
17899TIP3    H275189   1.757   5.048  13.761  2.5874 -0.3865 -0.5369
17900TIP3   OH275190   6.266   2.121  14.452 -0.7170 -0.2973  0.3762
17900TIP3    H175191   6.204   2.193  14.439  0.4882  0.6173 -0.4524
17900TIP3    H275192   6.298   2.099  14.365 -3.0895 -3.7904  0.1918
17901TIP3   OH275193   6.577   0.966   4.252 -0.5219 -0.0658  0.0579
17901TIP3    H175194   6.589   0.890   4.309  1.2813  1.2487  1.5514
17901TIP3    H275195   6.543   1.034   4.310 -0.4251  0.7820 -0.8579
17902TIP3   OH275196   2.791   5.076   5.179  0.0338  0.1148  0.1495
17902TIP3    H175197   2.808   4.981   5.181 -2.3425 -0.3690 -0.2937
17902TIP3    H275198   2.720   5.090   5.241  1.2185  1.8566  1.1934
17903TIP3   OH275199   4.266   1.734   5.353  0.1228  0.0457  0.0916
17903TIP3    H175200   4.312   1.816   5.339  0.5332 -0.6222 -3.1934
17903TIP3    H275201   4.177   1.751   5.325  0.5440 -0.9087 -2.0367
17904TIP3   OH275202   5.627   6.132   4.024  0.0878 -0.1906  0.2936
17904TIP3    H175203   5.552   6.139   4.083 -1.3936 -2.2061 -1.2164
17904TIP3    H275204   5.599   6.178   3.945  2.3162  3.0990  1.2323
17905TIP3   OH275205   3.664   3.141  11.325 -0.0269 -0.3752 -0.2442
17905TIP3    H175206   3.704   3.225  11.303  0.1931 -0.8367 -1.7609
17905TIP3    H275207   3.611   3.159  11.403  0.2129  1.1010 -0.3928
17906TIP3   OH275208   2.333   0.939  12.925 -0.1575 -0.1670  0.2550
17906TIP3    H175209   2.265   1.000  12.901  1.0067  0.5820 -1.3011
17906TIP3    H275210   2.359   0.965  13.013 -2.1258 -0.7533  1.0632
17907TIP3   OH275211   2.289   5.567  13.230 -0.1569 -0.4383 -0.3572
17907TIP3    H175212   2.253   5.487  13.268  1.3544 -2.3753 -2.7375
17907TIP3    H275213   2.384   5.552  13.228  0.4257  2.3247  0.9563
17908TIP3   OH275214   2.546   6.813   3.410  0.3009 -0.3693  0.0965
17908TIP3    H175215   2.472   6.800   3.470  1.7439  0.0006  2.0694
17908TIP3    H275216   2.593   6.888   3.447  2.3644 -1.3722 -0.3612
17909TIP3   OH275217   1.837   4.618  15.181 -0.2050 -0.3915  0.6700
17909TIP3    H175218   1.850   4.657  15.267  1.0860  2.6990 -0.7410
17909TIP3    H275219   1.760   4.663  15.145  0.2834 -0.3437 -0.3780
17910TIP3   OH275220   6.325   2.900   3.699 -0.3104  0.4254 -0.0250
17910TIP3    H175221   6.358   2.957   3.631 -2.6133  1.5333 -0.3066
17910TIP3    H275222   6.259   2.845   3.655 -0.2066 -0.4338  0.8419
17911TIP3   OH275223   0.573   1.856  11.519 -0.8013  0.2118  0.0774
17911TIP3    H175224   0.553   1.947  11.498 -1.2695  0.3446  1.0209
17911TIP3    H275225   0.503   1.830  11.579  0.3637 -0.1556  1.3418
17912TIP3   OH275226   3.970   2.063  11.057  0.1400 -0.8371  0.7252
17912TIP3    H175227   3.979   2.146  11.009 -1.5395  0.1525  2.0241
17912TIP3    H275228   4.005   1.997  10.997  0.9319  0.7232 -0.6056
17913TIP3   OH275229   1.810   6.646  13.498 -0.2215  0.4597  0.1801
17913TIP3    H175230   1.802   6.557  13.531 -0.4964  0.8165  1.0992
17913TIP3    H275231   1.881   6.641  13.433 -0.0650 -0.3741  0.4053
17914TIP3   OH275232   6.438   6.014  12.551  0.1826  0.4952 -0.8146
17914TIP3    H175233   6.469   5.926  12.529 -2.9679 -1.9687  3.3229
17914TIP3    H275234   6.502   6.046  12.615  0.1538  0.2959 -0.6868
17915TIP3   OH275235   4.018   2.581  16.625 -0.4321  0.3912  0.2225
17915TIP3    H175236   3.936   2.629  16.621 -0.0347  1.0516 -0.0806
17915TIP3    H275237   3.992   2.489  16.621 -1.4478  0.3553  4.0090
17916TIP3   OH275238   2.947   3.964   3.390  0.7083 -0.1588 -0.5920
17916TIP3    H175239   2.917   3.944   3.301 -0.7744  1.3627 -0.4923
17916TIP3    H275240   2.903   3.899   3.444 -1.8719  1.4683 -0.5617
17917TIP3   OH275241   6.441   3.847   4.028 -1.2488 -0.0887 -0.1425
17917TIP3    H175242   6.424   3.757   3.999 -1.3494 -0.1148 -0.0048
17917TIP3    H275243   6.458   3.839   4.122  0.5855 -0.1929 -0.4515
17918TIP3   OH275244   3.756   2.885  11.028  0.0496  0.2368 -0.0331
17918TIP3    H175245   3.748   2.862  11.121  1.1625  1.4009  0.3802
17918TIP3    H275246   3.724   2.808  10.982  0.2673 -0.6978  1.3155
17919TIP3   OH275247   6.022   6.052  12.928 -0.3964 -0.3699 -0.1956
17919TIP3    H175248   6.029   6.078  12.836  0.4317 -0.6799 -0.2344
17919TIP3    H275249   5.932   6.073  12.953 -0.2278  0.9879 -0.6853
17920TIP3   OH275250   0.619   5.824   0.439 -0.4338  0.2035  0.3710
17920TIP3    H175251   0.612   5.911   0.400 -0.7021  0.6234  1.3039
17920TIP3    H275252   0.594   5.763   0.370 -2.1258  0.9873  0.2500
17921TIP3   OH275253   1.538   0.245   2.386 -0.2354  0.0441  0.5660
17921TIP3    H175254   1.453   0.248   2.343  0.4996 -0.7683 -1.0135
17921TIP3    H275255   1.545   0.155   2.419  0.5068 -0.2725 -0.4119
17922TIP3   OH275256   5.089   5.277  15.267 -0.0942  0.3627  0.3768
17922TIP3    H175257   5.166   5.315  15.309  0.2831 -0.2329  0.2333
17922TIP3    H275258   5.106   5.284  15.173 -1.3700  2.6000  0.2335
17923TIP3   OH275259   5.892   1.184  16.094 -0.6075 -0.0758  0.3663
17923TIP3    H175260   5.948   1.256  16.065  1.4500 -0.8401  2.1445
17923TIP3    H275261   5.941   1.105  16.072 -1.3800 -0.8150  1.2158
17924TIP3   OH275262   2.769   5.269   1.308 -0.2989  0.2750 -0.2160
17924TIP3    H175263   2.841   5.254   1.370  1.0275 -1.1389 -1.9983
17924TIP3    H275264   2.710   5.329   1.354 -0.9154 -2.8591  3.5837
17925TIP3   OH275265   4.900   4.883   1.280 -0.2694 -0.1701 -0.0736
17925TIP3    H175266   4.826   4.941   1.299 -0.1688  0.2981 -1.0586
17925TIP3    H275267   4.893   4.865   1.186 -0.3861 -1.8888  0.2344
17926TIP3   OH275268   0.599   6.666  12.390 -0.6954  0.0013  0.1370
17926TIP3    H175269   0.585   6.598  12.456 -4.1194  1.7839  1.4764
17926TIP3    H275270   0.629   6.618  12.313 -0.4893 -2.6793  1.7523
17927TIP3   OH275271   4.616   2.050   5.517  0.1077  0.3429  0.0802
17927TIP3    H175272   4.656   2.126   5.476  0.0189  0.5163  0.3125
17927TIP3    H275273   4.527   2.079   5.540  0.1102  0.2052  0.2665
17928TIP3   OH275274   1.283   1.837  15.937 -0.1349 -0.0718 -0.3001
17928TIP3    H175275   1.259   1.928  15.957  0.6646  0.0814  0.0134
17928TIP3    H275276   1.200   1.789  15.944 -0.2804  0.3482  1.2907
17929TIP3   OH275277   1.982   0.794  11.427  0.8858  0.5162 -0.0364
17929TIP3    H175278   2.062   0.773  11.379 -0.1394 -0.2050 -1.5197
17929TIP3    H275279   1.954   0.710  11.463  2.6025  1.2794  3.5828
17930TIP3   OH275280   2.335   2.640  14.769  0.0829  0.0315 -0.0495
17930TIP3    H175281   2.389   2.718  14.756 -1.5209  1.1630 -0.2578
17930TIP3    H275282   2.333   2.627  14.864 -1.7943  1.9095  0.2366
17931TIP3   OH275283   4.349   6.691  13.291 -0.1801 -0.2918 -0.0049
17931TIP3    H175284   4.322   6.615  13.240  0.7725 -0.6547  0.0156
17931TIP3    H275285   4.284   6.758  13.271 -0.2657 -0.6847 -1.0736
17932TIP3   OH275286   2.890   5.799   2.023  0.1839 -0.5675  0.5384
17932TIP3    H175287   2.828   5.738   1.985  1.0404 -2.1420  1.5376
17932TIP3    H275288   2.902   5.867   1.957 -0.5322 -1.6768 -0.7674
17933TIP3   OH275289   5.741   4.932  13.539 -0.3871  0.9714 -0.5601
17933TIP3    H175290   5.822   4.898  13.578  0.8803  2.9392 -1.3093
17933TIP3    H275291   5.771   4.997  13.475 -2.5283  0.4721 -2.1615
17934TIP3   OH275292   5.615   4.384  12.104 -0.1204 -0.0295 -0.7922
17934TIP3    H175293   5.641   4.295  12.082 -1.2669 -0.3828 -0.8026
17934TIP3    H275294   5.521   4.378  12.123 -0.0313  1.0177  0.0934
17935TIP3   OH275295   4.463   3.505   4.757  0.1710 -0.4214  0.2612
17935TIP3    H175296   4.496   3.542   4.839  1.4807  1.7728 -1.1497
17935TIP3    H275297   4.533   3.523   4.694 -2.1782  1.0674 -2.0897
17936TIP3   OH275298   6.260   5.675   2.099 -0.3237  0.0197 -0.1013
17936TIP3    H175299   6.239   5.763   2.067 -1.4192 -0.0539  0.3741
17936TIP3    H275300   6.180   5.625   2.085  0.2484 -0.8712 -0.2351
17937TIP3   OH275301   0.960   6.216  12.412 -0.3960  0.5647 -0.3207
17937TIP3    H175302   1.010   6.264  12.345 -0.0403  0.6116 -0.0271
17937TIP3    H275303   0.872   6.211  12.377 -0.0569 -0.0234 -1.1186
17938TIP3   OH275304   5.304   1.688  14.093 -0.9638 -0.4032  0.2850
17938TIP3    H175305   5.399   1.686  14.083 -1.0063  0.3090 -0.3538
17938TIP3    H275306   5.275   1.756  14.032 -2.0434 -1.7850 -0.7996
17939TIP3   OH275307   3.192   2.296  10.392 -0.1641 -0.1484 -0.1722
17939TIP3    H175308   3.172   2.210  10.428 -0.9693 -0.7120 -1.8334
17939TIP3    H275309   3.114   2.319  10.341  1.2001  0.1559 -2.2760
17940TIP3   OH275310   5.991   3.730  13.485  0.3168 -0.1889 -0.0252
17940TIP3    H175311   5.946   3.703  13.566  0.8508  2.4114  1.2394
17940TIP3    H275312   5.922   3.769  13.431  0.1173 -1.1409 -0.4751
17941TIP3   OH275313   3.517   6.808  14.696  0.3160 -0.1708  0.1939
17941TIP3    H175314   3.446   6.861  14.734  0.0215  1.1324 -1.9582
17941TIP3    H275315   3.543   6.857  14.618  0.7375 -2.7419 -1.3812
17942TIP3   OH275316   6.628   3.439   5.376 -0.6206 -0.0888  0.0488
17942TIP3    H175317   6.561   3.430   5.308 -0.6136 -1.1917  0.1675
17942TIP3    H275318   6.638   3.351   5.411 -0.3182  0.3902  1.1991
17943TIP3   OH275319   4.732   3.017   0.119 -0.2095 -0.7325  0.5278
17943TIP3    H175320   4.740   2.954   0.191 -1.7361 -1.8899 -0.2434
17943TIP3    H275321   4.764   2.969   0.043 -1.1151 -0.4892 -0.0185
17944TIP3   OH275322   3.910   2.336  16.604  0.3089 -0.5089 -0.3502
17944TIP3    H175323   3.956   2.253  16.593  3.5612  0.9339  0.9409
17944TIP3    H275324   3.870   2.330  16.691  0.9193 -0.6041 -0.0681
17945TIP3   OH275325   5.942   4.082   2.031 -0.7077 -0.0723  0.5399
17945TIP3    H175326   5.883   4.020   1.988  0.3015 -0.7692  0.1195
17945TIP3    H275327   5.963   4.146   1.963  1.1598 -1.3650 -0.1807
17946TIP3   OH275328   1.122   3.432  12.159  0.1906 -0.5689 -0.8691
17946TIP3    H175329   1.065   3.467  12.090  0.0368 -2.7914 -1.9810
17946TIP3    H275330   1.061   3.407  12.229  0.2386  0.6886 -0.3552
17947TIP3   OH275331   5.348   1.735   3.784 -0.2006 -0.1852 -0.2401
17947TIP3    H175332   5.259   1.755   3.756  0.4233  0.9517 -1.5525
17947TIP3    H275333   5.392   1.704   3.705  1.0495  1.0891 -0.0937
17948TIP3   OH275334   5.034   4.295   0.876  0.2959  0.1511 -0.2551
17948TIP3    H175335   5.094   4.257   0.811 -0.4350 -0.0287 -0.8367
17948TIP3    H275336   4.948   4.293   0.833  0.0599  1.4886  0.0965
17949TIP3   OH275337   2.349   5.658  15.329 -0.4254  0.0914 -0.1175
17949TIP3    H175338   2.385   5.614  15.406 -1.3665 -0.2989  0.1053
17949TIP3    H275339   2.366   5.751  15.345  1.4681 -0.1313 -0.5384
17950TIP3   OH275340   0.192   5.725  11.997 -0.0735  0.0397 -0.6814
17950TIP3    H175341   0.193   5.793  11.930  0.0143  0.2193 -0.4993
17950TIP3    H275342   0.273   5.676  11.982  0.6365  0.9187  0.1441
17951TIP3   OH275343   5.435   6.631  16.190 -0.1926 -0.2890 -0.3713
17951TIP3    H175344   5.449   6.544  16.226 -0.5033  0.2592  1.1609
17951TIP3    H275345   5.415   6.686  16.266 -0.1855  1.0858 -1.3130
17952TIP3   OH275346   2.476   1.312   4.225 -0.6890  0.1247 -0.3553
17952TIP3    H175347   2.435   1.242   4.276 -2.1586  0.7210 -0.6665
17952TIP3    H275348   2.537   1.267   4.167 -1.4634 -0.8778 -0.4151
17953TIP3   OH275349   4.890   6.768   3.421  0.1754  0.0353  0.0851
17953TIP3    H175350   4.873   6.784   3.328  1.2969 -0.1436 -0.1632
17953TIP3    H275351   4.911   6.675   3.426 -1.1414 -0.2446  0.7239
17954TIP3   OH275352   0.052   5.050  16.881 -0.2656  0.7446 -0.0993
17954TIP3    H175353  -0.022   4.995  16.908 -0.0526  0.0213 -0.9766
17954TIP3    H275354   0.010   5.131  16.850 -0.6938  0.3247 -0.6312
17955TIP3   OH275355   0.916   0.419   5.306  0.4177  0.0831 -0.5352
17955TIP3    H175356   1.001   0.409   5.349 -0.8562  1.7680  2.7281
17955TIP3    H275357   0.877   0.332   5.309  0.1258  0.2147  2.6291
17956TIP3   OH275358   2.614   1.440  14.817 -0.2160  0.5677 -0.5627
17956TIP3    H175359   2.633   1.388  14.739  0.5580 -0.2660  0.1480
17956TIP3    H275360   2.519   1.442  14.822 -0.2963 -1.5131 -0.1791
17957TIP3   OH275361   3.818   3.622   0.929 -0.1604  0.2879  0.2494
17957TIP3    H175362   3.824   3.526   0.923 -0.6334  0.0752  2.4515
17957TIP3    H275363   3.909   3.652   0.924 -0.0713 -0.1665 -1.4695
17958TIP3   OH275364   1.150   4.761   3.879  0.8905 -0.0090  0.2480
17958TIP3    H175365   1.126   4.848   3.910  1.7273  0.4396 -0.3131
17958TIP3    H275366   1.201   4.724   3.951  0.7571  0.0759  0.3852
17959TIP3   OH275367   3.101   6.196   3.020 -0.3849  0.1556  0.1205
17959TIP3    H175368   3.184   6.192   2.973 -0.9557  0.7665 -0.9774
17959TIP3    H275369   3.035   6.170   2.955 -1.0077 -0.8829  1.1285
17960TIP3   OH275370   3.035   5.449  12.009  0.4842  0.1360  0.4884
17960TIP3    H175371   3.026   5.362  12.049 -1.2832 -0.7541 -1.6590
17960TIP3    H275372   2.955   5.460  11.957  1.4983  2.2972 -0.7389
17961TIP3   OH275373   5.164   4.299   1.207 -0.3137  0.3433  0.1586
17961TIP3    H175374   5.070   4.312   1.222  0.0911  1.8981  1.6821
17961TIP3    H275375   5.193   4.246   1.281 -0.1828 -1.3364 -1.0284
17962TIP3   OH275376   0.216   2.354  10.972  0.3414  0.3561  0.5763
17962TIP3    H175377   0.238   2.436  10.929  1.0610 -0.2854 -0.3203
17962TIP3    H275378   0.196   2.293  10.901 -1.0011 -0.0422  1.2521
17963TIP3   OH275379   2.816   3.704  16.489 -0.2498 -0.0759 -0.2264
17963TIP3    H175380   2.790   3.654  16.412 -0.7636 -1.2000  0.6629
17963TIP3    H275381   2.823   3.640  16.559  0.4358  0.8948  0.6262
17964TIP3   OH275382   4.781   3.587   2.473 -0.2291 -0.2138  0.9094
17964TIP3    H175383   4.864   3.611   2.515  0.4331 -0.9189  0.0240
17964TIP3    H275384   4.750   3.668   2.433 -0.3216  0.2120  1.8176
17965TIP3   OH275385   1.121   1.981   5.088 -0.6563  0.4329 -0.3075
17965TIP3    H175386   1.091   2.038   5.159  0.4749 -0.1111  0.6479
17965TIP3    H275387   1.048   1.979   5.026 -1.6049  1.0732  0.7476
17966TIP3   OH275388   2.332   0.492  14.679  0.1843 -0.3403  0.2283
17966TIP3    H175389   2.279   0.454  14.609  0.9975  0.1916 -0.6834
17966TIP3    H275390   2.284   0.570  14.706  0.3712  0.0017 -0.4244
17967TIP3   OH275391   5.765   2.703  10.900  0.4662  0.5001  0.0615
17967TIP3    H175392   5.747   2.677  10.990  1.1658 -1.3649 -0.2874
17967TIP3    H275393   5.715   2.783  10.888 -1.1153 -0.1879  1.5568
17968TIP3   OH275394   5.148   5.376   0.684 -0.1893 -0.0612  0.2922
17968TIP3    H175395   5.237   5.389   0.653 -0.0163  1.0591  1.2111
17968TIP3    H275396   5.114   5.464   0.699 -0.9674 -0.5038  1.2797
17969TIP3   OH275397   0.723   5.744  14.607 -0.1545  0.0507 -0.0885
17969TIP3    H175398   0.683   5.725  14.691 -0.2115 -1.0769 -0.3561
17969TIP3    H275399   0.650   5.758  14.547 -0.1348 -0.5883 -0.2651
17970TIP3   OH275400   4.001   4.426  13.554 -0.5742 -0.3295 -0.4605
17970TIP3    H175401   3.949   4.359  13.600  1.4400 -2.1073 -0.5987
17970TIP3    H275402   3.936   4.484  13.515 -2.3996 -0.7319  1.7685
17971TIP3   OH275403   2.707   0.170   5.884 -0.8633  0.3537 -0.5529
17971TIP3    H175404   2.685   0.167   5.977  0.0347 -0.0414 -0.3413
17971TIP3    H275405   2.764   0.094   5.871 -1.4645  0.0596 -1.5577
17972TIP3   OH275406   0.011   4.546   3.478 -0.1122  0.3198  0.4830
17972TIP3    H175407   0.006   4.522   3.571  1.2922  0.3102  0.5821
17972TIP3    H275408  -0.004   4.464   3.431  2.3536 -0.4130  0.7905
17973TIP3   OH275409   5.089   5.896  15.637 -0.6577  0.3928  0.4407
17973TIP3    H175410   5.110   5.830  15.571 -0.6501  0.4803  0.3554
17973TIP3    H275411   5.117   5.979  15.598  0.6980  0.2857  1.1453
17974TIP3   OH275412   3.424   2.477   2.382 -0.3048  1.1123 -0.5529
17974TIP3    H175413   3.375   2.520   2.452  1.3972  1.6578  0.3688
17974TIP3    H275414   3.427   2.385   2.408 -0.7985  1.0878 -0.5866
17975TIP3   OH275415   2.666   1.076   2.745 -0.1722  0.2479  0.4799
17975TIP3    H175416   2.751   1.038   2.723 -0.5432  0.5605 -1.6560
17975TIP3    H275417   2.648   1.137   2.674 -2.1842  0.2162  0.9235
17976TIP3   OH275418   4.153   0.879   0.775 -0.0608  0.2682  0.0473
17976TIP3    H175419   4.080   0.819   0.789  0.0356  0.2186  0.3359
17976TIP3    H275420   4.133   0.922   0.692  0.8967 -1.6522 -1.2598
17977TIP3   OH275421   0.253   4.637  12.907 -0.4919 -0.0708  0.5171
17977TIP3    H175422   0.164   4.606  12.894  0.0349 -1.6263  0.4422
17977TIP3    H275423   0.258   4.660  13.000 -0.9485 -0.0039  0.5251
17978TIP3   OH275424   1.932   6.541  11.994 -0.2277 -0.0507 -0.2221
17978TIP3    H175425   1.950   6.496  11.912  0.9320 -0.6506  0.3218
17978TIP3    H275426   1.892   6.474  12.050 -2.5512  0.7881 -0.7969
17979TIP3   OH275427   5.655   0.092  14.920  0.1032  0.5443  0.1870
17979TIP3    H175428   5.562   0.090  14.897  0.2301 -1.1955 -0.3191
17979TIP3    H275429   5.660   0.048  15.005  0.4763  0.5192  0.1530
17980TIP3   OH275430   3.870   2.520  14.652  0.1467  0.5195  0.0198
17980TIP3    H175431   3.809   2.594  14.656 -0.6640 -0.0827 -0.7056
17980TIP3    H275432   3.835   2.457  14.714 -0.0337  0.1302 -0.4725
17981TIP3   OH275433   1.049   0.201   6.188 -0.2808  0.3809  0.3315
17981TIP3    H175434   1.097   0.122   6.164 -0.3422  0.2677  0.5780
17981TIP3    H275435   0.976   0.169   6.243 -0.1488  0.6341  0.6581
17982TIP3   OH275436   3.866   5.637  14.595  0.5248  0.2482  0.5702
17982TIP3    H175437   3.875   5.731  14.612  0.9984  0.0660  1.3947
17982TIP3    H275438   3.783   5.629  14.548  1.5658  1.3243 -1.6061
17983TIP3   OH275439   3.586   0.490  16.655 -0.0039 -0.0370 -0.0578
17983TIP3    H175440   3.538   0.572  16.649 -1.6259 -0.9904 -0.5950
17983TIP3    H275441   3.536   0.436  16.716 -1.6338 -2.2968 -3.1244
17984TIP3   OH275442   6.714   6.446   4.817  0.6804  0.2812 -0.1945
17984TIP3    H175443   6.708   6.541   4.804  0.5457  0.3624  0.4482
17984TIP3    H275444   6.633   6.412   4.779  0.5810  0.4508 -0.1366
17985TIP3   OH275445   4.455   3.171   6.465  0.6725 -0.2842  0.2469
17985TIP3    H175446   4.496   3.104   6.410 -1.8141 -1.5013 -0.2469
17985TIP3    H275447   4.431   3.125   6.545 -0.6656  0.1179  0.0909
17986TIP3   OH275448   1.297   5.477   2.108 -0.6817 -0.8921  0.3746
17986TIP3    H175449   1.243   5.538   2.160 -1.0205  0.5051 -1.5132
17986TIP3    H275450   1.386   5.507   2.123 -0.8381  0.0481 -0.4567
17987TIP3   OH275451   1.709   6.465   4.827  0.3520  0.0863  0.1693
17987TIP3    H175452   1.793   6.482   4.784  0.5014 -0.2282  0.3376
17987TIP3    H275453   1.663   6.549   4.821  1.0376  0.5331  0.8920
17988TIP3   OH275454   1.999   5.868  11.076 -0.3223  0.1896  0.3886
17988TIP3    H175455   2.017   5.867  10.982 -0.3053 -0.1815  0.3935
17988TIP3    H275456   2.024   5.956  11.105 -2.3046  1.0493 -0.3302
17989TIP3   OH275457   2.068   3.763   5.725 -0.1521 -0.4444  0.0805
17989TIP3    H175458   2.106   3.797   5.644  0.6469  2.3393  1.4886
17989TIP3    H275459   1.998   3.704   5.696  1.0726 -0.7450 -2.5902
17990TIP3   OH275460   6.367   6.617   0.405 -0.2086  0.2188  0.7677
17990TIP3    H175461   6.428   6.635   0.334  1.0903 -1.4327  1.4048
17990TIP3    H275462   6.422   6.608   0.483 -0.9276 -3.3391  1.0185
17991TIP3   OH275463   5.661   5.781   4.800 -0.0625  0.1980  0.4996
17991TIP3    H175464   5.664   5.724   4.877  0.2824 -0.2157  0.1826
17991TIP3    H275465   5.570   5.776   4.771 -0.2172  0.4250  0.9281
17992TIP3   OH275466   0.029   5.346  12.681 -0.2146  0.4172  0.6311
17992TIP3    H175467  -0.027   5.316  12.753 -0.6771  0.9592  0.5032
17992TIP3    H275468  -0.014   5.425  12.649  0.1213  0.3135 -0.0875
17993TIP3   OH275469   3.408   5.331  14.003 -0.1862 -0.1860  0.1736
17993TIP3    H175470   3.360   5.351  13.923 -1.0919  0.7142  0.9215
17993TIP3    H275471   3.435   5.416  14.037  1.4935 -0.6447  0.0590
17994TIP3   OH275472   3.678   5.500   0.628  0.4908  0.0365 -0.2093
17994TIP3    H175473   3.767   5.467   0.643  0.7090  0.3869 -0.6898
17994TIP3    H275474   3.670   5.574   0.689  0.8040  0.4694 -0.6815
17995TIP3   OH275475   2.726   1.309  17.005  0.8439 -0.0946 -0.2084
17995TIP3    H175476   2.769   1.356  16.933  2.1737 -0.8532  0.0796
17995TIP3    H275477   2.642   1.280  16.967  0.1466  2.1154 -0.5187
17996TIP3   OH275478   5.881   4.580  14.749  0.4307  0.0834 -0.2349
17996TIP3    H175479   5.820   4.599  14.821 -0.3863 -1.1245 -0.5866
17996TIP3    H275480   5.856   4.641  14.680 -0.3320 -0.3476 -0.3456
17997TIP3   OH275481   6.550   4.940  14.115 -0.3882 -0.5812 -0.1774
17997TIP3    H175482   6.468   4.914  14.158  0.0625 -1.1330  0.3746
17997TIP3    H275483   6.602   4.860  14.113 -0.1850 -0.4371 -1.3024
17998TIP3   OH275484   6.139   6.721  16.630  0.1170  0.1356  0.4916
17998TIP3    H175485   6.067   6.660  16.650  0.5701 -0.2302  1.0303
17998TIP3    H275486   6.142   6.722  16.534  0.7535 -1.4962  0.4651
17999TIP3   OH275487   1.379   2.435   6.336  0.1621  0.2830  0.2442
17999TIP3    H175488   1.289   2.444   6.367  0.3678 -0.3965  1.0528
17999TIP3    H275489   1.401   2.343   6.350  0.4095  0.0217 -1.5650
18000TIP3   OH275490   0.953   3.341   0.403 -0.9222  0.0778  0.2586
18000TIP3    H175491   0.929   3.309   0.317 -0.9496  0.1869  0.2258
18000TIP3    H275492   1.038   3.301   0.421 -1.3558 -0.7281  0.5939
18001TIP3   OH275493   1.524   0.329  13.844 -0.1970 -0.4570 -0.2181
18001TIP3    H175494   1.494   0.417  13.819  1.6476 -0.5395 -3.2599
18001TIP3    H275495   1.449   0.273  13.829 -0.5521  0.2322 -1.1456
18002TIP3   OH275496   3.436   1.901   0.108 -0.1341 -0.1302  0.3570
18002TIP3    H175497   3.374   1.870   0.041  0.4569  0.6444 -0.5827
18002TIP3    H275498   3.502   1.832   0.114  0.0861  0.0201 -0.2477
18003TIP3   OH275499   4.912   5.812   6.450 -0.6180  0.3223 -0.5295
18003TIP3    H175500   4.928   5.744   6.385  1.3165 -1.0009  1.1807
18003TIP3    H275501   4.896   5.764   6.531  1.8036  1.8244  0.9664
18004TIP3   OH275502   1.411   4.871  12.389  0.2932 -0.5678  0.0364
18004TIP3    H175503   1.423   4.781  12.358 -0.0139 -0.6600  0.1810
18004TIP3    H275504   1.316   4.881  12.398  0.2977 -0.0746 -0.4338
18005TIP3   OH275505   5.271   2.413  14.052  0.1751 -0.0755  0.0593
18005TIP3    H175506   5.336   2.467  14.008  0.9059 -1.1085 -0.1733
18005TIP3    H275507   5.275   2.439  14.144  1.2664 -0.4618  0.1306
18006TIP3   OH275508   4.762   6.050   3.866  0.3457 -0.3088 -0.1073
18006TIP3    H175509   4.721   6.063   3.951  1.3041 -2.5757  0.7707
18006TIP3    H275510   4.708   5.984   3.823  0.9109 -0.5176 -0.5054
18007TIP3   OH275511   4.365   6.591   0.684  0.3287  0.0092  0.2291
18007TIP3    H175512   4.294   6.584   0.748  1.4836 -1.6025  1.4222
18007TIP3    H275513   4.403   6.678   0.699  0.1522 -0.0872  1.2876
18008TIP3   OH275514   3.292   2.341   3.129 -0.0510 -0.1139 -0.6115
18008TIP3    H175515   3.324   2.431   3.124  0.6292 -0.3425 -0.6090
18008TIP3    H275516   3.352   2.298   3.190 -0.3811 -0.5618 -0.5951
18009TIP3   OH275517   1.958   4.753   3.707 -0.0805  0.1577 -0.2483
18009TIP3    H175518   1.922   4.797   3.784 -0.9889  1.0350 -1.1427
18009TIP3    H275519   1.976   4.664   3.736 -1.4380  0.1655  0.6756
18010TIP3   OH275520   4.052   0.546  12.898 -0.1698  0.3824 -0.6700
18010TIP3    H175521   4.143   0.573  12.884 -0.1934  0.0368 -1.5036
18010TIP3    H275522   4.015   0.541  12.811 -0.4446 -1.3991 -0.4689
18011TIP3   OH275523   1.328   2.604   3.299 -0.1705 -0.6963 -0.2550
18011TIP3    H175524   1.327   2.559   3.215 -1.2363 -2.0857  0.4478
18011TIP3    H275525   1.307   2.695   3.278  0.0429 -0.9198 -1.5220
18012TIP3   OH275526   4.462   5.169   4.457  0.1875  0.2596 -0.7786
18012TIP3    H175527   4.508   5.112   4.396 -0.2083 -1.5152  0.5111
18012TIP3    H275528   4.397   5.113   4.499 -1.6952  2.1826 -0.9633
18013TIP3   OH275529   3.640   4.228   0.289 -0.1258 -0.3890  0.1075
18013TIP3    H175530   3.654   4.263   0.201 -0.5959  0.7660  0.4639
18013TIP3    H275531   3.706   4.160   0.300  0.5180  0.0773 -0.8075
18014TIP3   OH275532   4.200   4.648  16.836  0.3468  0.0757  0.3376
18014TIP3    H175533   4.182   4.677  16.746 -1.6044 -0.1253  0.6180
18014TIP3    H275534   4.188   4.553  16.833  0.5627  0.0341  0.7512
18015TIP3   OH275535   2.198   1.380   0.211 -0.1257 -0.3063  0.0465
18015TIP3    H175536   2.248   1.311   0.168  0.4717  0.3041 -0.2451
18015TIP3    H275537   2.113   1.339   0.229  0.3780 -1.2676  0.3165
18016TIP3   OH275538   1.901   5.519  12.244 -0.3135 -0.3727 -0.4166
18016TIP3    H175539   1.839   5.581  12.282 -0.3930 -0.8746  0.2757
18016TIP3    H275540   1.972   5.574  12.211 -0.7576  0.1454 -0.5285
18017TIP3   OH275541   0.270   5.874  13.409  0.4818 -0.7136  0.1574
18017TIP3    H175542   0.181   5.874  13.374  0.3266 -1.5347  0.5358
18017TIP3    H275543   0.264   5.923  13.491  0.3463 -0.9052  0.2620
18018TIP3   OH275544   3.812   3.549  15.948 -0.8262 -0.0241 -0.6926
18018TIP3    H175545   3.869   3.485  15.907  1.0324  0.5848  0.7862
18018TIP3    H275546   3.752   3.497  16.002  1.6673 -0.5984  1.7470
18019TIP3   OH275547   6.274   6.817  15.697  0.5727  0.3312 -0.0788
18019TIP3    H175548   6.305   6.888  15.754  1.3034 -1.3037  1.6554
18019TIP3    H275549   6.354   6.783  15.657  0.5259 -0.9797  0.8995
18020TIP3   OH275550   0.386   3.609   2.276  0.3289 -0.0612  0.0519
18020TIP3    H175551   0.415   3.600   2.366  0.4184  2.1713  0.3001
18020TIP3    H275552   0.408   3.698   2.252 -1.2644 -0.0400 -1.6062
18021TIP3   OH275553   3.744   2.893  11.821 -0.9680 -0.6884 -0.1363
18021TIP3    H175554   3.780   2.952  11.755 -1.0140 -0.7223 -0.1930
18021TIP3    H275555   3.803   2.901  11.896 -2.1914  1.0934  0.7011
18022TIP3   OH275556   0.305   2.233  11.534  0.4611  0.1286 -0.2383
18022TIP3    H175557   0.386   2.256  11.580  0.0736  0.3365  0.3459
18022TIP3    H275558   0.268   2.317  11.508 -0.1245  0.0876  0.4583
18023TIP3   OH275559   5.555   0.116   1.448 -0.1169  0.2754 -0.0991
18023TIP3    H175560   5.470   0.150   1.420 -1.0020 -0.2839  1.7480
18023TIP3    H275561   5.619   0.175   1.408 -1.4931  2.4488  0.7585
18024TIP3   OH275562   3.154   3.921   4.844  0.4222 -0.1051 -0.1273
18024TIP3    H175563   3.188   3.839   4.810  1.7680 -0.3137  1.5563
18024TIP3    H275564   3.230   3.979   4.846 -0.0848  0.5542  0.4685
18025TIP3   OH275565   5.984   2.850   5.039  0.5966  0.0299 -0.1902
18025TIP3    H175566   6.052   2.847   5.106  0.6165 -0.9831 -0.2473
18025TIP3    H275567   5.996   2.769   4.988  0.6372  0.7995 -1.4621
18026TIP3   OH275568   4.779   6.689  13.035  0.1491 -0.2179 -0.3973
18026TIP3    H175569   4.832   6.767  13.052 -0.9098  0.6393 -0.9293
18026TIP3    H275570   4.710   6.691  13.102  1.6188 -2.1898  1.3159
18027TIP3   OH275571   4.710   3.633  16.842  0.0950  0.5686 -0.1633
18027TIP3    H175572   4.703   3.539  16.853  1.4821  0.4898  0.3139
18027TIP3    H275573   4.728   3.666  16.930  1.6134  1.0364 -0.6118
18028TIP3   OH275574   6.817   0.672  14.818  0.2607  0.2951 -0.3267
18028TIP3    H175575   6.796   0.740  14.881  0.4947  1.0275 -1.0192
18028TIP3    H275576   6.826   0.592  14.870 -2.9941  0.1455  0.1833
18029TIP3   OH275577   6.746   1.900   4.649  0.0135 -0.2242 -0.0640
18029TIP3    H175578   6.748   1.806   4.634  3.5651  0.0617 -2.4805
18029TIP3    H275579   6.709   1.937   4.569 -0.7503  0.5056  0.6020
18030TIP3   OH275580   2.107   1.576   4.921 -0.3122 -0.3751 -0.7312
18030TIP3    H175581   2.152   1.494   4.940  1.0058  0.0988 -1.7057
18030TIP3    H275582   2.014   1.553   4.922  0.0039 -1.7219 -0.2955
18031TIP3   OH275583   3.013   5.041   1.126  0.1142  0.1789  0.4750
18031TIP3    H175584   3.076   5.098   1.084 -1.7693  1.6213 -0.5392
18031TIP3    H275585   3.023   5.058   1.220 -0.1742  1.9454  0.2065
18032TIP3   OH275586   1.253   1.366  13.021 -0.3501  0.8034 -0.0443
18032TIP3    H175587   1.309   1.374  12.944  1.3897 -0.7243  0.9687
18032TIP3    H275588   1.219   1.276  13.016  0.9604  0.1633  1.6556
18033TIP3   OH275589   3.490   0.242   2.928  0.2315  0.5013 -0.6347
18033TIP3    H175590   3.528   0.156   2.943  1.1495  1.0898  0.6426
18033TIP3    H275591   3.408   0.225   2.882  1.0749 -0.9401 -1.6694
18034TIP3   OH275592   1.053   1.547  17.030  0.4138  0.3827 -0.1156
18034TIP3    H175593   1.087   1.617  17.085 -1.5093  0.3619  1.1658
18034TIP3    H275594   1.056   1.469  17.085  0.9108 -0.2166 -0.9524
18035TIP3   OH275595   2.406   5.608  14.501 -0.5350 -0.4369  0.1692
18035TIP3    H175596   2.463   5.539  14.537 -0.3724  0.2399  1.2467
18035TIP3    H275597   2.449   5.690  14.526 -0.2591  0.0796 -1.8400
18036TIP3   OH275598   4.228   3.669   2.353  0.2036 -0.3548  0.1144
18036TIP3    H175599   4.187   3.741   2.401  5.8256  2.2981  1.8103
18036TIP3    H275600   4.254   3.708   2.270 -0.7768 -2.0267 -1.0393
18037TIP3   OH275601   1.882   3.360   5.019  0.4265 -0.0478 -0.2387
18037TIP3    H175602   1.871   3.271   4.987  1.6796 -0.4585  0.4308
18037TIP3    H275603   1.955   3.356   5.079 -0.6482  1.0769  1.2295
18038TIP3   OH275604   6.796   4.447  13.746  0.2455 -0.4228 -0.4250
18038TIP3    H175605   6.813   4.431  13.653  0.7180 -3.2317  0.0650
18038TIP3    H275606   6.710   4.409  13.761 -1.2227  2.6748 -0.2426
18039TIP3   OH275607   4.112   3.507  16.632  0.1238  0.3671 -0.5533
18039TIP3    H175608   4.118   3.426  16.582 -1.0658 -0.8704  1.1813
18039TIP3    H275609   4.104   3.576  16.566  1.0501 -0.9179 -2.0683
18040TIP3   OH275610   1.456   4.134   1.172  0.3643  0.2740  0.0621
18040TIP3    H175611   1.370   4.100   1.148 -0.3834  1.6517  0.7083
18040TIP3    H275612   1.517   4.081   1.121 -0.7819 -1.4635  0.4168
18041TIP3   OH275613   1.986   3.781   6.335 -0.4105  0.5794 -0.1744
18041TIP3    H175614   1.925   3.855   6.337 -0.3149  0.6554  0.5412
18041TIP3    H275615   1.931   3.704   6.319 -0.7362  0.6203  0.7024
18042TIP3   OH275616   1.388   4.830  12.672  0.3515  0.2791  0.2805
18042TIP3    H175617   1.376   4.814  12.766 -1.3436 -0.9130 -0.0779
18042TIP3    H275618   1.368   4.745  12.632  0.9325  0.8097 -1.1656
18043TIP3   OH275619   0.304   5.806  16.369 -0.5472  0.3680  0.0589
18043TIP3    H175620   0.235   5.740  16.376  0.4352 -0.6944 -0.0254
18043TIP3    H275621   0.278   5.859  16.293 -0.5838 -0.8593 -0.8217
18044TIP3   OH275622   4.599   5.025   0.396  0.4161 -0.2602  0.9460
18044TIP3    H175623   4.648   5.041   0.477 -0.1513  0.8699  1.0882
18044TIP3    H275624   4.538   5.099   0.389  0.4930 -0.2987 -0.5501
18045TIP3   OH275625   5.343   2.337  13.275  0.5968  0.7718 -0.3410
18045TIP3    H175626   5.308   2.422  13.301 -0.1041  0.4109 -0.0911
18045TIP3    H275627   5.319   2.327  13.183 -1.4170 -0.1755  0.2397
18046TIP3   OH275628   1.653   4.359   0.789  0.0850  0.3315  0.7858
18046TIP3    H175629   1.722   4.307   0.831  0.8393 -1.8669 -2.7323
18046TIP3    H275630   1.683   4.450   0.798  0.9445 -0.1307  3.4497
18047TIP3   OH275631   1.542   4.941  14.506 -0.2724 -0.3099 -0.5703
18047TIP3    H175632   1.593   4.878  14.456  0.1777  0.2655 -0.8557
18047TIP3    H275633   1.602   5.015  14.520 -0.4626 -0.3577  0.6278
18048TIP3   OH275634   6.395   4.184  12.938 -0.2692 -0.0401  0.1594
18048TIP3    H175635   6.320   4.197  12.997  0.3882  0.3020  0.9338
18048TIP3    H275636   6.356   4.179  12.850 -1.0258  2.0908  0.3321
18049TIP3   OH275637   0.622   4.673   0.952  0.0826 -0.2433 -0.2662
18049TIP3    H175638   0.717   4.677   0.956  0.0538 -0.7299  1.1434
18049TIP3    H275639   0.595   4.764   0.934  0.8078 -0.1890 -1.1662
18050TIP3   OH275640   6.053   1.304   0.513  0.2158 -0.1562 -0.1367
18050TIP3    H175641   5.989   1.237   0.489 -0.2632  0.3545 -0.3237
18050TIP3    H275642   6.108   1.314   0.435  0.4131 -0.4672 -0.0389
18051TIP3   OH275643   0.151   1.821  14.191  0.3059 -0.4692  0.0773
18051TIP3    H175644   0.169   1.744  14.244 -1.1473 -1.5460 -0.9413
18051TIP3    H275645   0.112   1.884  14.252 -1.3422 -1.6890  0.3291
18052TIP3   OH275646   3.146   3.712  15.992 -0.3307  0.0390 -1.0079
18052TIP3    H175647   3.133   3.731  15.899  1.3205 -0.2090 -1.3115
18052TIP3    H275648   3.239   3.728  16.008 -0.4784 -0.4063  0.4884
18053TIP3   OH275649   3.378   6.371  14.408 -0.0525  0.3555  0.0620
18053TIP3    H175650   3.437   6.422  14.464 -0.9124  0.2769  1.0737
18053TIP3    H275651   3.423   6.366  14.324  0.2787  2.3511  0.0797
18054TIP3   OH275652   6.648   5.757   3.208 -0.8530 -0.5365 -0.0166
18054TIP3    H175653   6.625   5.732   3.118 -1.1433 -0.7936  0.1318
18054TIP3    H275654   6.566   5.786   3.247 -0.6655 -0.1027  0.0643
18055TIP3   OH275655   5.559   4.799   5.995 -0.6194 -0.2607  0.2032
18055TIP3    H175656   5.495   4.869   6.013 -0.1245 -0.0749  1.3374
18055TIP3    H275657   5.639   4.828   6.038  0.1987 -0.5872 -1.0410
18056TIP3   OH275658   2.745   2.153  12.582 -0.7756 -0.2239  0.6088
18056TIP3    H175659   2.784   2.238  12.603 -1.6753 -0.0266  1.5518
18056TIP3    H275660   2.671   2.145  12.642 -1.0066 -1.4566  0.1850
18057TIP3   OH275661   5.297   5.582   3.694  0.0384 -0.4858  0.5491
18057TIP3    H175662   5.376   5.613   3.649  0.4290 -1.1217  0.7830
18057TIP3    H275663   5.289   5.639   3.770 -0.7384  0.7297 -0.4046
18058TIP3   OH275664   6.671   5.509  11.494 -0.0682  0.0143  0.1012
18058TIP3    H175665   6.707   5.588  11.535 -0.7298  1.1564 -1.4098
18058TIP3    H275666   6.656   5.449  11.567  1.9160  0.6583  1.1345
18059TIP3   OH275667   1.947   1.571  13.354 -0.1285 -0.0656  0.0284
18059TIP3    H175668   1.903   1.498  13.310 -1.1667  0.5684 -0.0338
18059TIP3    H275669   1.875   1.630  13.378  0.7943  1.5905 -1.1077
18060TIP3   OH275670   3.026   1.441   2.575  0.5050  0.0072  0.2489
18060TIP3    H175671   3.116   1.412   2.564  0.2132 -1.1449  0.7422
18060TIP3    H275672   2.993   1.391   2.650 -0.5283  0.4425  0.1095
18061TIP3   OH275673   4.495   0.716   0.201 -0.0703  0.0551  0.1090
18061TIP3    H175674   4.479   0.657   0.275 -0.5178  0.3641  0.2615
18061TIP3    H275675   4.460   0.669   0.125 -1.2545  0.4966  0.3605
18062TIP3   OH275676   4.325   6.174   0.059 -0.1928 -0.2741  0.2064
18062TIP3    H175677   4.338   6.263   0.092 -0.3751 -0.0925 -0.2014
18062TIP3    H275678   4.308   6.186  -0.035  0.0103 -0.7554  0.1073
18063TIP3   OH275679   6.579   1.230   1.871  0.0993 -0.8351  0.1193
18063TIP3    H175680   6.557   1.311   1.824 -0.5357 -0.5206  0.9189
18063TIP3    H275681   6.608   1.170   1.803 -2.4013 -0.9776 -0.9335
18064TIP3   OH275682   0.285   3.170   5.524 -0.0269  0.2694  0.3596
18064TIP3    H175683   0.203   3.131   5.553  0.9552 -0.2301  2.6559
18064TIP3    H275684   0.261   3.258   5.493 -1.2695  0.5978  2.1538
18065TIP3   OH275685   3.778   5.150   2.072  0.1402  0.2559 -0.0537
18065TIP3    H175686   3.844   5.134   2.005 -1.3793  1.2184 -1.8759
18065TIP3    H275687   3.817   5.216   2.130  0.2486  2.0392 -2.0427
18066TIP3   OH275688   4.245   6.450  15.341  0.1612  0.0295  0.0065
18066TIP3    H175689   4.200   6.483  15.419  1.5409  0.4696  0.6389
18066TIP3    H275690   4.174   6.426  15.281 -0.9113  0.5408  1.0337
18067TIP3   OH275691   6.378   2.132  14.212 -0.3466 -0.4231 -0.9360
18067TIP3    H175692   6.394   2.058  14.153  2.2424 -1.2014  0.5470
18067TIP3    H275693   6.387   2.209  14.156  0.1562 -1.1690 -1.9249
18068TIP3   OH275694   4.168   2.918  16.385  0.0518  0.2799 -0.0873
18068TIP3    H175695   4.231   2.847  16.376  0.0650  0.4334 -1.4751
18068TIP3    H275696   4.197   2.967  16.461  0.4241 -0.8182  0.5002
18069TIP3   OH275697   4.166   2.041   4.795  0.0146 -0.0879  0.2973
18069TIP3    H175698   4.227   2.044   4.721 -1.4611 -1.5232 -1.0679
18069TIP3    H275699   4.101   2.109   4.775  0.2672  0.3407  0.9100
18070TIP3   OH275700   5.728   1.243   2.337  0.5339  0.3678  0.0631
18070TIP3    H175701   5.775   1.239   2.254 -0.6322  1.7970 -0.7182
18070TIP3    H275702   5.749   1.330   2.371 -3.3600  2.1709 -1.5400
18071TIP3   OH275703   1.921   4.738   3.004 -0.3173 -0.1268  0.5666
18071TIP3    H175704   1.851   4.764   3.064 -0.0390  1.0437  0.3978
18071TIP3    H275705   1.950   4.653   3.038 -2.0713 -0.8368  0.4110
18072TIP3   OH275706   4.880   6.442  12.621  0.1421 -0.0137 -0.0534
18072TIP3    H175707   4.971   6.414  12.609  1.0763  3.0197 -0.9345
18072TIP3    H275708   4.879   6.480  12.709 -0.5763 -0.8531  0.3233
18073TIP3   OH275709   5.550   4.993   0.316  0.3672 -0.0923  0.2006
18073TIP3    H175710   5.593   5.073   0.346  0.9944  0.1237 -1.2170
18073TIP3    H275711   5.460   5.021   0.297  0.7535  0.4502 -0.9187
18074TIP3   OH275712   2.834   4.960  13.797  0.4080  0.1257 -0.7785
18074TIP3    H175713   2.920   4.949  13.838 -0.8394 -1.5152  1.6801
18074TIP3    H275714   2.820   4.878  13.749  0.2382  0.4000 -1.1973
18075TIP3   OH275715   5.673   0.653   4.355  0.5010 -0.1509 -0.2025
18075TIP3    H175716   5.646   0.605   4.434 -0.5306  0.5897 -0.0843
18075TIP3    H275717   5.710   0.735   4.389 -1.2116  0.7921 -0.4896
18076TIP3   OH275718   1.482   3.288   6.550  0.7190  0.4535  0.0122
18076TIP3    H175719   1.546   3.341   6.598  2.4505 -0.5999 -0.9911
18076TIP3    H275720   1.534   3.244   6.483 -0.4692 -2.9770  1.1163
18077TIP3   OH275721   0.341   1.907   1.932  0.5165  0.5233  0.3355
18077TIP3    H175722   0.245   1.909   1.934  0.3557  2.4820 -2.4686
18077TIP3    H275723   0.362   1.863   1.850  1.9492  1.3629  0.2143
18078TIP3   OH275724   6.491   6.164   3.643 -0.4886 -0.2429  0.1880
18078TIP3    H175725   6.478   6.070   3.660 -1.4078 -0.0904  0.3874
18078TIP3    H275726   6.586   6.174   3.639 -0.3398 -1.0056  1.2099
18079TIP3   OH275727   5.718   4.778  11.944 -0.4257  0.5835  0.3133
18079TIP3    H175728   5.678   4.691  11.938 -2.8814  1.4923  1.9317
18079TIP3    H275729   5.761   4.780  12.029  0.1780  0.7617  0.0122
18080TIP3   OH275730   3.255   1.384  14.280 -0.6025  0.1998 -0.2864
18080TIP3    H175731   3.267   1.469  14.237 -0.4503  1.1121  1.5096
18080TIP3    H275732   3.231   1.405  14.370 -0.1947 -1.6725  0.3020
18081TIP3   OH275733   5.362   5.435  12.326  0.5129  0.3549 -0.4967
18081TIP3    H175734   5.400   5.369  12.384  1.6916 -0.1947 -1.8188
18081TIP3    H275735   5.269   5.412  12.320  0.8477 -1.0140 -0.6917
18082TIP3   OH275736   5.975   1.825   3.218 -0.2635  0.3587  0.5336
18082TIP3    H175737   5.955   1.797   3.129  1.5071 -0.9547  0.4906
18082TIP3    H275738   5.941   1.755   3.274  0.8619 -0.0816  0.6911
18083TIP3   OH275739   1.942   6.481   6.274  0.7332 -0.6299  0.8757
18083TIP3    H175740   1.987   6.523   6.348 -0.4392  0.7857  0.8242
18083TIP3    H275741   1.933   6.551   6.209  0.4753 -1.4876 -0.0197
18084TIP3   OH275742   0.039   0.658  10.977 -0.4454 -0.4549 -0.1320
18084TIP3    H175743  -0.051   0.684  10.958 -0.6273 -1.8012 -1.3373
18084TIP3    H275744   0.031   0.588  11.041 -0.3004 -0.8057 -0.4867
18085TIP3   OH275745   1.702   6.416   0.607 -1.4283 -0.4471 -0.4332
18085TIP3    H175746   1.734   6.385   0.522  0.8595 -1.3614  0.6740
18085TIP3    H275747   1.714   6.511   0.604 -1.3412 -0.4740 -1.1266
18086TIP3   OH275748   0.661   5.758  15.939  0.4518 -0.2687  0.7535
18086TIP3    H175749   0.739   5.799  15.977  0.2046  0.0696  0.9094
18086TIP3    H275750   0.686   5.739  15.849  0.6787 -0.0635  0.7704
18087TIP3   OH275751   2.292   4.366  13.755  0.2924 -0.4654  0.0578
18087TIP3    H175752   2.382   4.372  13.720 -0.2116  2.0442 -1.0160
18087TIP3    H275753   2.303   4.331  13.843  2.3384 -0.2777 -0.0678
18088TIP3   OH275754   6.524   4.939  15.093  0.6726  0.0151  0.4286
18088TIP3    H175755   6.480   4.989  15.161  0.5897  2.0604 -1.0442
18088TIP3    H275756   6.545   5.003  15.025  0.3178 -1.9971 -1.7178
18089TIP3   OH275757   0.549   3.573   4.233 -0.1401  0.2712  0.1428
18089TIP3    H175758   0.516   3.516   4.163 -1.4124 -0.4222  1.2581
18089TIP3    H275759   0.629   3.530   4.263 -1.2572 -1.2143  1.1991
18090TIP3   OH275760   4.561   3.510  15.101 -0.7720 -0.0982  0.4606
18090TIP3    H175761   4.638   3.468  15.063  0.4665  0.9997  1.6458
18090TIP3    H275762   4.498   3.438  15.114  0.5520 -1.2522  0.6955
18091TIP3   OH275763   0.546   5.957   6.340  0.6569  0.1945 -0.3493
18091TIP3    H175764   0.540   5.972   6.435  1.5417 -4.9443  0.8621
18091TIP3    H275765   0.459   5.927   6.315  1.2957 -1.9051 -0.2260
18092TIP3   OH275766   5.635   0.491   2.137 -0.2800 -0.0498  0.1243
18092TIP3    H175767   5.542   0.501   2.159 -0.0198  0.8571  0.9033
18092TIP3    H275768   5.671   0.579   2.147  1.0755 -0.7322  1.8602
18093TIP3   OH275769   0.288   4.623   0.776 -0.4581 -0.4257  0.1913
18093TIP3    H175770   0.197   4.597   0.763  0.0413 -2.4435  0.3754
18093TIP3    H275771   0.318   4.568   0.849  1.7943 -2.3143 -1.9795
18094TIP3   OH275772   6.743   1.988   6.128 -0.0991  0.1607 -0.1055
18094TIP3    H175773   6.832   2.009   6.155 -0.4430  0.8074  0.5708
18094TIP3    H275774   6.715   2.063   6.075 -0.6870  0.6055  0.7885
18095TIP3   OH275775   5.827   3.478  16.121  0.3299 -0.4317 -0.0832
18095TIP3    H175776   5.908   3.428  16.117  0.7133  0.1241  0.4418
18095TIP3    H275777   5.788   3.454  16.205  0.0455 -0.5498 -0.2461
18096TIP3   OH275778   0.668   5.695  11.315  0.3831  0.3079 -0.8642
18096TIP3    H175779   0.754   5.732  11.333  1.8262 -2.5370 -1.2868
18096TIP3    H275780   0.653   5.633  11.387 -0.6578 -0.2258 -1.5149
18097TIP3   OH275781   3.673   6.115  16.326  0.4925  0.4249 -0.5216
18097TIP3    H175782   3.583   6.081  16.331  0.2935  0.6494 -2.1071
18097TIP3    H275783   3.666   6.192  16.270  1.3490  1.7168  1.0545
18098TIP3   OH275784   3.206   3.199  11.857 -0.0900 -0.4929  0.1127
18098TIP3    H175785   3.189   3.293  11.849  0.0402 -0.4236  0.6303
18098TIP3    H275786   3.182   3.163  11.772  1.9117  0.3296 -0.8741
18099TIP3   OH275787   4.470   3.337   5.053  0.1395  0.7613 -0.3943
18099TIP3    H175788   4.380   3.305   5.052  0.6606 -0.8420  0.5484
18099TIP3    H275789   4.467   3.416   4.999 -1.5589  0.0271 -1.4929
18100TIP3   OH275790   2.111   4.662  12.621 -0.0660 -0.4769  0.1466
18100TIP3    H175791   2.099   4.757  12.622 -1.0659 -0.5409 -1.6153
18100TIP3    H275792   2.090   4.634  12.710 -0.0279  0.9069  0.6200
18101TIP3   OH275793   1.501   6.809   3.045  0.4031  0.1420  0.6651
18101TIP3    H175794   1.513   6.819   3.139  1.6991  1.2137  0.4235
18101TIP3    H275795   1.589   6.819   3.009 -0.0300 -0.5259 -0.6456
18102TIP3   OH275796   6.422   1.496   6.953  0.0372 -0.7408  0.6484
18102TIP3    H175797   6.393   1.465   6.867 -3.2848  2.9182  0.1898
18102TIP3    H275798   6.361   1.456   7.014 -0.0285 -0.3504  0.8398
18103TIP3   OH275799   1.897   4.010  16.208 -0.3027  0.5672  0.4856
18103TIP3    H175800   1.978   4.003  16.158  1.1134 -2.4271  2.9171
18103TIP3    H275801   1.862   3.921  16.210 -1.9016  1.1658  2.2405
18104TIP3   OH275802   2.696   1.603   4.091 -0.3817  0.7399 -0.5669
18104TIP3    H175803   2.690   1.596   3.996 -0.3222 -1.0821 -0.4663
18104TIP3    H275804   2.606   1.587   4.122  0.2428 -3.0185 -0.1877
18105TIP3   OH275805   6.399   5.024   5.038  0.1740 -0.1560  0.2281
18105TIP3    H175806   6.397   5.003   4.945  0.0056 -1.4180  0.4939
18105TIP3    H275807   6.331   5.091   5.050  0.7052  0.5657 -0.6594
18106TIP3   OH275808   0.813   1.420  11.679 -0.3363  0.4157 -0.3901
18106TIP3    H175809   0.859   1.412  11.596 -0.4130 -0.5622 -0.3460
18106TIP3    H275810   0.759   1.499  11.669  0.2893  0.7777 -0.9468
18107TIP3   OH275811   0.654   4.178   1.926 -0.0218  0.2665 -0.2367
18107TIP3    H175812   0.589   4.208   1.862 -0.6700  0.1992  0.3829
18107TIP3    H275813   0.695   4.258   1.957 -0.6645  0.4113  0.2654
18108TIP3   OH275814   3.996   2.541   1.073 -0.3493  0.0236  0.1461
18108TIP3    H175815   4.068   2.579   1.023  0.2896 -0.4063  0.7262
18108TIP3    H275816   3.929   2.522   1.007  0.6944 -1.0554 -0.6646
18109TIP3   OH275817   0.667   4.586  11.777 -0.6092  0.2000 -0.8965
18109TIP3    H175818   0.761   4.605  11.769 -0.7806  1.3503 -0.5034
18109TIP3    H275819   0.632   4.661  11.826 -1.8317  0.0644 -1.5172
18110TIP3   OH275820   3.827   6.180   4.321  0.3988 -0.3535  0.4574
18110TIP3    H175821   3.903   6.217   4.276  0.6795 -2.1580 -0.6473
18110TIP3    H275822   3.781   6.257   4.355  1.3592  0.9610 -1.0046
18111TIP3   OH275823   1.673   6.459  16.057  0.4473  0.6270 -0.0663
18111TIP3    H175824   1.700   6.527  15.995 -0.1593  0.4223 -0.5635
18111TIP3    H275825   1.753   6.437  16.105  1.2579 -0.1874 -1.7178
18112TIP3   OH275826   4.848   5.107   2.174  0.2999 -0.3298 -0.0578
18112TIP3    H175827   4.836   5.091   2.267 -0.2223 -1.4502 -0.2879
18112TIP3    H275828   4.922   5.051   2.149 -1.0145 -1.8903 -0.7242
18113TIP3   OH275829   2.295   6.270  14.055  0.6410  0.0150 -0.3306
18113TIP3    H175830   2.296   6.183  14.093  1.4655 -0.2502 -0.9112
18113TIP3    H275831   2.222   6.315  14.097  1.4196 -0.2973  1.4593
18114TIP3   OH275832   2.721   5.830   0.114 -0.4297  0.0726  0.1934
18114TIP3    H175833   2.752   5.918   0.136  1.7814 -0.8553  1.1403
18114TIP3    H275834   2.684   5.796   0.195 -1.5750  0.1971 -0.2512
18115TIP3   OH275835   5.181   2.061   5.586 -0.1626  0.7615 -0.1092
18115TIP3    H175836   5.145   2.111   5.513  1.5673 -1.1321 -2.4413
18115TIP3    H275837   5.160   1.970   5.566  2.9709 -0.1190  0.0602
18116TIP3   OH275838   0.904   5.655   5.231  0.4622  0.4839  0.4158
18116TIP3    H175839   0.861   5.608   5.161  2.4890 -0.8340 -0.0250
18116TIP3    H275840   0.894   5.598   5.308  2.7045 -0.6936 -0.0640
18117TIP3   OH275841   1.040   6.554  15.322  0.1643 -0.0436 -0.3446
18117TIP3    H175842   1.032   6.531  15.414 -1.1359  0.2456 -0.3696
18117TIP3    H275843   1.135   6.562  15.307  0.4247 -0.9671  0.7317
18118TIP3   OH275844   1.647   3.170   0.238  0.4318 -0.2833  0.1679
18118TIP3    H175845   1.576   3.196   0.179  1.5474  0.5679 -0.8429
18118TIP3    H275846   1.645   3.235   0.308  0.4750 -0.0396 -0.0605
18119TIP3   OH275847   0.768   6.405   4.870  0.3464 -0.8180 -0.1276
18119TIP3    H175848   0.837   6.468   4.847  0.4968 -1.1957 -0.7393
18119TIP3    H275849   0.783   6.331   4.811 -1.2165 -0.4808 -0.9848
18120TIP3   OH275850   3.724   4.583  13.850  0.4050  0.7610  0.4637
18120TIP3    H175851   3.678   4.564  13.932 -0.8325 -1.0104 -0.5579
18120TIP3    H275852   3.664   4.640  13.803  1.0789  1.7088  0.7432
18121TIP3   OH275853   1.428   5.974  15.824 -0.6437  0.0130  0.0355
18121TIP3    H175854   1.343   5.960  15.783 -1.4394 -0.6269  1.8378
18121TIP3    H275855   1.408   6.010  15.910  0.9943  1.6632 -0.2034
18122TIP3   OH275856   2.269   5.004  17.120  0.0435  0.3725  0.6428
18122TIP3    H175857   2.220   5.012  17.202  0.0889 -3.7503  1.3196
18122TIP3    H275858   2.322   4.925  17.132  3.7432  2.2425 -1.6711
18123TIP3   OH275859   3.262   5.183  16.859 -0.2757  0.8059 -0.4970
18123TIP3    H175860   3.331   5.171  16.793  0.1149  1.7532 -0.2873
18123TIP3    H275861   3.192   5.123  16.832  1.0580 -1.0222 -0.0843
18124TIP3   OH275862   6.602   2.367   4.426 -0.3104  0.0756 -0.1469
18124TIP3    H175863   6.604   2.288   4.371  0.2881  0.6957 -1.0313
18124TIP3    H275864   6.635   2.337   4.511 -2.2113 -1.1282  0.2346
18125TIP3   OH275865   1.917   5.718   0.267  0.0372  0.2758 -0.2546
18125TIP3    H175866   1.963   5.782   0.320  1.4481  0.2482 -1.3790
18125TIP3    H275867   1.900   5.645   0.327 -2.7712  2.1037  1.4000
18126TIP3   OH275868   5.905   4.023   0.182  0.2296  0.9861 -0.4248
18126TIP3    H175869   5.902   3.941   0.231  1.1012  1.1478 -0.0676
18126TIP3    H275870   5.814   4.042   0.160 -0.2220  1.0348  1.3673
18127TIP3   OH275871   1.497   2.218  13.301  1.0166  0.3861  0.4754
18127TIP3    H175872   1.577   2.255  13.263  1.5027 -2.4203 -1.5645
18127TIP3    H275873   1.480   2.139  13.249 -3.6188  1.2745  0.1697
18128TIP3   OH275874   5.623   0.170   0.780 -0.1299  0.1454 -0.2739
18128TIP3    H175875   5.596   0.170   0.872 -1.0648  0.6660 -0.5344
18128TIP3    H275876   5.619   0.262   0.753 -0.3865 -0.0635 -0.9764
18129TIP3   OH275877   2.720   0.250  14.682 -0.1578  0.3308  0.1642
18129TIP3    H175878   2.814   0.243  14.695 -0.1406  1.4792  0.7915
18129TIP3    H275879   2.708   0.233  14.588  0.8425  1.5398 -0.2162
18130TIP3   OH275880   6.170   3.359   2.118 -0.0876  0.2660 -0.1576
18130TIP3    H175881   6.098   3.318   2.070  0.7613 -0.2587 -1.0058
18130TIP3    H275882   6.126   3.416   2.182 -1.2532  0.1679 -0.8356
18131TIP3   OH275883   5.809   5.851   1.516 -0.1054  0.8740  0.8234
18131TIP3    H175884   5.887   5.815   1.558 -0.9093 -1.9445  0.0956
18131TIP3    H275885   5.740   5.788   1.535 -2.3921  3.4144  1.7432
18132TIP3   OH275886   6.666   5.033   5.034 -0.0836 -0.5486  0.4296
18132TIP3    H175887   6.603   5.099   5.004  0.9336 -0.0795 -0.7659
18132TIP3    H275888   6.624   4.993   5.111 -2.0347 -0.5989 -0.6045
18133TIP3   OH275889   2.640   6.220  14.057  0.5198  0.0437  0.3732
18133TIP3    H175890   2.674   6.216  14.146 -0.3087 -0.8918  0.6752
18133TIP3    H275891   2.546   6.202  14.067  0.4225 -0.1012 -0.6900
18134TIP3   OH275892   6.232   2.679   0.097  0.6128  0.3681 -0.0608
18134TIP3    H175893   6.152   2.626   0.099  1.8130 -1.5613  0.2701
18134TIP3    H275894   6.285   2.638   0.029  2.7240 -0.6885  2.0736
18135TIP3   OH275895   2.562   5.140   4.005 -0.0377  0.5026 -0.5164
18135TIP3    H175896   2.606   5.193   4.071  1.3717 -1.3478  0.1058
18135TIP3    H275897   2.483   5.190   3.983  0.8287  2.4501  0.5752
18136TIP3   OH275898   3.329   4.188  12.975  0.3811  0.2837  0.3224
18136TIP3    H175899   3.417   4.204  13.010  1.4105 -2.6190 -0.6084
18136TIP3    H275900   3.275   4.173  13.052  1.6644 -1.8501  0.8959
18137TIP3   OH275901   5.234   4.219  11.853 -0.1401  0.1464 -0.0114
18137TIP3    H175902   5.175   4.256  11.919  0.4832 -0.3566  0.8516
18137TIP3    H275903   5.199   4.132  11.835  0.4857 -0.2654  0.7163
18138TIP3   OH275904   5.667   2.030  12.919 -0.2605 -0.1747  0.0378
18138TIP3    H175905   5.756   2.058  12.938 -0.5663  0.7485  0.1318
18138TIP3    H275906   5.611   2.098  12.956 -1.1385 -1.9514  2.2628
18139TIP3   OH275907   5.261   0.857   4.584 -0.0191 -0.0443  0.4984
18139TIP3    H175908   5.336   0.900   4.542  0.7743 -1.7345  0.0807
18139TIP3    H275909   5.242   0.911   4.661  0.9915  0.9679  0.0668
18140TIP3   OH275910   4.010   5.721  12.004  0.4798  0.1351  0.3580
18140TIP3    H175911   3.975   5.712  11.916  0.2837  1.1963  0.3172
18140TIP3    H275912   3.933   5.723  12.061  0.6078 -0.6109  0.5662
18141TIP3   OH275913   0.028   5.274   1.301 -0.1198 -0.2499  0.3697
18141TIP3    H175914   0.087   5.332   1.252  1.9829 -1.1557  1.6877
18141TIP3    H275915  -0.013   5.332   1.366  0.5227  0.1246  0.4503
18142TIP3   OH275916   0.728   5.340   4.065  0.0573 -0.4317  0.3834
18142TIP3    H175917   0.807   5.364   4.016  0.2597 -1.2374  0.3080
18142TIP3    H275918   0.666   5.313   3.998 -1.2679  2.7131  0.1658
18143TIP3   OH275919   5.202   2.448   0.022  0.2600 -0.0957  0.3597
18143TIP3    H175920   5.163   2.476  -0.061 -1.6998  0.3601  1.3517
18143TIP3    H275921   5.277   2.506   0.035 -1.1176  1.8192  0.2429
18144TIP3   OH275922   2.450   0.637   1.509 -0.6723 -0.0434  0.3993
18144TIP3    H175923   2.512   0.569   1.535  1.7087  1.3500 -1.2796
18144TIP3    H275924   2.387   0.591   1.454  0.3942 -1.0770 -0.0152
18145TIP3   OH275925   3.772   2.961  14.667 -0.2622  0.0783  0.2167
18145TIP3    H175926   3.747   3.015  14.742  2.9643  0.2940  1.2868
18145TIP3    H275927   3.794   3.024  14.599  0.5947  0.0278  0.4417
18146TIP3   OH275928   1.933   2.893  11.314 -0.7251  0.3552 -0.0476
18146TIP3    H175929   2.028   2.902  11.326 -0.1759 -2.5140 -1.2926
18146TIP3    H275930   1.904   2.980  11.287  1.5700  1.3084  0.3203
18147TIP3   OH275931   3.094   5.819  12.359  0.5309 -0.1582 -0.1836
18147TIP3    H175932   3.180   5.851  12.385  0.9614  0.0916 -1.8267
18147TIP3    H275933   3.112   5.737  12.313 -0.1558 -0.3159 -0.1864
18148TIP3   OH275934   0.917   3.027  17.226  0.4493  0.6181 -0.0531
18148TIP3    H175935   0.851   3.077  17.274  0.4713  1.5993 -1.0235
18148TIP3    H275936   0.995   3.033  17.280 -0.2138 -0.5384  1.0989
18149TIP3   OH275937   3.794   0.474  16.993 -0.4789  0.5969 -0.2287
18149TIP3    H175938   3.837   0.558  17.005  1.7303 -0.3712 -0.9536
18149TIP3    H275939   3.762   0.475  16.903 -1.5820  1.1200  0.1527
18150TIP3   OH275940   1.565   3.918  15.571  0.1778  0.2564  0.0809
18150TIP3    H175941   1.608   3.998  15.542  0.7862 -0.2883 -0.5406
18150TIP3    H275942   1.612   3.847  15.527 -1.1633 -0.3750 -0.3915
18151TIP3   OH275943   6.578   0.043   5.813 -0.2650  0.1218 -0.3557
18151TIP3    H175944   6.568  -0.031   5.872 -1.1639  0.2278 -0.3611
18151TIP3    H275945   6.587   0.004   5.727 -0.9606  0.0118 -0.3869
18152TIP3   OH275946   1.117   3.902  11.015  0.7316  0.2799  0.1109
18152TIP3    H175947   1.150   3.823  10.972 -1.1639 -0.6704  0.3374
18152TIP3    H275948   1.109   3.966  10.944  0.2675 -0.3948 -0.4521
18153TIP3   OH275949   3.560   0.522  14.626 -0.6385 -0.3594 -0.3532
18153TIP3    H175950   3.550   0.545  14.534  0.2585  0.8698 -0.1836
18153TIP3    H275951   3.643   0.563  14.652 -1.5116  0.4758  1.3203
18154TIP3   OH275952   4.820   3.263   5.583 -0.0151  0.4195  0.0384
18154TIP3    H175953   4.789   3.201   5.517 -0.3609  0.5151  0.1098
18154TIP3    H275954   4.858   3.208   5.652  2.0305  0.3715 -1.0580
18155TIP3   OH275955   2.579   4.565   3.417  0.3057  0.2912  0.4510
18155TIP3    H175956   2.558   4.474   3.395  0.4628  0.5656 -0.9251
18155TIP3    H275957   2.499   4.598   3.458 -0.6375  0.1957 -1.2152
18156TIP3   OH275958   1.822   1.346  10.444  0.0824 -0.8208 -0.5832
18156TIP3    H175959   1.750   1.407  10.436 -0.3484 -1.1329  0.6216
18156TIP3    H275960   1.898   1.393  10.411 -0.3881  0.0790 -0.4026
18157TIP3   OH275961   0.185   3.112  16.364 -0.3828 -0.1834 -0.2147
18157TIP3    H175962   0.170   3.195  16.320 -0.2307 -0.3232 -0.5354
18157TIP3    H275963   0.098   3.073  16.373 -0.4272 -0.0986 -0.2827
18158TIP3   OH275964   1.647   3.263   4.316  0.0999 -0.1745 -0.8476
18158TIP3    H175965   1.624   3.340   4.264 -1.4796  1.1963  1.7188
18158TIP3    H275966   1.599   3.191   4.273 -0.8380  0.8197 -1.5263
18159TIP3   OH275967   6.013   2.712  10.805 -0.4826 -0.5407  0.1404
18159TIP3    H175968   6.058   2.795  10.818 -0.5489 -0.5841  0.6701
18159TIP3    H275969   5.926   2.726  10.842 -0.1935 -1.1348  1.0885
18160TIP3   OH275970   2.640   0.431   4.128 -0.2832 -0.2432  0.4509
18160TIP3    H175971   2.545   0.437   4.139 -0.3300 -1.8427  1.0855
18160TIP3    H275972   2.676   0.455   4.213 -0.2433 -2.1853  1.0157
18161TIP3   OH275973   4.119   2.221  11.289  0.5009  0.3434 -0.0601
18161TIP3    H175974   4.046   2.218  11.351  0.6037  0.9906  0.1047
18161TIP3    H275975   4.126   2.132  11.255  0.3952 -0.0034  0.8095
18162TIP3   OH275976   0.898   6.647  14.932  0.2381  0.1860  0.2570
18162TIP3    H175977   0.810   6.678  14.910  0.2364 -0.7752 -1.2961
18162TIP3    H275978   0.948   6.726  14.949 -0.7574  0.7836  0.4856
18163TIP3   OH275979   3.010   4.904   2.636 -0.0669 -0.3963 -0.3604
18163TIP3    H175980   3.091   4.857   2.654  0.4537 -0.0982 -1.8543
18163TIP3    H275981   3.000   4.962   2.712  2.8879  1.9547 -1.5699
18164TIP3   OH275982   1.642   1.512  16.020 -0.7728  0.2044 -0.0356
18164TIP3    H175983   1.706   1.515  15.949  0.5022 -0.6658  1.0172
18164TIP3    H275984   1.692   1.536  16.098 -1.6100 -0.9392  0.8890
18165TIP3   OH275985   5.060   4.090   1.796 -0.2289 -0.4055  0.5067
18165TIP3    H175986   5.010   4.052   1.869 -0.8605  1.0384  0.8617
18165TIP3    H275987   5.036   4.036   1.721 -1.8960 -0.1304  0.7957
18166TIP3   OH275988   6.639   0.024   0.525 -0.2146 -0.7895 -0.0650
18166TIP3    H175989   6.558  -0.027   0.532 -0.7157 -0.3030 -1.7628
18166TIP3    H275990   6.609   0.114   0.511  0.6197 -0.5880 -0.5844
18167TIP3   OH275991   1.996   5.712   2.503 -0.2098 -0.2081 -0.2884
18167TIP3    H175992   2.091   5.700   2.495 -0.0839  0.8618 -0.5327
18167TIP3    H275993   1.979   5.796   2.462 -1.0798  0.2859  1.0314
18168TIP3   OH275994   4.256   1.246  16.855  0.2129  0.4068  0.5856
18168TIP3    H175995   4.322   1.187  16.817 -1.4893 -1.9188  1.0414
18168TIP3    H275996   4.252   1.319  16.794  0.8879 -0.9947 -1.2433
18169TIP3   OH275997   0.070   4.874   2.432 -0.1780 -0.2393  0.3781
18169TIP3    H175998   0.007   4.830   2.488 -1.7481  0.7867 -0.5079
18169TIP3    H275999   0.038   4.965   2.426  0.9742  0.1321 -0.6696
18170TIP3   OH276000   0.926   2.978   6.016  0.0486  0.2278 -0.1562
18170TIP3    H176001   1.004   3.001   6.066 -0.1526  0.3967  0.0816
18170TIP3    H276002   0.853   3.010   6.069 -0.1426  1.1833 -0.9498
18171TIP3   OH276003   0.141   1.634  17.021  0.0039 -0.1542  0.3295
18171TIP3    H176004   0.207   1.663  17.084  1.6970 -0.1431 -1.3464
18171TIP3    H276005   0.114   1.715  16.977 -1.2158 -0.1526  1.0405
18172TIP3   OH276006   0.274   6.195  14.341 -0.5402  0.0920 -0.5800
18172TIP3    H176007   0.315   6.271  14.299  2.5980 -0.3012  1.4064
18172TIP3    H276008   0.246   6.227  14.426  0.3068 -0.8029  0.0530
18173TIP3   OH276009   3.866   2.748   0.102  0.5500 -0.2033 -0.3443
18173TIP3    H176010   3.892   2.836   0.074 -0.0373 -0.0053 -0.2822
18173TIP3    H276011   3.772   2.756   0.120  0.2446 -1.1154 -1.4313
18174TIP3   OH276012   2.686   3.223  16.469 -0.3850  0.4005 -0.9470
18174TIP3    H176013   2.731   3.234  16.385  2.5807  0.7603  0.5515
18174TIP3    H276014   2.709   3.135  16.497  2.4295  1.7037  1.3667
18175TIP3   OH276015   0.154   4.077  14.194  0.1213  0.7123 -0.5749
18175TIP3    H176016   0.098   4.030  14.132  2.8107 -2.2954 -0.9691
18175TIP3    H276017   0.222   4.116  14.139  0.2878  1.4997  0.1783
18176TIP3   OH276018   5.575   5.007   5.454  0.3119 -0.2366  0.2786
18176TIP3    H176019   5.657   5.057   5.453  0.2646 -0.1590  0.3345
18176TIP3    H276020   5.511   5.067   5.491  0.4352 -0.6241  1.1493
18177TIP3   OH276021   0.123   0.012  12.491 -0.7272  0.0216  0.4466
18177TIP3    H176022   0.164  -0.071  12.516 -0.4068 -0.1461 -0.5856
18177TIP3    H276023   0.076   0.040  12.569  0.8027 -0.1147  1.4695
18178TIP3   OH276024   2.344   5.545   5.103  0.1669  0.2304  0.1951
18178TIP3    H176025   2.419   5.546   5.163 -1.9203  1.4909  2.9673
18178TIP3    H276026   2.317   5.453   5.101  2.0715 -0.3570 -1.3419
18179TIP3   OH276027   0.206   3.556   1.316  0.4482 -0.0882  0.0111
18179TIP3    H176028   0.271   3.490   1.292 -1.2716 -1.4809 -0.9203
18179TIP3    H276029   0.188   3.604   1.235 -1.2563 -1.1473 -0.2772
18180TIP3   OH276030   5.463   2.118  16.824 -0.5153  0.0511 -0.1444
18180TIP3    H176031   5.488   2.122  16.732 -0.7669  1.6617 -0.1598
18180TIP3    H276032   5.401   2.045  16.828 -1.1789  0.5125 -1.4116
18181TIP3   OH276033   4.585   1.173  11.011  0.2678  0.0369  0.5702
18181TIP3    H176034   4.500   1.208  11.036 -0.1915  0.2511 -1.1515
18181TIP3    H276035   4.578   1.079  11.025 -0.8235 -0.1470 -1.0007
18182TIP3   OH276036   6.504   3.687   0.788  0.4059 -0.4586 -0.1771
18182TIP3    H176037   6.461   3.618   0.736  0.4229  1.3738 -2.8065
18182TIP3    H276038   6.434   3.748   0.809  0.6914 -0.4237  0.7261
18183TIP3   OH276039   3.092   5.551   0.563 -0.1105  0.1685  0.7456
18183TIP3    H176040   3.110   5.565   0.655  0.3617  2.1907  0.3987
18183TIP3    H276041   2.997   5.566   0.555 -0.1317  0.1097  0.8854
18184TIP3   OH276042   6.067   1.794  11.992  0.2105 -0.3335 -0.3112
18184TIP3    H176043   6.051   1.743  12.071  1.5440  0.0697  0.2479
18184TIP3    H276044   6.146   1.845  12.011  1.1592 -0.9611 -2.2545
18185TIP3   OH276045   0.421   6.221  16.162  0.2836 -0.8676 -0.2336
18185TIP3    H176046   0.334   6.239  16.125 -0.2456  0.1745  1.4040
18185TIP3    H276047   0.468   6.304  16.153  0.4218 -0.8437  0.6463
18186TIP3   OH276048   3.719   3.324   1.315  0.4680 -0.7367  0.0660
18186TIP3    H176049   3.803   3.331   1.269  0.8939  0.1185  0.9571
18186TIP3    H276050   3.654   3.334   1.246  1.0805 -1.5736 -0.6646
18187TIP3   OH276051   3.819   0.659  14.521 -0.1888  0.8510 -0.4092
18187TIP3    H176052   3.858   0.604  14.453  1.0459 -1.4240  1.9558
18187TIP3    H276053   3.890   0.717  14.548 -0.7244  1.8608 -1.0872
18188TIP3   OH276054   0.152   4.282  14.613  0.1481  0.4910 -0.0182
18188TIP3    H176055   0.100   4.348  14.568  1.4518  1.2660 -0.4250
18188TIP3    H276056   0.205   4.331  14.677 -0.6107 -0.4325  1.3841
18189TIP3   OH276057   0.176   3.635   5.285  0.0706 -0.0448  0.4124
18189TIP3    H176058   0.118   3.649   5.209  0.4075  1.4478  0.3921
18189TIP3    H276059   0.125   3.667   5.359  0.5398  0.4911  0.5087
18190TIP3   OH276060   6.446   5.225  11.160 -0.0010 -0.5664  0.1425
18190TIP3    H176061   6.356   5.194  11.145 -0.1130 -0.6239  0.9054
18190TIP3    H276062   6.500   5.167  11.106 -0.5419  0.6497 -1.8214
18191TIP3   OH276063   3.809   6.142   0.685  0.2556  0.1843  0.2744
18191TIP3    H176064   3.766   6.227   0.689  2.4152  1.4142 -0.6114
18191TIP3    H276065   3.834   6.131   0.593 -0.4290 -1.6775  0.2649
18192TIP3   OH276066   5.508   4.554  16.980 -0.0098  0.2922 -0.1854
18192TIP3    H176067   5.465   4.639  16.970  0.3540  0.2584 -2.6212
18192TIP3    H276068   5.495   4.531  17.072 -1.8241  2.0610  0.0661
18193TIP3   OH276069   0.965   2.561  12.938 -0.0360 -0.1067  0.5401
18193TIP3    H176070   0.893   2.561  12.876  0.2279 -1.9828  0.1673
18193TIP3    H276071   1.001   2.472  12.933  2.3797  0.7827  0.6008
18194TIP3   OH276072   6.345   0.749  10.526  0.7814  1.1383  0.0863
18194TIP3    H176073   6.436   0.732  10.550  0.3582 -0.2657  0.7778
18194TIP3    H276074   6.337   0.716  10.436  0.9691  1.3459 -0.0084
18195TIP3   OH276075   3.183   5.881  14.282 -0.0997  0.0732 -0.3918
18195TIP3    H176076   3.246   5.948  14.255  2.4497 -2.4417 -1.1686
18195TIP3    H276077   3.127   5.869  14.206  0.4168  0.2352 -0.8033
18196TIP3   OH276078   6.757   1.124  16.167  0.3081  0.6459  0.0211
18196TIP3    H176079   6.826   1.187  16.147 -0.0613  0.8693 -0.5568
18196TIP3    H276080   6.704   1.119  16.087  0.0861 -0.0809  0.2005
18197TIP3   OH276081   3.031   4.554   4.972  0.5504 -0.1159 -0.6879
18197TIP3    H176082   3.068   4.612   5.039  0.5970 -1.0567  0.1176
18197TIP3    H276083   2.956   4.512   5.015  0.1011 -0.1439 -1.4847
18198TIP3   OH276084   3.915   3.547   3.729  0.3191 -0.3207  1.1660
18198TIP3    H176085   3.858   3.564   3.655  2.5426  0.1463 -0.5483
18198TIP3    H276086   3.909   3.452   3.742  1.3006 -0.7161 -0.8981
18199TIP3   OH276087   0.194   3.794  16.580 -0.0271  0.5659 -0.2215
18199TIP3    H176088   0.138   3.756  16.648  1.0872 -1.6035 -0.4240
18199TIP3    H276089   0.173   3.887  16.581 -3.3951 -0.0668 -0.0925
18200TIP3   OH276090   3.392   3.460  12.399  0.0839  0.6915 -0.4182
18200TIP3    H176091   3.348   3.377  12.418 -2.0409  1.4514 -1.6332
18200TIP3    H276092   3.462   3.436  12.338  0.5222 -0.3965  0.4902
18201TIP3   OH276093   2.453   3.958  11.484 -0.2525 -0.5609  0.0655
18201TIP3    H176094   2.446   3.974  11.578  0.8289  0.6573 -0.0362
18201TIP3    H276095   2.364   3.975  11.451  0.0990  2.7255  0.4043
18202TIP3   OH276096   3.568   5.849   1.743 -0.0778  0.3917  0.0280
18202TIP3    H176097   3.489   5.847   1.798  0.0058  1.9689  0.2247
18202TIP3    H276098   3.623   5.779   1.779 -1.0486 -0.2071  0.3887
18203TIP3   OH276099   5.302   2.170   4.449 -0.3452 -0.7577  0.0895
18203TIP3    H176100   5.335   2.218   4.373  0.6332 -0.0668  0.9116
18203TIP3    H276101   5.252   2.235   4.499 -0.5971 -1.0832  0.2614
18204TIP3   OH276102   4.793   4.313   3.365  0.2313 -0.0889 -0.5127
18204TIP3    H176103   4.747   4.306   3.281 -1.1286 -0.6909  0.2639
18204TIP3    H276104   4.756   4.243   3.419  1.2221  0.1714  0.5362
18205TIP3   OH276105   6.459   4.339  11.527 -0.0567  0.2043 -0.6285
18205TIP3    H176106   6.450   4.393  11.448  3.2593  1.6737 -0.1479
18205TIP3    H276107   6.506   4.261  11.498  0.0738  0.1734 -0.3402
18206TIP3   OH276108   6.045   0.722  15.513  0.0105 -0.0924  0.3367
18206TIP3    H176109   5.960   0.681  15.524  0.3879 -1.6681 -1.9394
18206TIP3    H276110   6.030   0.794  15.451  0.0110  0.9604  1.5155
18207TIP3   OH276111   3.567   3.511   4.724  0.0143 -0.4226 -0.0173
18207TIP3    H176112   3.574   3.576   4.795 -1.8834 -0.2156  0.0359
18207TIP3    H276113   3.512   3.442   4.760 -1.6270  0.0482 -1.5072
18208TIP3   OH276114   2.863   2.372  12.694  0.0372  0.2077 -0.2245
18208TIP3    H176115   2.801   2.443  12.709 -0.4996 -0.1860 -0.5143
18208TIP3    H276116   2.926   2.407  12.632  0.8637  1.0360  1.0350
18209TIP3   OH276117   5.751   1.141  15.654 -0.5315  0.1196 -0.1254
18209TIP3    H176118   5.680   1.101  15.602  0.0301 -1.6832  0.4178
18209TIP3    H276119   5.710   1.161  15.738 -0.3279 -1.4368  0.3879
18210TIP3   OH276120   1.609   1.147   0.436  0.3376  0.2931 -0.3809
18210TIP3    H176121   1.589   1.136   0.529 -0.9064  0.6147 -0.5891
18210TIP3    H276122   1.527   1.179   0.398  0.2893 -1.4641 -1.8996
18211TIP3   OH276123   5.125   6.442   4.780  0.2210  0.6909 -0.1200
18211TIP3    H176124   5.074   6.458   4.859  0.2151  0.2945 -0.0401
18211TIP3    H276125   5.070   6.474   4.709  0.1270  0.8336  0.0166
18212TIP3   OH276126   0.989   4.081  14.442  0.2741 -0.1942 -0.1293
18212TIP3    H176127   0.897   4.106  14.440  0.1032 -0.6621  0.9912
18212TIP3    H276128   0.991   3.992  14.405 -0.0504 -1.0233  1.7474
18213TIP3   OH276129   3.501   6.152   6.474  0.0471  0.2500 -0.6310
18213TIP3    H176130   3.422   6.203   6.458 -0.0209  0.6786  0.8720
18213TIP3    H276131   3.572   6.207   6.442 -0.2008  0.1556 -1.3673
18214TIP3   OH276132   5.411   4.801   5.312  0.0446  0.5463  0.6233
18214TIP3    H176133   5.436   4.844   5.394  0.1293  0.0432  0.8663
18214TIP3    H276134   5.490   4.805   5.258 -0.0904  1.1136  0.4584
18215TIP3   OH276135   5.381   5.498  15.876 -0.3651 -0.4804 -0.2072
18215TIP3    H176136   5.366   5.573  15.817  0.0201 -1.2472 -1.3073
18215TIP3    H276137   5.387   5.423  15.817 -1.4816 -1.5023  0.9268
18216TIP3   OH276138   6.264   2.548   5.125  0.2339 -0.0988  0.4356
18216TIP3    H176139   6.196   2.512   5.182 -1.0402 -1.5182 -1.8286
18216TIP3    H276140   6.313   2.472   5.094 -0.8583  0.2226 -2.4103
18217TIP3   OH276141   0.345   1.607  17.244 -0.1762  0.5717 -0.6564
18217TIP3    H176142   0.411   1.600  17.174  1.0731  0.6457  0.4794
18217TIP3    H276143   0.377   1.548  17.312 -2.2078 -0.7268 -0.7504
18218TIP3   OH276144   3.571   4.362  17.130 -0.2217  0.5753 -0.0009
18218TIP3    H176145   3.512   4.418  17.180  0.1548 -0.2448  1.3964
18218TIP3    H276146   3.652   4.414  17.122  1.0047 -0.5561  3.3797
18219TIP3   OH276147   0.965   3.085   5.699  0.1783  0.2074 -0.1880
18219TIP3    H176148   0.880   3.113   5.665  0.7447 -0.2898 -2.1247
18219TIP3    H276149   0.954   2.993   5.719 -0.5888  0.8079  2.5883
18220TIP3   OH276150   2.797   1.949   0.400 -0.4059  0.4646 -0.0981
18220TIP3    H176151   2.876   1.914   0.358 -1.3029 -0.1172 -1.3817
18220TIP3    H276152   2.756   2.003   0.333 -2.1334 -0.8767 -0.2009
18221TIP3   OH276153   6.586   4.869  11.105  0.9529  0.5047 -0.3366
18221TIP3    H176154   6.570   4.961  11.085 -0.3338  0.3578 -0.0678
18221TIP3    H276155   6.631   4.835  11.027 -1.1110  0.6993 -1.6813
18222TIP3   OH276156   6.777   5.316   4.064 -0.7563  0.0466 -0.1181
18222TIP3    H176157   6.727   5.339   3.986 -2.3309 -1.3704  0.4185
18222TIP3    H276158   6.750   5.226   4.084  2.7186 -1.2106 -0.3191
18223TIP3   OH276159   0.718   0.949   4.603 -0.0067 -0.4062  0.0129
18223TIP3    H176160   0.742   0.954   4.510  0.5846 -1.3204  0.1047
18223TIP3    H276161   0.794   0.985   4.648 -0.2022 -0.1727  0.1574
18224TIP3   OH276162   6.134   2.448   5.890  0.0128  0.2752  0.4441
18224TIP3    H176163   6.113   2.407   5.805 -1.1332  1.9236 -0.1081
18224TIP3    H276164   6.128   2.542   5.873  0.2651  0.6381  2.2453
18225TIP3   OH276165   5.630   1.609  10.892  0.1680  0.1498  0.5219
18225TIP3    H176166   5.719   1.641  10.906 -0.0116  0.7761  0.2522
18225TIP3    H276167   5.576   1.687  10.895 -0.5415 -0.3499  1.9966
18226TIP3   OH276168   6.144   4.460  14.068 -0.2315 -0.0052  0.4016
18226TIP3    H176169   6.077   4.419  14.012  1.5441 -0.7560 -1.2821
18226TIP3    H276170   6.173   4.389  14.125 -2.5937  0.9462  2.9899
18227TIP3   OH276171   4.259   3.388  13.487 -0.6397  1.1452  0.3768
18227TIP3    H176172   4.298   3.351  13.565 -1.7096 -0.4472  0.1985
18227TIP3    H276173   4.274   3.482  13.495  2.1098  0.7361  0.8732
18228TIP3   OH276174   1.489   5.140   4.640 -0.3028  0.5461  0.7865
18228TIP3    H176175   1.496   5.058   4.592  0.3839  2.0132 -1.8559
18228TIP3    H276176   1.396   5.165   4.632 -0.6471 -0.2232  2.1293
18229TIP3   OH276177   0.212   6.475   1.159 -0.5620  0.8908  0.2532
18229TIP3    H176178   0.236   6.474   1.067 -0.8595  0.7438  0.1763
18229TIP3    H276179   0.190   6.384   1.179  0.8963  0.6353  0.8365
18230TIP3   OH276180   6.005   1.500  13.353 -0.3434 -0.2401  0.3037
18230TIP3    H176181   5.964   1.438  13.292  1.2613 -1.2116  0.1659
18230TIP3    H276182   5.933   1.556  13.382 -1.9773 -2.5126  0.8737
18231TIP3   OH276183   3.392   1.403  15.358 -0.0082  0.2012  0.2623
18231TIP3    H176184   3.486   1.394  15.368  0.5560  1.0317 -2.9268
18231TIP3    H276185   3.374   1.364  15.272 -2.3603  1.0991  0.2727
18232TIP3   OH276186   6.212   2.532   1.715  0.3234  0.7080 -0.1695
18232TIP3    H176187   6.226   2.440   1.740  0.8709  1.2905  1.8612
18232TIP3    H276188   6.120   2.548   1.736  0.2277  0.6361 -0.5243
18233TIP3   OH276189   4.707   4.488  16.058  0.7344 -0.1962 -0.1825
18233TIP3    H176190   4.747   4.466  15.974  2.4652  0.1279  0.5161
18233TIP3    H276191   4.770   4.547  16.100 -0.2378 -0.1084  1.2071
18234TIP3   OH276192   5.630   3.469  14.762  0.4307 -0.2410 -0.2450
18234TIP3    H176193   5.597   3.512  14.684  1.0000 -1.1245 -1.0031
18234TIP3    H276194   5.644   3.539  14.825  0.3663  0.5398 -1.0865
18235TIP3   OH276195   3.941   1.404   2.145 -0.0922  0.2162  0.4822
18235TIP3    H176196   3.878   1.348   2.099 -1.3355  1.3502  0.7295
18235TIP3    H276197   3.945   1.367   2.234  1.1735 -1.0726 -0.0738
18236TIP3   OH276198   4.663   5.414  13.586  0.9698 -0.7181 -0.2354
18236TIP3    H176199   4.755   5.439  13.596  0.8109  0.0857 -0.6917
18236TIP3    H276200   4.664   5.345  13.520  1.0482  0.8404 -1.9364
18237TIP3   OH276201   0.444   1.420  12.251  0.3932 -0.1448  0.1878
18237TIP3    H176202   0.349   1.407  12.256  0.4432 -0.5211  0.2305
18237TIP3    H276203   0.457   1.478  12.176 -0.0033  1.3967  1.2647
18238TIP3   OH276204   2.078   2.983   3.943  0.2001 -0.0119 -0.1486
18238TIP3    H176205   2.072   2.959   3.851 -0.7491 -1.0774  0.1724
18238TIP3    H276206   2.130   2.914   3.983  0.8305  0.5807  0.0878
18239TIP3   OH276207   3.461   1.793   4.827 -0.1192  0.1395 -0.2329
18239TIP3    H176208   3.455   1.889   4.832 -0.9877  0.1014 -0.4003
18239TIP3    H276209   3.370   1.764   4.820  0.1976 -0.6333 -1.3296
18240TIP3   OH276210   1.275   1.876  15.168  0.8004  0.1944  0.0141
18240TIP3    H176211   1.193   1.921  15.144 -0.0180 -0.7450  1.0115
18240TIP3    H276212   1.338   1.908  15.103  0.0838  2.2234  0.2188
18241TIP3   OH276213   5.436   3.107   5.441  0.5831 -0.4552 -0.2136
18241TIP3    H176214   5.426   3.114   5.536  1.3490  0.4409 -0.1879
18241TIP3    H276215   5.530   3.098   5.427  0.8552  2.5132 -1.0156
18242TIP3   OH276216   6.796   6.787  11.717 -0.4959  0.4979  0.2166
18242TIP3    H176217   6.761   6.737  11.642  1.5513 -0.9216  0.1342
18242TIP3    H276218   6.718   6.816  11.764 -1.8185 -0.8402 -1.0226
18243TIP3   OH276219   2.158   0.163   0.069 -0.2160  0.5283  0.4941
18243TIP3    H176220   2.166   0.188   0.161 -0.2368 -0.0473  0.6541
18243TIP3    H276221   2.073   0.197   0.042  0.2645  1.6768  0.3720
18244TIP3   OH276222   2.306   5.896  13.205 -0.0464  0.1181  0.1371
18244TIP3    H176223   2.287   5.802  13.207  0.5447  0.0025  0.6416
18244TIP3    H276224   2.402   5.901  13.205 -0.0585  0.7076 -1.1811
18245TIP3   OH276225   4.565   3.011  15.967 -0.7432 -0.2138 -0.4805
18245TIP3    H176226   4.500   2.959  16.013 -0.3928 -0.1527  0.0831
18245TIP3    H276227   4.526   3.099  15.963  0.2096  0.3794  1.7992
18246TIP3   OH276228   3.727   3.570  16.943  0.4964 -0.4220  0.2388
18246TIP3    H176229   3.738   3.582  16.849 -3.0737  1.1505 -0.1502
18246TIP3    H276230   3.700   3.656  16.975  2.9058 -0.5655  3.0414
18247TIP3   OH276231   3.628   0.833  11.182 -0.7695  0.0675  0.3795
18247TIP3    H176232   3.669   0.834  11.096 -1.5127  0.4903  0.0152
18247TIP3    H276233   3.539   0.801  11.166 -0.9532  0.2712  0.9674
18248TIP3   OH276234   0.898   4.299   0.356 -0.2944 -0.4737 -0.3553
18248TIP3    H176235   0.923   4.386   0.386 -2.1462 -0.4928  1.4525
18248TIP3    H276236   0.977   4.265   0.312  1.1997  1.2035  0.8845
18249TIP3   OH276237   1.046   1.538  13.043  0.1643 -0.1131 -0.0464
18249TIP3    H176238   1.081   1.625  13.025 -1.2319  0.1913 -1.5316
18249TIP3    H276239   1.119   1.478  13.025  0.1343  0.5149 -2.6965
18250TIP3   OH276240   1.974   2.699  12.026  0.3306  0.0749  0.2142
18250TIP3    H176241   1.985   2.756  11.950 -0.9357 -0.1376 -0.1386
18250TIP3    H276242   1.883   2.671  12.022  0.8642 -1.7996  0.5043
18251TIP3   OH276243   6.223   1.287   2.064  0.1231 -0.1751  0.3825
18251TIP3    H176244   6.233   1.357   1.999 -1.3224  0.0771  0.3877
18251TIP3    H276245   6.233   1.330   2.148 -0.0592 -0.1065  0.3692
18252TIP3   OH276246   1.419   5.299  15.137  0.6484 -0.2855  0.3547
18252TIP3    H176247   1.441   5.382  15.094 -1.8430 -0.6618 -1.9350
18252TIP3    H276248   1.373   5.326  15.216  0.2985  0.5408 -0.1093
18253TIP3   OH276249   4.733   6.057   4.707 -0.7282 -0.2664 -0.3514
18253TIP3    H176250   4.822   6.039   4.678 -0.8901 -2.2166  0.2150
18253TIP3    H276251   4.713   6.144   4.672 -0.1979 -1.5388 -4.3672
18254TIP3   OH276252   4.215   1.547  16.262  0.0129 -0.7106  0.1207
18254TIP3    H176253   4.142   1.492  16.288  0.8800 -1.3155  1.3586
18254TIP3    H276254   4.206   1.555  16.167 -0.8104 -1.9896  0.0643
18255TIP3   OH276255   2.695   0.418   4.434 -0.2013 -0.4703 -0.4916
18255TIP3    H176256   2.732   0.470   4.506 -0.9222 -1.2748  0.4896
18255TIP3    H276257   2.701   0.328   4.464 -3.3263 -0.6490 -0.0476
18256TIP3   OH276258   0.765   3.755   0.381  0.1271 -0.4099  0.1897
18256TIP3    H176259   0.808   3.705   0.451  0.1470 -0.7364 -0.0529
18256TIP3    H276260   0.789   3.846   0.397 -0.5688 -0.3715  1.1273
18257TIP3   OH276261   1.380   5.041   1.524 -0.3793  0.2215  0.5173
18257TIP3    H176262   1.467   5.012   1.499  0.4921  1.8554  1.4611
18257TIP3    H276263   1.334   5.052   1.441  0.5473  0.0266 -0.0327
18258TIP3   OH276264   2.304   4.448  10.731 -0.2231 -0.1800  0.4442
18258TIP3    H176265   2.241   4.515  10.703  0.3035  0.5566  0.9911
18258TIP3    H276266   2.384   4.470  10.683  0.3825  0.4759  1.7269
18259TIP3   OH276267   5.458   6.356   0.361  0.3851 -0.8972  0.2024
18259TIP3    H176268   5.493   6.352   0.450  1.8344  1.1812 -0.2307
18259TIP3    H276269   5.534   6.348   0.304 -0.2409  0.2038 -0.8258
18260TIP3   OH276270   2.895   0.005  16.640 -0.1360  0.5170 -0.2301
18260TIP3    H176271   2.876  -0.044  16.561 -1.2749  0.7919 -0.1349
18260TIP3    H276272   2.955  -0.051  16.690  0.6808  0.3937 -1.3248
18261TIP3   OH276273   3.945   3.765  16.893  0.0444 -0.4843  0.4114
18261TIP3    H176274   3.967   3.685  16.940 -2.5030 -2.1957 -1.0728
18261TIP3    H276275   3.983   3.753  16.805  0.4966  0.4400  0.4581
18262TIP3   OH276276   0.618   4.250   3.223 -0.4925 -0.3776 -0.3869
18262TIP3    H176277   0.626   4.325   3.283 -0.2775  0.5776 -1.5806
18262TIP3    H276278   0.530   4.257   3.188  0.3442  0.8301 -2.4078
18263TIP3   OH276279   4.549   3.423   5.288 -0.3630 -0.2969 -0.1378
18263TIP3    H176280   4.631   3.373   5.292  0.4091  0.8127 -1.2301
18263TIP3    H276281   4.509   3.395   5.206  0.6858  1.7059 -1.4018
18264TIP3   OH276282   3.060   6.617   1.592  0.3173  0.2151  0.1651
18264TIP3    H176283   3.084   6.709   1.582  0.4728  0.2084  0.5036
18264TIP3    H276284   3.093   6.591   1.677  1.7242 -0.6167 -0.6002
18265TIP3   OH276285   5.865   1.849   0.562  0.9020 -0.2386 -0.1937
18265TIP3    H176286   5.863   1.923   0.623  0.8864 -1.3314  1.1628
18265TIP3    H276287   5.958   1.831   0.549  0.9017 -0.1186 -0.3752
18266TIP3   OH276288   1.959   0.955   2.844  0.5336 -0.6127 -0.2878
18266TIP3    H176289   2.037   0.961   2.900 -0.5447 -3.7539  1.7863
18266TIP3    H276290   1.908   1.033   2.867  0.8893 -0.9697  1.9371
18267TIP3   OH276291   3.424   4.034   2.549 -0.1782 -0.1581  0.0117
18267TIP3    H176292   3.404   4.119   2.511  2.6570  0.5566 -0.1457
18267TIP3    H276293   3.502   4.050   2.602  0.2553 -2.6046  0.2241
18268TIP3   OH276294   5.280   5.390  15.396  0.6375 -1.0557  0.2762
18268TIP3    H176295   5.272   5.423  15.486 -0.7208 -0.6910  0.0458
18268TIP3    H276296   5.267   5.468  15.341  0.9133 -1.3735 -0.2384
18269TIP3   OH276297   6.576   2.963   1.259  0.0785  0.4940 -0.2475
18269TIP3    H176298   6.613   2.921   1.336  0.9955 -0.0303 -0.9446
18269TIP3    H276299   6.482   2.946   1.264  0.3823 -1.4918 -0.3824
18270TIP3   OH276300   3.275   1.008   5.589  0.1327  0.1658 -0.5334
18270TIP3    H176301   3.311   0.962   5.664 -1.2807  1.3043  0.9162
18270TIP3    H276302   3.334   0.986   5.516  2.6955  0.5836  1.2888
18271TIP3   OH276303   4.166   5.015   3.382 -0.2981  0.1431 -0.2076
18271TIP3    H176304   4.211   5.098   3.395 -0.5230  0.3743 -0.8648
18271TIP3    H276305   4.143   5.015   3.289  0.6367 -1.1152 -0.4681
18272TIP3   OH276306   5.330   5.418   0.250 -0.7294 -0.4214  0.2143
18272TIP3    H176307   5.319   5.359   0.325 -1.6275  0.4426  0.7913
18272TIP3    H276308   5.255   5.478   0.256  0.7067  1.4567  0.2934
18273TIP3   OH276309   1.459   2.489   5.332 -0.1198  0.1773 -0.4084
18273TIP3    H176310   1.455   2.526   5.420  1.3897  0.3456 -0.3794
18273TIP3    H276311   1.405   2.547   5.279 -1.4604 -0.2098  0.4692
18274TIP3   OH276312   6.153   6.784  11.190 -0.0126  0.5963 -0.2359
18274TIP3    H176313   6.094   6.716  11.222 -0.0814  0.9154  0.3330
18274TIP3    H276314   6.118   6.807  11.104  0.1841 -0.2832 -0.5564
18275TIP3   OH276315   6.680   2.652   2.626 -0.2600 -0.4540  0.0262
18275TIP3    H176316   6.651   2.622   2.540 -1.4229 -1.2792  0.6768
18275TIP3    H276317   6.760   2.602   2.643  0.1154 -0.0952 -0.6824
18276TIP3   OH276318   3.942   2.364  13.911  0.1416 -0.3082 -0.2981
18276TIP3    H176319   3.865   2.415  13.883 -1.0670 -1.8583  0.0388
18276TIP3    H276320   4.003   2.371  13.837  0.0044  1.5179 -0.2937
18277TIP3   OH276321   4.083   1.708  13.516 -0.0531  0.6312 -0.0285
18277TIP3    H176322   4.127   1.765  13.579  0.3790  0.7313 -0.4155
18277TIP3    H276323   4.019   1.659  13.569 -0.8942  1.9325  0.2024
18278TIP3   OH276324   3.761   4.354  14.060  0.6411  0.3201  0.3324
18278TIP3    H176325   3.705   4.349  14.138 -0.3277  0.4301 -0.3260
18278TIP3    H276326   3.795   4.265  14.050 -0.1788  0.0060  0.2224
18279TIP3   OH276327   2.545   2.286   3.019  0.6620 -0.4122 -0.4585
18279TIP3    H176328   2.579   2.371   3.047  1.9810 -1.0181 -0.1863
18279TIP3    H276329   2.468   2.308   2.965  0.4641  0.9067  0.3162
18280TIP3   OH276330   0.397   0.899  15.044  0.4102 -0.3003 -0.1844
18280TIP3    H176331   0.414   0.908  14.951  0.3807 -1.4166 -0.3151
18280TIP3    H276332   0.333   0.967  15.064 -0.4897 -0.8064 -1.2341
18281TIP3   OH276333   4.085   0.341   5.108 -0.0240 -0.2186 -1.0179
18281TIP3    H176334   4.013   0.393   5.144 -0.0909 -2.0751  1.8813
18281TIP3    H276335   4.164   0.376   5.151 -0.0196 -2.0729  0.6280
18282TIP3   OH276336   3.791   2.853  14.278  0.2132  0.3314  0.2134
18282TIP3    H176337   3.849   2.892  14.344  0.5392  0.4369 -0.1302
18282TIP3    H276338   3.776   2.764  14.309 -0.5872  0.7446  1.0421
18283TIP3   OH276339   5.172   6.299   4.273  0.1183  0.2407  0.1659
18283TIP3    H176340   5.143   6.390   4.263  0.6782  0.3233 -0.7299
18283TIP3    H276341   5.246   6.304   4.334  0.4286  0.4332 -0.2285
18284TIP3   OH276342   5.962   5.673  13.805  0.3989 -0.0619  0.3292
18284TIP3    H176343   5.898   5.741  13.828 -0.0449 -0.6843  0.9757
18284TIP3    H276344   6.025   5.718  13.749 -0.4837  0.6246 -0.1494
18285TIP3   OH276345   4.646   5.798   0.069  0.1195  0.2121  0.2651
18285TIP3    H176346   4.613   5.888   0.060  1.3002  0.5728 -0.6075
18285TIP3    H276347   4.571   5.743   0.045  0.3166  1.0252 -2.5287
18286TIP3   OH276348   1.792   3.336  11.861  0.3637  0.4852  0.8571
18286TIP3    H176349   1.803   3.337  11.956  0.5716  0.9304  0.8317
18286TIP3    H276350   1.705   3.373  11.847 -0.6028 -1.5966  0.9768
18287TIP3   OH276351   2.787   6.500  13.807 -0.3878  0.0183  0.6492
18287TIP3    H176352   2.796   6.529  13.898 -1.5915  0.1720  0.7345
18287TIP3    H276353   2.805   6.406  13.811  3.8996  0.6453  0.3103
18288TIP3   OH276354   1.167   2.588   1.531 -0.0890  0.2201 -0.2780
18288TIP3    H176355   1.247   2.640   1.537 -0.5732  0.8461  1.3028
18288TIP3    H276356   1.124   2.600   1.616 -2.3337  0.6395 -1.3942
18289TIP3   OH276357   1.542   3.447  11.791 -0.0491  0.1651  0.3211
18289TIP3    H176358   1.475   3.410  11.733 -0.1972 -0.1375  0.6806
18289TIP3    H276359   1.566   3.530  11.749 -1.1315  0.6049  0.5168
18290TIP3   OH276360   1.834   5.665  14.113  0.5231 -0.9848 -0.2841
18290TIP3    H176361   1.837   5.571  14.092  3.0344 -1.2329  0.7737
18290TIP3    H276362   1.827   5.667  14.208 -1.3541 -0.0142 -0.3996
18291TIP3   OH276363   1.554   6.746  12.572 -0.6333  0.2496  0.3935
18291TIP3    H176364   1.530   6.809  12.639  0.0386  0.2619  0.6324
18291TIP3    H276365   1.620   6.690  12.614 -0.3394  0.1440 -0.1970
18292TIP3   OH276366   1.485   5.990  15.413  0.1318 -0.6487  0.3969
18292TIP3    H176367   1.548   5.921  15.394 -0.6351 -0.9527 -1.1553
18292TIP3    H276368   1.408   5.968  15.361 -0.9777  0.1621  1.6145
18293TIP3   OH276369   2.398   1.423   2.706  0.2855  0.2404 -0.2989
18293TIP3    H176370   2.358   1.487   2.647  0.6893  1.2944  0.5288
18293TIP3    H276371   2.324   1.382   2.751  0.0271  0.2796 -0.6859
18294TIP3   OH276372   5.827   2.570  16.446  0.4981  0.0643 -0.3008
18294TIP3    H176373   5.878   2.582  16.366 -0.8849  0.4336 -1.1580
18294TIP3    H276374   5.875   2.619  16.513  2.1103 -0.9047 -0.6815
18295TIP3   OH276375   4.011   2.212  10.837  0.2569 -0.0016  0.1882
18295TIP3    H176376   4.081   2.148  10.828 -0.2830 -0.7809  1.1771
18295TIP3    H276377   3.944   2.183  10.776  0.7076  0.6328 -0.6182
18296TIP3   OH276378   0.800   4.669  13.270 -0.1584 -0.6813 -0.4074
18296TIP3    H176379   0.847   4.732  13.216  1.8866 -0.9346  0.9676
18296TIP3    H276380   0.846   4.587  13.257 -0.9615 -1.2310  0.1074
18297TIP3   OH276381   1.781   3.276  15.714  0.5646 -0.3179 -0.1273
18297TIP3    H176382   1.740   3.252  15.631  0.2234 -0.8034  0.1776
18297TIP3    H276383   1.827   3.197  15.742 -0.9510 -0.8157  1.1131
18298TIP3   OH276384   6.665   5.517   5.304  0.1779 -0.4735 -0.0864
18298TIP3    H176385   6.717   5.441   5.330  1.8857 -0.6773 -3.5009
18298TIP3    H276386   6.709   5.550   5.225  0.6236  5.1883  2.0784
18299TIP3   OH276387   4.821   5.374   1.196 -0.1071  0.6811  0.1499
18299TIP3    H176388   4.896   5.413   1.150  0.4076 -1.0705 -0.5899
18299TIP3    H276389   4.824   5.281   1.172 -1.6018  0.2745  1.3820
18300TIP3   OH276390   1.988   4.817   4.258  0.1313  0.2675 -0.3724
18300TIP3    H176391   2.014   4.900   4.297  0.0144  0.5808 -0.9532
18300TIP3    H276392   1.936   4.773   4.326  1.0732  0.2040  0.3148
18301TIP3   OH276393   3.638   0.792   1.993 -0.0325  0.0983  0.2207
18301TIP3    H176394   3.581   0.838   1.932 -0.1228 -0.4789 -0.1387
18301TIP3    H276395   3.606   0.816   2.080 -0.0408  0.7511  0.0427
18302TIP3   OH276396   5.446   3.596  11.618  0.0003 -0.0069 -0.4831
18302TIP3    H176397   5.480   3.507  11.611  1.3774  0.3772  0.7742
18302TIP3    H276398   5.353   3.584  11.640  0.2177 -1.1326 -0.1086
18303TIP3   OH276399   0.846   6.552  12.631 -0.1263 -0.0161 -0.1650
18303TIP3    H176400   0.883   6.466  12.648  0.4777  0.0329 -1.1909
18303TIP3    H276401   0.757   6.534  12.600  0.4209 -0.3640 -1.6218
18304TIP3   OH276402   0.478   2.787   5.693  0.3151 -0.4938  0.1603
18304TIP3    H176403   0.394   2.829   5.714  0.6551 -0.1261  0.8349
18304TIP3    H276404   0.467   2.755   5.604  0.7546  2.9660 -1.2830
18305TIP3   OH276405   2.566   1.853   1.841 -0.1936 -0.5976  0.3098
18305TIP3    H176406   2.554   1.853   1.747  0.4207 -1.4692  0.2226
18305TIP3    H276407   2.478   1.838   1.877 -0.6911  1.1463 -0.0482
18306TIP3   OH276408   0.561   1.881   4.504 -0.0030  0.2597 -0.2100
18306TIP3    H176409   0.485   1.825   4.521  0.3877 -0.1678  0.1410
18306TIP3    H276410   0.567   1.937   4.580 -0.2274  0.5951 -0.4370
18307TIP3   OH276411   5.136   0.160  14.128 -0.4131 -0.4634 -0.0838
18307TIP3    H176412   5.131   0.104  14.051 -1.0453  0.4795 -0.7367
18307TIP3    H276413   5.182   0.238  14.099 -1.4984  0.3156  0.2280
18308TIP3   OH276414   6.048   0.644  14.886 -0.1913  0.6878 -0.5107
18308TIP3    H176415   5.992   0.715  14.918 -0.3538  0.3856 -0.1266
18308TIP3    H276416   6.089   0.608  14.965 -2.3688 -1.6091 -0.3070
18309TIP3   OH276417   0.858   1.839   2.697  0.3436  0.4051 -0.0904
18309TIP3    H176418   0.867   1.757   2.649 -0.0586 -0.3781  1.1380
18309TIP3    H276419   0.934   1.842   2.755 -0.4025  0.1626  0.9235
18310TIP3   OH276420   1.536   1.451  13.321 -0.5099  0.7075 -0.6835
18310TIP3    H176421   1.461   1.392  13.331 -0.7823  1.0603 -0.6491
18310TIP3    H276422   1.529   1.511  13.395  0.6453 -0.1804  0.1788
18311TIP3   OH276423   0.674   4.622  14.486  0.3208  0.0514  0.2114
18311TIP3    H176424   0.708   4.550  14.540  0.3780 -0.4121 -0.4344
18311TIP3    H276425   0.620   4.674  14.546  1.4017  0.2682  1.0285
18312TIP3   OH276426   6.579   5.723   3.528 -0.7275 -0.0528  0.1909
18312TIP3    H176427   6.567   5.783   3.455  1.1194  0.9301  0.6284
18312TIP3    H276428   6.650   5.665   3.500  0.3488  0.6588  1.3566
18313TIP3   OH276429   3.539   3.798   2.251 -0.0858 -1.1646  0.3481
18313TIP3    H176430   3.452   3.788   2.213  0.0513 -1.6108  0.1373
18313TIP3    H276431   3.575   3.876   2.210 -0.0707 -1.4473 -0.1907
18314TIP3   OH276432   0.712   3.262   4.302  0.3225  0.4514 -0.4081
18314TIP3    H176433   0.675   3.173   4.302  0.4077  0.4158 -0.6797
18314TIP3    H276434   0.802   3.250   4.331  0.7409  0.2753 -1.7219
18315TIP3   OH276435   5.397   3.687   4.196  0.6398  0.0397  0.3206
18315TIP3    H176436   5.492   3.681   4.191  0.6884 -0.5552  1.4543
18315TIP3    H276437   5.369   3.599   4.222 -0.4441 -0.4771 -2.3073
18316TIP3   OH276438   1.565   2.187  16.054  0.3956 -0.0962  0.1388
18316TIP3    H176439   1.474   2.162  16.067  0.4816  0.3681  1.8945
18316TIP3    H276440   1.593   2.139  15.977 -1.5535  0.3558 -0.8927
18317TIP3   OH276441   1.269   1.529   5.004 -0.4414 -0.1018  0.0885
18317TIP3    H176442   1.353   1.564   4.975 -1.4061  3.0710  0.7507
18317TIP3    H276443   1.231   1.490   4.926  0.6326  0.6210 -0.8256
18318TIP3   OH276444   2.525   3.982   6.022 -0.3908  0.2670  0.8019
18318TIP3    H176445   2.613   3.955   5.994  0.0697  1.1209  1.3952
18318TIP3    H276446   2.466   3.932   5.965  0.4755 -0.0911  0.1886
18319TIP3   OH276447   5.100   1.609   2.370 -0.6865 -0.2372  0.1389
18319TIP3    H176448   5.117   1.522   2.334 -1.2070 -0.6570  0.8899
18319TIP3    H276449   5.068   1.660   2.295 -0.9511 -0.8568 -0.1770
18320TIP3   OH276450   0.259   0.560  14.712 -0.4700  0.1823 -0.2648
18320TIP3    H176451   0.335   0.550  14.654 -1.6387 -1.2440 -1.6293
18320TIP3    H276452   0.184   0.563  14.653 -1.6503 -0.5217  1.1469
18321TIP3   OH276453   5.942   2.041  12.998  0.3793  0.5306 -0.0665
18321TIP3    H176454   6.021   2.016  13.047  0.9854  1.2698 -0.6281
18321TIP3    H276455   5.971   2.113  12.942 -1.0837  1.9598  0.9189
18322TIP3   OH276456   1.900   6.360   4.354  0.2270  0.0878 -0.6683
18322TIP3    H176457   1.881   6.365   4.261 -0.3007  0.1817 -0.5620
18322TIP3    H276458   1.981   6.409   4.366 -0.3114  1.0600 -0.9070
18323TIP3   OH276459   6.230   1.730   3.471  0.2278  1.0300 -0.5602
18323TIP3    H176460   6.183   1.647   3.476  1.5968  0.3064  1.9477
18323TIP3    H276461   6.162   1.796   3.460 -1.1833 -0.1482  0.6870
18324TIP3   OH276462   1.307   3.719   4.228  0.2369 -0.0350 -0.0616
18324TIP3    H176463   1.308   3.812   4.207  1.4295  0.1281  0.6267
18324TIP3    H276464   1.363   3.711   4.305  0.3849 -1.3629 -0.2810
18325TIP3   OH276465   1.734   4.333   0.223  0.3326 -0.2303  0.5226
18325TIP3    H176466   1.712   4.369   0.137 -1.5019 -1.1230  0.5647
18325TIP3    H276467   1.658   4.353   0.278  0.7711 -1.0821  1.4739
18326TIP3   OH276468   6.142   0.156  11.659 -0.0525  0.0949  0.1664
18326TIP3    H176469   6.130   0.196  11.573  2.9619  0.1742 -0.3408
18326TIP3    H276470   6.186   0.073  11.641  2.4282  0.9753  1.6094
18327TIP3   OH276471   5.529   2.511   3.695 -0.4213 -0.8390  0.0876
18327TIP3    H176472   5.565   2.526   3.782 -1.3743 -1.5526  0.6377
18327TIP3    H276473   5.449   2.460   3.712 -1.0529 -0.2797 -1.1438
18328TIP3   OH276474   3.320   5.453  15.666 -0.0921  0.0932 -0.5557
18328TIP3    H176475   3.370   5.414  15.739 -1.7509 -1.4072 -0.1484
18328TIP3    H276476   3.369   5.428  15.588 -0.1960 -1.4319 -0.1744
18329TIP3   OH276477   4.289   1.726  11.561  0.4248 -0.4029  0.1188
18329TIP3    H176478   4.283   1.667  11.636 -2.7520 -0.4343 -0.0331
18329TIP3    H276479   4.315   1.671  11.488  0.9358 -0.8951  0.6670
18330TIP3   OH276480   4.761   0.603  12.526  0.4905 -0.1145 -0.1962
18330TIP3    H176481   4.805   0.562  12.601  0.4741  0.4853  0.1404
18330TIP3    H276482   4.781   0.544  12.453 -1.3687 -1.9591  0.6762
18331TIP3   OH276483   4.895   0.575  12.789  0.6910 -0.9952 -0.0981
18331TIP3    H176484   4.956   0.620  12.847  0.0781 -0.7139  0.3345
18331TIP3    H276485   4.811   0.616  12.806  0.0466 -2.4850  0.5304
18332TIP3   OH276486   6.420   1.451   3.664  0.1717  0.1892  0.1140
18332TIP3    H176487   6.460   1.464   3.578 -0.3639  1.0445 -0.0159
18332TIP3    H276488   6.453   1.365   3.693 -0.8719 -0.8726 -1.6394
18333TIP3   OH276489   5.738   0.934   4.405 -0.4379 -0.0665 -0.4553
18333TIP3    H176490   5.671   0.956   4.470 -0.6248 -1.3066 -0.2025
18333TIP3    H276491   5.806   1.000   4.418 -0.1940 -0.6350  1.4225
18334TIP3   OH276492   1.725   5.908   0.319 -0.5604 -0.1532 -0.1112
18334TIP3    H176493   1.785   5.842   0.285 -2.0731 -0.7317 -1.8689
18334TIP3    H276494   1.686   5.868   0.397 -0.7446 -0.9637 -0.6080
18335TIP3   OH276495   2.335   4.154  16.708 -0.8234 -0.2627  0.6689
18335TIP3    H176496   2.395   4.217  16.748 -0.8074  2.0054 -2.5158
18335TIP3    H276497   2.249   4.197  16.714 -1.1137 -0.7387 -0.0045
18336TIP3   OH276498   6.284   4.300  15.130 -0.6768  0.1258 -0.4319
18336TIP3    H176499   6.273   4.244  15.206  0.0819 -0.4855 -0.7585
18336TIP3    H276500   6.365   4.270  15.089 -0.4760  1.1849 -0.8563
18337TIP3   OH276501   5.255   3.201  12.509 -0.4018  0.6393 -0.0521
18337TIP3    H176502   5.179   3.248  12.474 -0.0395  0.5676 -0.9604
18337TIP3    H276503   5.278   3.138  12.440  0.9487  1.1759 -0.1211
18338TIP3   OH276504   2.536   4.319  16.859 -0.3626  0.1225  0.4627
18338TIP3    H176505   2.546   4.411  16.836  0.4344  0.4824  2.1289
18338TIP3    H276506   2.550   4.316  16.954 -2.4092 -1.4230  0.7905
18339TIP3   OH276507   2.086   0.631  13.823  0.1171  0.2699  0.5385
18339TIP3    H176508   2.169   0.668  13.792 -0.1968  1.2038  0.7650
18339TIP3    H276509   2.022   0.661  13.759  0.2246 -2.1808 -0.8124
18340TIP3   OH276510   0.177   1.127   5.718  0.2043  0.6582  0.6754
18340TIP3    H176511   0.252   1.069   5.733  0.5347  0.4232 -1.5768
18340TIP3    H276512   0.101   1.071   5.726  0.3726  0.4950  1.1445
18341TIP3   OH276513   2.847   2.801  13.645  0.0278  0.0522 -0.2164
18341TIP3    H176514   2.903   2.877  13.627 -0.7371  0.9154  0.9547
18341TIP3    H276515   2.903   2.741  13.695  0.8087 -0.4435 -1.6144
18342TIP3   OH276516   5.405   1.254   3.848  0.5132 -0.3793 -0.3378
18342TIP3    H176517   5.383   1.282   3.758  0.2818 -0.8775 -0.4374
18342TIP3    H276518   5.451   1.329   3.885  0.7157 -0.2116 -0.9145
18343TIP3   OH276519   0.254   5.650   0.439 -0.1577  0.0408  0.5345
18343TIP3    H176520   0.230   5.740   0.462 -1.3253 -0.7332  2.6088
18343TIP3    H276521   0.259   5.651   0.343 -1.1772  2.0687  0.4342
18344TIP3   OH276522   3.523   0.430  14.340 -0.3134  0.2979 -0.5092
18344TIP3    H176523   3.614   0.405  14.329 -0.3619 -0.3085  0.3534
18344TIP3    H276524   3.486   0.428  14.252  0.9902  2.6036 -1.1862
18345TIP3   OH276525   1.119   6.050   5.554  0.2398  0.2411  0.0804
18345TIP3    H176526   1.161   5.988   5.613  1.2657  1.5624  0.7844
18345TIP3    H276527   1.058   5.996   5.503  0.6898 -1.2408  1.0290
18346TIP3   OH276528   2.181   0.586  13.245 -0.4281 -0.5243 -0.0709
18346TIP3    H176529   2.245   0.515  13.255  1.6009  1.4047  1.5586
18346TIP3    H276530   2.167   0.593  13.151  1.0460 -1.6375 -0.4151
18347TIP3   OH276531   4.621   5.749  15.536  0.5088 -0.2092  0.7996
18347TIP3    H176532   4.645   5.691  15.464  0.5690 -1.7294  1.9859
18347TIP3    H276533   4.598   5.832  15.494 -1.8520 -1.7313 -1.1822
18348TIP3   OH276534   6.149   2.871   0.848  1.0895 -0.6780  0.1645
18348TIP3    H176535   6.173   2.837   0.762 -0.5883  0.9300 -1.0332
18348TIP3    H276536   6.220   2.931   0.871  2.4979 -2.5010  0.8591
18349TIP3   OH276537   0.576   1.325  16.732 -0.6768 -0.0056  0.0046
18349TIP3    H176538   0.550   1.284  16.814 -0.3307 -1.0250 -0.3747
18349TIP3    H276539   0.566   1.419  16.747  1.8501  0.0122  2.0662
18350TIP3   OH276540   4.069   3.105  12.105 -0.4703  0.4062 -0.4494
18350TIP3    H176541   4.111   3.115  12.019 -0.0074 -0.6810 -0.3641
18350TIP3    H276542   4.138   3.125  12.168  0.1548 -1.9586 -0.2981
18351TIP3   OH276543   2.306   4.389   3.064 -0.1908  0.2238 -0.4526
18351TIP3    H176544   2.265   4.395   2.977  0.0738  0.5237 -0.5606
18351TIP3    H276545   2.379   4.328   3.052 -1.3623 -1.3139  0.0443
18352TIP3   OH276546   4.601   6.195  15.894  0.3957 -0.1346  0.1837
18352TIP3    H176547   4.613   6.271  15.951 -1.5008 -0.9591  1.8261
18352TIP3    H276548   4.581   6.123  15.954 -2.5939 -0.8668 -1.4524
18353TIP3   OH276549   3.295   1.699  17.256  0.5532  0.3216 -0.5964
18353TIP3    H176550   3.344   1.618  17.270 -0.2970 -0.2485 -0.8921
18353TIP3    H276551   3.211   1.684  17.299  1.0225  1.7248  0.9318
18354TIP3   OH276552   3.014   1.678  17.304  0.4913 -0.1526 -0.2123
18354TIP3    H176553   2.958   1.665  17.228 -1.1942  0.1475  0.9324
18354TIP3    H276554   2.988   1.764  17.339 -2.1075 -2.1151  3.2917
18355TIP3   OH276555   4.584   2.577   3.493 -0.3061 -0.2385  0.3423
18355TIP3    H176556   4.558   2.485   3.491  1.2518 -0.6788 -0.9778
18355TIP3    H276557   4.666   2.579   3.541 -0.3106  0.4642  0.3398
18356TIP3   OH276558   5.009   1.156   3.984 -0.1420 -0.1875 -0.1778
18356TIP3    H176559   4.965   1.160   4.068  0.7711  0.1076  0.2997
18356TIP3    H276560   4.965   1.221   3.930 -0.6939 -0.3370  0.0898
18357TIP3   OH276561   2.765   4.951  11.920 -0.0463 -0.7452  0.0271
18357TIP3    H176562   2.808   4.866  11.924 -0.7953 -1.1282  4.0695
18357TIP3    H276563   2.687   4.941  11.974 -0.5459  2.3256  0.0649
18358TIP3   OH276564   0.994   4.470  14.102 -0.2837  0.3904  0.1667
18358TIP3    H176565   0.949   4.542  14.146  0.4195  0.3423  0.9945
18358TIP3    H276566   1.080   4.506  14.081  0.3926 -0.4452  1.3606
18359TIP3   OH276567   0.000   0.961   3.478  0.1187  0.1893 -0.6108
18359TIP3    H176568  -0.088   0.930   3.497 -0.1379  0.7891 -0.7681
18359TIP3    H276569   0.014   0.940   3.385 -0.2165  0.8918 -0.8301
18360TIP3   OH276570   0.584   4.634   1.328  0.4634  0.0384 -0.0379
18360TIP3    H176571   0.556   4.647   1.237  2.0295  0.9113 -0.4395
18360TIP3    H276572   0.649   4.564   1.323 -0.5806 -1.0170  0.6689
18361TIP3   OH276573   1.520   3.508   4.201  0.0470  0.3463 -0.1602
18361TIP3    H176574   1.443   3.479   4.250  0.1718  0.5097  0.1379
18361TIP3    H276575   1.531   3.600   4.226 -0.1818  0.5800 -0.8813
18362TIP3   OH276576   2.250   6.093  15.084  0.1964  0.5343  0.2432
18362TIP3    H176577   2.258   6.089  14.989  0.3579 -0.9485  0.2926
18362TIP3    H276578   2.329   6.137  15.113 -0.5887  2.4758 -0.3762
18363TIP3   OH276579   2.222   5.687  11.795 -0.0230  0.1220 -0.0246
18363TIP3    H176580   2.203   5.781  11.795 -1.1859 -0.0910  0.3114
18363TIP3    H276581   2.154   5.649  11.739  1.1786 -0.4062 -1.1760
18364TIP3   OH276582   1.742   4.635   0.726 -0.3511 -0.2250  0.0056
18364TIP3    H176583   1.782   4.667   0.645 -1.3209  2.3803  0.4378
18364TIP3    H276584   1.803   4.661   0.795 -0.7234 -0.1305  0.3053
18365TIP3   OH276585   5.971   4.490  11.220  0.6612 -0.6675  0.1543
18365TIP3    H176586   5.999   4.408  11.261 -1.0117 -0.7995  1.1655
18365TIP3    H276587   5.947   4.546  11.294 -2.6370 -0.9726 -0.5063
18366TIP3   OH276588   5.168   3.531  12.034 -0.1820 -0.1375  0.2932
18366TIP3    H176589   5.149   3.461  12.096  1.0390 -0.9911 -0.2446
18366TIP3    H276590   5.228   3.589  12.081 -0.5356  0.1041  0.4523
18367TIP3   OH276591   4.291   6.451   2.064  0.0275  0.6835 -0.2182
18367TIP3    H176592   4.384   6.452   2.041 -0.0750 -0.9283 -0.8786
18367TIP3    H276593   4.251   6.515   2.005  0.8194  2.0816  0.7102
18368TIP3   OH276594   2.311   4.005  13.256 -0.4305 -0.3817  0.6268
18368TIP3    H176595   2.280   4.093  13.236 -1.5124 -0.8370  0.2359
18368TIP3    H276596   2.379   3.989  13.191  0.1937  0.3703  1.0684
18369TIP3   OH276597   2.935   6.431  12.993  0.1792  0.2836  0.3869
18369TIP3    H176598   2.938   6.454  13.086  0.0011 -0.1241  0.4974
18369TIP3    H276599   2.873   6.358  12.988  0.4777  0.0513  0.0017
18370TIP3   OH276600   0.249   2.534   4.926  0.3591  0.1855 -0.3514
18370TIP3    H176601   0.191   2.609   4.925  0.6297  0.4019  0.1564
18370TIP3    H276602   0.194   2.461   4.897  0.1592  0.6153 -1.0793
18371TIP3   OH276603   2.551   4.051   2.867  0.1247 -0.1634  0.3556
18371TIP3    H176604   2.596   3.979   2.911  0.3714 -0.7348 -0.8188
18371TIP3    H276605   2.617   4.120   2.858  0.5781 -0.7307 -0.7268
18372TIP3   OH276606   4.116   3.885   3.462 -0.4912  0.6899 -0.1980
18372TIP3    H176607   4.082   3.816   3.406 -0.3236  1.9945 -2.0085
18372TIP3    H276608   4.143   3.840   3.542 -1.2932 -1.1661 -0.9133
18373TIP3   OH276609   0.233   5.438   1.501 -0.3673 -0.5093  0.1168
18373TIP3    H176610   0.143   5.454   1.473 -0.1688  0.6432  0.0969
18373TIP3    H276611   0.250   5.506   1.567  0.7186 -0.2767 -0.3897
18374TIP3   OH276612   4.436   5.067   5.722 -0.1250  0.3439 -0.1937
18374TIP3    H176613   4.350   5.054   5.762 -0.3980  0.7097 -0.6530
18374TIP3    H276614   4.454   5.160   5.734 -0.5154  0.6099 -1.4970
18375TIP3   OH276615   6.404   0.367   5.912 -0.2846  0.0958  0.3954
18375TIP3    H176616   6.346   0.297   5.943  0.5026  0.0368  1.8352
18375TIP3    H276617   6.486   0.353   5.960  0.0598  1.7001  0.3361
18376TIP3   OH276618   3.502   2.449  11.802  0.1005  0.1779  0.0091
18376TIP3    H176619   3.448   2.401  11.738 -0.2899 -1.7749  1.6943
18376TIP3    H276620   3.440   2.488  11.862  0.5051 -0.4783  0.8709
18377TIP3   OH276621   5.496   5.846   1.890 -0.0355  0.9086 -0.0789
18377TIP3    H176622   5.560   5.780   1.862 -0.0023  1.0424 -0.3192
18377TIP3    H276623   5.506   5.849   1.985 -0.1076  0.4935 -0.0534
18378TIP3   OH276624   0.721   2.316   5.544  0.1057 -0.5577 -0.6953
18378TIP3    H176625   0.642   2.311   5.599  0.3146  1.5299 -0.1248
18378TIP3    H276626   0.782   2.254   5.584  0.1947  0.7832  1.4296
18379TIP3   OH276627   1.372   4.920  11.548  0.5868  0.1788  0.1639
18379TIP3    H176628   1.376   5.000  11.496  0.3962  1.0649  1.4671
18379TIP3    H276629   1.408   4.852  11.491 -0.5814  0.9013 -1.4836
18380TIP3   OH276630   5.384   2.980   2.423  0.0688 -0.4046  0.4414
18380TIP3    H176631   5.387   2.900   2.475 -0.5077 -0.6031  0.1789
18380TIP3    H276632   5.438   2.961   2.346  0.0352 -0.5001  0.4412
18381TIP3   OH276633   4.976   0.089  14.580 -0.1600  0.0281 -0.1966
18381TIP3    H176634   4.986   0.015  14.638 -2.3773 -0.0974  0.1385
18381TIP3    H276635   4.964   0.050  14.493  3.0299  0.2108 -0.8309
18382TIP3   OH276636   3.317   2.395  13.318 -0.4256  0.4315  0.6010
18382TIP3    H176637   3.405   2.432  13.315 -0.7700  1.2743  0.6934
18382TIP3    H276638   3.331   2.300  13.321  0.5369  0.5745  2.1713
18383TIP3   OH276639   4.984   3.575  13.313 -0.2173  0.5679 -0.2022
18383TIP3    H176640   5.027   3.553  13.396 -1.3600 -0.8169  0.0610
18383TIP3    H276641   5.041   3.537  13.246 -0.4388 -0.2862  0.0830
18384TIP3   OH276642   3.575   0.366  14.914 -0.0319 -0.0314 -0.3041
18384TIP3    H176643   3.638   0.354  14.843 -0.3962 -1.2959 -0.4348
18384TIP3    H276644   3.586   0.457  14.940  0.2016  0.4217 -1.8913
18385TIP3   OH276645   0.287   5.994  15.544 -0.5139 -0.1597  0.2995
18385TIP3    H176646   0.294   5.901  15.521 -0.1160 -0.1400  0.3280
18385TIP3    H276647   0.364   6.034  15.504 -0.7034  0.1664  0.2549
18386TIP3   OH276648   6.280   0.216   3.856 -0.0032 -0.0120 -0.5726
18386TIP3    H176649   6.334   0.197   3.933 -0.2819 -2.4689 -0.8819
18386TIP3    H276650   6.199   0.251   3.892 -1.1497 -3.4543  0.6191
18387TIP3   OH276651   3.133   0.372   0.085 -0.0926 -0.2127 -0.7073
18387TIP3    H176652   3.151   0.338  -0.002  2.5065  2.0361 -1.1954
18387TIP3    H276653   3.148   0.299   0.144  1.8306 -0.8574 -1.9191
18388TIP3   OH276654   4.290   1.773   0.397  0.4201  0.1722  0.0188
18388TIP3    H176655   4.320   1.689   0.363  0.3498  0.5220 -0.9340
18388TIP3    H276656   4.357   1.797   0.461  0.8422 -0.2522 -0.2491
18389TIP3   OH276657   3.980   5.737  15.403 -0.2648 -0.5249 -0.3975
18389TIP3    H176658   3.966   5.829  15.380 -1.0837 -0.4966  0.2017
18389TIP3    H276659   4.066   5.736  15.446 -0.3825  0.0022 -0.1473
18390TIP3   OH276660   3.180   4.700  14.723 -0.4307 -0.0395  0.3206
18390TIP3    H176661   3.111   4.654  14.674 -0.9420 -0.6280  1.5474
18390TIP3    H276662   3.157   4.687  14.815  0.0013  1.8184  0.7326
18391TIP3   OH276663   2.330   4.105  12.757 -0.0553 -0.4997 -0.2568
18391TIP3    H176664   2.332   4.045  12.682 -0.7507 -0.0254 -0.6646
18391TIP3    H276665   2.240   4.136  12.760  0.5081  1.2714 -0.6474
18392TIP3   OH276666   3.113   3.487   4.128  0.5634 -0.8174  0.8859
18392TIP3    H176667   3.020   3.497   4.148  0.4800  0.2449  0.0784
18392TIP3    H276668   3.128   3.392   4.128 -0.3126 -0.9736  1.8829
18393TIP3   OH276669   5.087   2.118  15.625  0.2887  1.0251  0.7759
18393TIP3    H176670   5.064   2.210  15.612 -0.6128  0.5784 -1.2009
18393TIP3    H276671   5.004   2.074  15.641  0.3840  0.2432 -0.6607
18394TIP3   OH276672   5.908   2.275  14.267  0.5502 -0.0405  0.6944
18394TIP3    H176673   5.889   2.340  14.199  1.3475 -1.4811 -0.9954
18394TIP3    H276674   5.974   2.316  14.322 -0.0572  1.1375  0.5753
18395TIP3   OH276675   5.202   6.378   2.725 -0.1173 -0.0367 -0.5123
18395TIP3    H176676   5.236   6.467   2.728 -0.1662  0.0226 -1.3236
18395TIP3    H276677   5.126   6.379   2.783  1.0401 -0.0858  1.0630
18396TIP3   OH276678   2.776   1.956   5.265  0.2734  0.5003 -0.5169
18396TIP3    H176679   2.859   2.002   5.255 -0.3643  3.0466  3.5944
18396TIP3    H276680   2.798   1.879   5.318  0.3370 -0.1995 -1.5461
18397TIP3   OH276681   5.230   0.695  14.248 -0.3127 -0.0662 -0.2468
18397TIP3    H176682   5.276   0.616  14.276  0.6149  0.7292  0.5436
18397TIP3    H276683   5.288   0.735  14.183  0.8604  1.6380  1.7108
18398TIP3   OH276684   6.688   2.340  17.263 -0.0090  0.2560 -0.1789
18398TIP3    H176685   6.743   2.262  17.271  0.0172  0.3654  0.7719
18398TIP3    H276686   6.750   2.413  17.257 -0.0391  0.3455  0.5276
18399TIP3   OH276687   1.051   1.970  15.063 -0.3158  0.1676 -0.1090
18399TIP3    H176688   0.996   1.896  15.037 -0.4548  0.0789  0.4268
18399TIP3    H276689   0.991   2.045  15.062 -0.0944  0.3419 -0.9956
18400TIP3   OH276690   1.292   1.641  12.893 -0.7029 -0.9492  0.3868
18400TIP3    H176691   1.308   1.645  12.988  0.8634 -1.9160  0.2140
18400TIP3    H276692   1.377   1.661  12.854 -1.3574 -0.4685 -0.8293
18401TIP3   OH276693   0.414   3.392   5.672  0.1158 -0.4752  0.4253
18401TIP3    H176694   0.385   3.427   5.756 -0.0470 -1.2519  0.7035
18401TIP3    H276695   0.349   3.325   5.650 -0.4809  0.4790 -0.8792
18402TIP3   OH276696   3.003   4.635   6.017 -0.2225  0.1990 -0.0495
18402TIP3    H176697   3.041   4.563   5.968 -0.9458  0.6789 -1.3841
18402TIP3    H276698   2.932   4.595   6.067  0.0990 -0.1940  0.0967
18403TIP3   OH276699   0.489   0.789   0.023  0.2101  0.0491  0.6851
18403TIP3    H176700   0.488   0.695   0.003 -1.1143  0.4256 -1.2036
18403TIP3    H276701   0.523   0.830  -0.056  0.2495  1.2199  1.2960
18404TIP3   OH276702   2.566   0.504   2.426 -0.0648 -0.3445 -0.2875
18404TIP3    H176703   2.522   0.538   2.347 -0.8281 -2.2545 -0.7467
18404TIP3    H276704   2.537   0.562   2.496 -0.4977  0.5597 -1.1905
18405TIP3   OH276705   0.301   4.169  15.749 -0.1616  0.1385  0.1905
18405TIP3    H176706   0.355   4.090  15.758 -0.8665 -0.2286  1.6168
18405TIP3    H276707   0.313   4.216  15.832  0.9543  2.0378 -0.9802
18406TIP3   OH276708   1.756   5.006  14.137 -0.2877  0.1374 -0.6165
18406TIP3    H176709   1.790   5.054  14.062 -0.8692  1.9323  0.2106
18406TIP3    H276710   1.796   5.048  14.213 -0.1608 -1.2620  0.1365
18407TIP3   OH276711   6.404   0.513   2.188  0.1778  0.3543 -0.4434
18407TIP3    H176712   6.450   0.592   2.218 -0.1114  0.0597  0.8408
18407TIP3    H276713   6.474   0.451   2.169  0.3715 -0.0923  1.5092
18408TIP3   OH276714   6.190   4.877   3.388 -0.2095  0.4163  0.6747
18408TIP3    H176715   6.150   4.930   3.319  1.4101  1.5157  0.5389
18408TIP3    H276716   6.128   4.805   3.401 -2.0863  1.8921  0.3102
18409TIP3   OH276717   5.403   3.467   6.196 -0.0293  0.5170  0.2152
18409TIP3    H176718   5.351   3.547   6.185 -0.3970  0.1079 -1.2294
18409TIP3    H276719   5.366   3.406   6.133 -0.8505 -1.3982  2.4237
18410TIP3   OH276720   2.087   2.599   0.785 -0.5244  0.4394 -0.2698
18410TIP3    H176721   2.026   2.529   0.808 -2.3411  1.8862 -0.3937
18410TIP3    H276722   2.034   2.679   0.793  1.8128  1.9464  1.2535
18411TIP3   OH276723   2.520   5.849  14.611 -0.2116 -0.1691 -0.2946
18411TIP3    H176724   2.500   5.836  14.704 -1.4433  0.8114 -0.3993
18411TIP3    H276725   2.607   5.890  14.611 -1.3382  2.4540  0.6180
18412TIP3   OH276726   6.606   2.865   1.515 -0.1354 -0.4338 -0.1349
18412TIP3    H176727   6.550   2.922   1.566  0.6564 -0.8403  1.2423
18412TIP3    H276728   6.565   2.778   1.523  0.5734 -0.6982  0.7295
18413TIP3   OH276729   4.284   6.193  12.547 -0.0406  0.2932  0.3019
18413TIP3    H176730   4.191   6.208  12.535 -0.1338 -0.0217  0.5867
18413TIP3    H276731   4.308   6.248  12.622  0.0126  0.4155  0.1947
18414TIP3   OH276732   5.648   6.216  14.672  0.0866  0.3609  0.2705
18414TIP3    H176733   5.645   6.286  14.738  1.6052 -0.0551  0.8278
18414TIP3    H276734   5.658   6.136  14.723  0.5260 -0.0396 -0.4340
18415TIP3   OH276735   4.033   6.388  15.186  0.0620  0.4481 -0.5861
18415TIP3    H176736   4.012   6.479  15.166  4.1999  1.8786  0.6825
18415TIP3    H276737   4.066   6.352  15.104  2.4549  1.5102 -0.1497
18416TIP3   OH276738   1.045   0.681  14.240 -0.2388  0.6087  0.4975
18416TIP3    H176739   0.977   0.717  14.297  0.0740  1.4044  0.3867
18416TIP3    H276740   1.125   0.727  14.266 -0.0199  0.7065 -0.3084
18417TIP3   OH276741   4.245   3.948  13.941  0.0866 -0.0511  0.4400
18417TIP3    H176742   4.284   4.020  13.891  0.7160 -1.6004 -1.4011
18417TIP3    H276743   4.276   3.962  14.031  2.5547  0.4189 -0.4113
18418TIP3   OH276744   3.014   4.363  16.903 -0.2206  0.1245  0.1764
18418TIP3    H176745   3.058   4.425  16.844  0.3870 -0.4003  0.0744
18418TIP3    H276746   3.042   4.390  16.991  1.0140 -0.7202  0.0737
18419TIP3   OH276747   3.152   0.801   5.251 -0.0741 -0.0604  0.2869
18419TIP3    H176748   3.081   0.802   5.315 -0.3128  1.0800  0.0379
18419TIP3    H276749   3.188   0.890   5.254  0.7601 -0.3700 -0.2309
18420TIP3   OH276750   5.997   1.250   1.153 -0.7919  0.3966 -0.3773
18420TIP3    H176751   6.040   1.298   1.224 -0.2865 -0.7936  0.1533
18420TIP3    H276752   6.029   1.160   1.162 -2.2510 -0.2066 -0.8869
18421TIP3   OH276753   4.863   3.508   3.928  0.4638 -0.0341 -0.3963
18421TIP3    H176754   4.916   3.435   3.958  0.2906  0.3149  0.8451
18421TIP3    H276755   4.817   3.475   3.851 -0.1698 -1.4926  0.5622
18422TIP3   OH276756   1.510   1.808   6.727 -0.5208  0.3664  0.1097
18422TIP3    H176757   1.438   1.744   6.725  0.5266 -0.8611 -0.2486
18422TIP3    H276758   1.585   1.760   6.691 -0.3309  2.6290 -2.9741
18423TIP3   OH276759   5.997   5.772  14.737  0.3653 -0.3229  0.3341
18423TIP3    H176760   5.910   5.808  14.754  0.4587  1.2867 -2.0851
18423TIP3    H276761   6.047   5.794  14.816 -0.9650  0.2069  1.0767
18424TIP3   OH276762   5.403   4.731   4.237  0.0491 -0.2800 -0.2056
18424TIP3    H176763   5.441   4.700   4.319  0.2178 -0.9514 -0.5297
18424TIP3    H276764   5.464   4.797   4.205 -1.1620  1.6912  1.3420
18425TIP3   OH276765   4.612   5.419  15.085  0.5316 -0.3942 -0.2184
18425TIP3    H176766   4.557   5.368  15.026  0.8374 -0.8430 -0.1276
18425TIP3    H276767   4.702   5.403  15.054  0.6980 -0.6631  0.3758
18426TIP3   OH276768   2.722   2.813   1.633  0.1245 -0.3069 -0.2989
18426TIP3    H176769   2.657   2.764   1.583  2.1376 -2.0622 -1.4118
18426TIP3    H276770   2.804   2.798   1.586  1.6342  0.4286  1.9228
18427TIP3   OH276771   6.458   5.737   4.624  0.0616  0.4039 -0.3465
18427TIP3    H176772   6.366   5.758   4.641 -0.3515 -1.8799  0.6363
18427TIP3    H276773   6.502   5.755   4.707  0.2523  0.2026 -0.4037
18428TIP3   OH276774   6.763   6.168   3.403  0.5764 -0.0064  0.8260
18428TIP3    H176775   6.775   6.260   3.427 -4.7569  0.7883  1.7518
18428TIP3    H276776   6.786   6.119   3.482 -0.1918  0.9653  1.6821
18429TIP3   OH276777   5.359   3.727  16.430 -0.6087 -0.1747 -0.6949
18429TIP3    H176778   5.319   3.646  16.461 -2.8223  0.0690 -2.6674
18429TIP3    H276779   5.331   3.793  16.494  0.4784 -0.7527  0.4256
18430TIP3   OH276780   0.020   5.484   0.713  0.3132  0.0782 -0.2801
18430TIP3    H176781   0.099   5.536   0.697  1.3446 -0.7786  1.6826
18430TIP3    H276782   0.044   5.396   0.683 -0.4547  0.1334 -1.0779
18431TIP3   OH276783   6.521   0.772   4.428 -0.3818 -0.3467  0.3977
18431TIP3    H176784   6.448   0.745   4.372 -0.3232 -1.0581  0.6507
18431TIP3    H276785   6.479   0.819   4.500 -0.5677 -0.5180  0.4019
18432TIP3   OH276786   2.214   4.456  12.463  0.1637  0.1185  0.4019
18432TIP3    H176787   2.218   4.514  12.387  1.4471  1.6372  1.5641
18432TIP3    H276788   2.204   4.515  12.538  0.6255 -1.2171  1.5707
18433TIP3   OH276789   3.877   1.229   1.384  0.0763 -0.2115 -0.6789
18433TIP3    H176790   3.896   1.248   1.292  0.0052  3.7240 -0.0388
18433TIP3    H276791   3.964   1.224   1.425  0.0969  1.1882 -0.5008
18434TIP3   OH276792   1.506   5.872   1.334 -0.4415  0.5085 -0.0563
18434TIP3    H176793   1.433   5.933   1.321  0.6253  1.9337  0.3125
18434TIP3    H276794   1.495   5.840   1.424 -0.6223  0.7151 -0.0041
18435TIP3   OH276795   6.767   6.240  15.284  0.3640  0.3399 -0.2445
18435TIP3    H176796   6.801   6.201  15.365  1.9224 -0.1349 -1.0880
18435TIP3    H276797   6.707   6.174  15.250  0.5132  0.0770 -0.0077
18436TIP3   OH276798   1.964   5.005  11.792 -0.2438  0.1475  0.1002
18436TIP3    H176799   2.038   5.049  11.833 -0.9018  0.8418  0.5694
18436TIP3    H276800   1.957   4.921  11.838 -0.1052  0.3260  0.4492
18437TIP3   OH276801   1.718   5.037   4.892  0.0730  0.0878  0.6392
18437TIP3    H176802   1.662   5.062   4.818 -0.1733 -0.7595  0.5164
18437TIP3    H276803   1.806   5.035   4.856 -0.0984 -0.7910  0.2128
18438TIP3   OH276804   2.616   1.108  13.514  0.0973 -0.5068  0.0390
18438TIP3    H176805   2.605   1.137  13.604 -0.7686 -0.4097 -0.0884
18438TIP3    H276806   2.585   1.181  13.461  0.2217 -0.7162 -0.3281
18439TIP3   OH276807   0.447   6.703   0.852 -0.1905  0.0990  0.1473
18439TIP3    H176808   0.411   6.615   0.862  1.6489 -1.2671 -3.4405
18439TIP3    H276809   0.420   6.730   0.764  0.4937  2.5292  0.6086
18440TIP3   OH276810   0.054   6.700   5.422  0.4376  0.0120  0.0033
18440TIP3    H176811  -0.022   6.655   5.459 -0.1690  0.2783 -0.8806
18440TIP3    H276812   0.084   6.757   5.492 -0.0252 -0.2823  0.4531
18441TIP3   OH276813   5.735   1.706   5.715 -0.1062  0.0602 -0.0192
18441TIP3    H176814   5.797   1.776   5.738 -0.2443 -0.6412  2.8130
18441TIP3    H276815   5.663   1.751   5.671  0.9547  1.3144 -0.5508
18442TIP3   OH276816   2.793   4.746  14.364 -0.1718 -0.6346 -0.3206
18442TIP3    H176817   2.863   4.785  14.311  0.4897  0.0738  1.0092
18442TIP3    H276818   2.743   4.693  14.303  1.0273 -0.4731 -1.4927
18443TIP3   OH276819   4.186   0.721   4.674 -0.2990  0.1535 -0.2987
18443TIP3    H176820   4.129   0.658   4.718  0.7205 -0.1572  0.5998
18443TIP3    H276821   4.244   0.668   4.620  1.7446  0.1072  1.7977
18444TIP3   OH276822   0.189   4.824   2.948 -0.0816 -0.0602  0.3109
18444TIP3    H176823   0.210   4.912   2.981  0.2181  0.2008 -0.5339
18444TIP3    H276824   0.274   4.781   2.942 -0.3444 -0.8389  1.8625
18445TIP3   OH276825   5.124   0.079   5.413  0.8257  0.6605 -0.6760
18445TIP3    H176826   5.074   0.042   5.339  1.6800  0.0648 -0.9644
18445TIP3    H276827   5.096   0.170   5.417 -1.2871  0.0439  0.0062
18446TIP3   OH276828   3.729   1.036   1.513 -0.2888  0.4696  0.1582
18446TIP3    H176829   3.767   0.950   1.494  0.3678  0.8547 -0.3017
18446TIP3    H276830   3.767   1.094   1.447 -0.6069  1.1481  0.5633
18447TIP3   OH276831   6.397   6.410  13.350 -0.1041 -0.5188 -0.1804
18447TIP3    H176832   6.439   6.464  13.417 -0.5177 -1.6778  1.0435
18447TIP3    H276833   6.447   6.429  13.270  1.3474 -0.1931  0.7573
18448TIP3   OH276834   3.702   4.413   5.247 -0.2882  0.1082  0.1816
18448TIP3    H176835   3.647   4.479   5.205 -0.7304 -0.3407  0.0345
18448TIP3    H276836   3.779   4.406   5.191 -0.5145  0.0772 -0.1320
18449TIP3   OH276837   4.338   2.061  11.027  0.3665  0.1201 -0.0527
18449TIP3    H176838   4.406   2.114  11.068 -2.2235  3.3722  0.5262
18449TIP3    H276839   4.288   2.123  10.973 -2.9928 -1.5935  0.7751
18450TIP3   OH276840   2.480   0.015   1.477  0.3833 -0.2356  0.4547
18450TIP3    H176841   2.489   0.087   1.415  1.4613 -1.0825 -0.4312
18450TIP3    H276842   2.468  -0.062   1.422  2.4050 -1.1757  1.2022
18451TIP3   OH276843   6.674   5.072  13.166  0.2286  0.3044 -0.0055
18451TIP3    H176844   6.723   4.991  13.151 -0.4617 -0.3878  1.3152
18451TIP3    H276845   6.584   5.043  13.180 -0.9052  1.6126 -3.4128
18452TIP3   OH276846   3.985   6.658   0.718  0.5452 -0.3155  0.4474
18452TIP3    H176847   4.053   6.660   0.786  0.1609 -0.0312  0.8263
18452TIP3    H276848   3.913   6.708   0.755  0.7094  0.7197 -0.5785
18453TIP3   OH276849   0.011   1.444  15.873 -0.5262 -0.5765 -0.0699
18453TIP3    H176850   0.052   1.358  15.882 -1.1980 -0.7274  2.1165
18453TIP3    H276851   0.040   1.475  15.787  1.3944 -2.0951 -0.0536
18454TIP3   OH276852   3.378   6.385   0.341  0.8317 -0.2002 -0.4444
18454TIP3    H176853   3.380   6.462   0.398  0.6352  0.5298 -1.3925
18454TIP3    H276854   3.469   6.375   0.310  1.0633 -0.9471  0.4243
18455TIP3   OH276855   1.144   4.720  13.014 -0.4345  0.0779  0.0876
18455TIP3    H176856   1.125   4.813  13.021  1.7742  0.5234  1.1582
18455TIP3    H276857   1.148   4.689  13.104  1.1343 -0.4849 -0.1400
18456TIP3   OH276858   1.888   5.801  12.011  0.2597  0.4166 -0.1678
18456TIP3    H176859   1.895   5.752  11.929 -1.2244  2.1760 -1.4271
18456TIP3    H276860   1.972   5.845  12.020  2.3351 -3.4457  1.8886
18457TIP3   OH276861   5.210   6.131   3.031  0.2280 -0.9515  0.0559
18457TIP3    H176862   5.297   6.144   2.992 -0.0984 -1.0359 -0.7252
18457TIP3    H276863   5.159   6.090   2.961 -0.9438  0.6921 -0.1294
18458TIP3   OH276864   1.075   1.833   1.989 -0.2634  0.0374  0.5687
18458TIP3    H176865   1.105   1.921   1.965 -0.2696  0.1888  1.1012
18458TIP3    H276866   1.139   1.774   1.950 -0.2636  0.2780  0.1995
18459TIP3   OH276867   5.846   3.577   5.892  1.1823  0.3642 -0.0489
18459TIP3    H176868   5.920   3.587   5.832 -0.5586  1.9680 -2.0634
18459TIP3    H276869   5.772   3.614   5.845 -0.6275  0.2167  2.5062
18460TIP3   OH276870   5.930   2.640   0.383  0.1445 -0.0627 -0.5124
18460TIP3    H176871   5.930   2.545   0.397  3.9273 -0.3896 -1.5865
18460TIP3    H276872   5.902   2.651   0.292 -0.9434 -0.0322 -0.1921
18461TIP3   OH276873   3.602   1.317  16.499  0.1753 -0.0139  0.5035
18461TIP3    H176874   3.576   1.361  16.419 -0.9863 -0.3055  0.6932
18461TIP3    H276875   3.659   1.245  16.471  0.4664  0.4086  0.0235
18462TIP3   OH276876   0.522   6.360  11.564  0.2181  0.3396  0.0671
18462TIP3    H176877   0.491   6.443  11.600 -0.5689  0.7980 -1.5920
18462TIP3    H276878   0.451   6.298  11.582 -1.1625  1.0681 -2.4970
18463TIP3   OH276879   2.095   6.584  12.667 -0.1374  0.7825  0.0017
18463TIP3    H176880   2.094   6.535  12.585  0.4269 -2.3380  1.6756
18463TIP3    H276881   2.188   6.596  12.687 -0.2496  0.6539  0.6294
18464TIP3   OH276882   2.160   5.472  13.908  0.1489  1.1979  0.1055
18464TIP3    H176883   2.243   5.437  13.940 -0.4797 -0.6246 -0.1807
18464TIP3    H276884   2.133   5.534  13.975  1.6042  1.6432  0.3219
18465TIP3   OH276885   3.070   2.284  13.136 -0.2049 -1.0011  0.1841
18465TIP3    H176886   3.124   2.208  13.114  0.6266 -0.7519  1.2376
18465TIP3    H276887   2.987   2.247  13.167  0.5099 -1.5536  1.5366
18466TIP3   OH276888   5.302   5.136   4.074  0.0282 -0.3442 -0.0532
18466TIP3    H176889   5.209   5.157   4.067  0.0083 -0.5333 -0.3875
18466TIP3    H276890   5.324   5.098   3.989  0.3579 -0.5078  0.1044
18467TIP3   OH276891   0.220   6.631  11.406 -0.1615  0.2739  0.3168
18467TIP3    H176892   0.290   6.642  11.471 -0.7725  1.3021  0.8222
18467TIP3    H276893   0.266   6.625  11.322  0.5983 -0.3246  0.7534
18468TIP3   OH276894   1.412   1.364   0.561 -0.3759 -0.8434  0.3598
18468TIP3    H176895   1.477   1.378   0.630  0.0882 -0.7845 -0.0820
18468TIP3    H276896   1.338   1.324   0.606 -0.1030 -0.7474  0.9038
18469TIP3   OH276897   2.590   6.564   4.076  0.1938 -0.3724 -0.1133
18469TIP3    H176898   2.665   6.621   4.090  0.3570 -0.8478  1.1140
18469TIP3    H276899   2.518   6.609   4.121 -0.7033  0.9216 -2.6877
18470TIP3   OH276900   0.958   6.273   0.820 -0.2321 -0.2502 -0.1558
18470TIP3    H176901   1.035   6.230   0.782 -0.2230 -0.0792 -0.3359
18470TIP3    H276902   0.963   6.363   0.787 -0.6140 -0.2874 -0.3190
18471TIP3   OH276903   4.220   0.161  14.371  0.5813 -0.1586 -0.8054
18471TIP3    H176904   4.250   0.191  14.457  0.3611  0.3888 -0.9182
18471TIP3    H276905   4.222   0.065  14.378  0.1029 -0.1199 -0.0281
18472TIP3   OH276906   0.190   0.676   2.103 -0.3403 -0.1319 -0.2836
18472TIP3    H176907   0.269   0.668   2.049  0.3385  0.0047  0.6680
18472TIP3    H276908   0.123   0.707   2.042  0.4937  0.3515 -0.9810
18473TIP3   OH276909   0.352   5.111  12.879  0.1506 -0.7129  0.4519
18473TIP3    H176910   0.393   5.026  12.896  0.2010 -1.0831 -1.3419
18473TIP3    H276911   0.391   5.141  12.797  1.2478  1.7805  1.7752
18474TIP3   OH276912   3.094   3.355  14.056  0.2601  0.0132  0.2173
18474TIP3    H176913   3.120   3.392  13.972  0.4543 -0.5854  0.0058
18474TIP3    H276914   2.998   3.362  14.057  0.2576  0.0123 -0.0593
18475TIP3   OH276915   1.565   1.288  13.582  0.3128 -0.4114  0.3976
18475TIP3    H176916   1.620   1.265  13.657 -0.1661 -1.4338  0.4635
18475TIP3    H276917   1.547   1.204  13.540  1.8956  0.2727 -1.8242
18476TIP3   OH276918   0.668   2.618  13.699  0.0801  0.0711 -0.4180
18476TIP3    H176919   0.740   2.563  13.669  1.6896  1.7061  0.2518
18476TIP3    H276920   0.688   2.705  13.664 -1.8065  0.5099 -0.5452
18477TIP3   OH276921   3.597   1.146  10.404  0.2536  0.3715 -0.3641
18477TIP3    H176922   3.549   1.126  10.324  1.4970 -2.1686 -0.5890
18477TIP3    H276923   3.541   1.207  10.452 -1.6601  0.0092 -2.0155
18478TIP3   OH276924   4.260   3.628   3.134 -0.1994  0.0463 -0.4622
18478TIP3    H176925   4.190   3.650   3.196  0.4114  0.0406  0.2475
18478TIP3    H276926   4.264   3.703   3.075  0.1048  0.6749  0.3348
18479TIP3   OH276927   5.202   6.592   1.969  0.0489  0.1396 -0.2600
18479TIP3    H176928   5.223   6.622   2.058  0.1196  0.0013 -0.2309
18479TIP3    H276929   5.121   6.638   1.948 -0.3372 -0.3523  0.1388
18480TIP3   OH276930   5.195   6.342  14.443 -0.0315  0.2621  0.1047
18480TIP3    H176931   5.158   6.291  14.515 -0.9536 -1.3452 -1.4213
18480TIP3    H276932   5.290   6.334  14.454 -0.1679 -0.7487  0.6313
18481TIP3   OH276933   1.427   4.256  15.103 -0.2040  0.0038 -0.4862
18481TIP3    H176934   1.511   4.238  15.146 -0.7693 -1.8116 -0.0812
18481TIP3    H276935   1.362   4.244  15.172 -0.8562  0.9971 -0.9030
18482TIP3   OH276936   0.616   5.221   3.535 -0.2754  0.0196 -0.3631
18482TIP3    H176937   0.644   5.304   3.574 -1.9935  0.0633  0.8685
18482TIP3    H276938   0.665   5.216   3.453  1.4129  1.2417  0.5144
18483TIP3   OH276939   5.463   2.619   0.082 -0.3878  0.3837 -0.1634
18483TIP3    H176940   5.515   2.696   0.058 -0.9536  1.5943  2.1773
18483TIP3    H276941   5.456   2.623   0.178 -2.0705 -1.5201 -0.1264
18484TIP3   OH276942   2.267   2.551   1.503 -0.2664 -0.7572  0.5718
18484TIP3    H176943   2.269   2.503   1.585  0.9717 -1.4783  0.1484
18484TIP3    H276944   2.256   2.484   1.435 -1.5280 -0.1505  0.1487
18485TIP3   OH276945   5.577   2.227   3.516  0.4845  0.1689 -0.1401
18485TIP3    H176946   5.510   2.171   3.478 -1.9789  2.0290  1.1876
18485TIP3    H276947   5.583   2.201   3.608  0.5203  0.9540  0.0938
18486TIP3   OH276948   5.442   6.445  15.161  0.2761 -0.1017 -0.1529
18486TIP3    H176949   5.392   6.402  15.231 -0.7036 -0.7901 -1.2357
18486TIP3    H276950   5.517   6.387  15.147 -0.8820 -1.3797 -1.3982
18487TIP3   OH276951   3.079   5.729   5.762  0.0243  0.0547  0.2624
18487TIP3    H176952   3.034   5.812   5.751  0.8974  0.8117  1.9164
18487TIP3    H276953   3.046   5.673   5.692  0.0441  2.0492 -1.4052
18488TIP3   OH276954   6.184   5.237  12.099 -0.5992 -0.9320 -0.5079
18488TIP3    H176955   6.092   5.253  12.117  0.2842  2.7879  1.7810
18488TIP3    H276956   6.211   5.173  12.166 -0.8529  0.6923  1.2392
18489TIP3   OH276957   0.667   1.616   1.059 -0.2352  0.0521 -0.1222
18489TIP3    H176958   0.604   1.608   0.988 -0.5341 -3.2258  0.3603
18489TIP3    H276959   0.713   1.532   1.061  2.3220  1.3361  1.2774
18490TIP3   OH276960   2.114   2.464   2.345 -0.2330  0.2516  0.1902
18490TIP3    H176961   2.192   2.417   2.373  0.0517  0.5452 -0.0957
18490TIP3    H276962   2.043   2.400   2.352  0.1066 -0.1481  0.0219
18491TIP3   OH276963   3.664   1.705  12.556  0.4216  0.4438 -0.4770
18491TIP3    H176964   3.661   1.634  12.621 -1.2836  1.0827  0.1930
18491TIP3    H276965   3.673   1.785  12.608  0.1712  0.8757 -1.0905
18492TIP3   OH276966   5.152   0.340   5.486  1.2428  0.3810 -0.5007
18492TIP3    H176967   5.195   0.425   5.495  1.1493  0.2535  1.7520
18492TIP3    H276968   5.131   0.315   5.576 -0.9558 -0.8944 -1.3140
18493TIP3   OH276969   1.526   6.346  12.359  0.3356 -0.1063  0.0284
18493TIP3    H176970   1.481   6.399  12.294 -0.1702 -1.3720 -0.6867
18493TIP3    H276971   1.458   6.323  12.422  0.1884 -1.1493 -0.4882
18494TIP3   OH276972   1.862   3.412   2.640 -0.0720  0.1134 -0.0033
18494TIP3    H176973   1.834   3.487   2.692  0.6134  0.9964 -0.8699
18494TIP3    H276974   1.804   3.412   2.564  0.6067  0.4025 -0.5274
18495TIP3   OH276975   2.210   6.577  12.260  0.1310  0.0992  0.4009
18495TIP3    H176976   2.118   6.574  12.286 -0.1616  0.0314 -0.6117
18495TIP3    H276977   2.232   6.486  12.239  0.0502  0.3096 -0.6139
18496TIP3   OH276978   1.406   3.480   3.230  0.5098  0.1073  0.1299
18496TIP3    H176979   1.475   3.414   3.243  1.5531  0.7656 -1.7366
18496TIP3    H276980   1.450   3.563   3.246 -0.0777  0.5040 -0.2918
18497TIP3   OH276981   0.960   4.161   3.669  0.3404  0.2485  0.0698
18497TIP3    H176982   0.985   4.250   3.642 -1.8398  1.8621  2.7184
18497TIP3    H276983   1.024   4.139   3.737 -1.2618  1.5620  2.1431
18498TIP3   OH276984   2.081   2.074  11.543  0.3282  0.5785  0.3047
18498TIP3    H176985   2.005   2.085  11.486  0.6885  1.9104  0.0490
18498TIP3    H276986   2.101   2.162  11.574  1.6447  0.2290  0.5284
18499TIP3   OH276987   0.165   1.266   2.362  0.4397  0.2836 -0.2765
18499TIP3    H176988   0.079   1.307   2.351  0.1643 -0.4969 -1.1756
18499TIP3    H276989   0.148   1.172   2.353  0.9936 -0.1225  2.1488
18500TIP3   OH276990   2.955   3.098   0.670 -0.2072  0.4389  0.2113
18500TIP3    H176991   2.937   3.141   0.586  1.0628 -1.0586 -0.8754
18500TIP3    H276992   2.870   3.096   0.714 -0.6805  2.2774 -0.5219
18501TIP3   OH276993   5.764   6.597  11.644 -0.6886 -0.2161 -0.1933
18501TIP3    H176994   5.746   6.530  11.577  2.6513 -3.0779  1.4216
18501TIP3    H276995   5.704   6.576  11.715 -0.1831 -1.0575 -0.0022
18502TIP3   OH276996   1.067   0.312  11.524  0.0222 -0.1717 -0.1180
18502TIP3    H176997   1.092   0.380  11.461  2.0360  0.5234  1.3143
18502TIP3    H276998   0.971   0.311  11.522 -0.0055  1.1389 -1.7851
18503TIP3   OH276999   6.623   0.845   0.051  0.8155  0.1693  0.5029
18503TIP3    H177000   6.709   0.887   0.054  0.1005  1.8816 -0.9533
18503TIP3    H277001   6.591   0.863  -0.037 -0.9754 -0.5899  0.9623
18504TIP3   OH277002   5.089   1.050  16.124 -0.1418  0.2979  0.0174
18504TIP3    H177003   5.164   1.074  16.178  0.6256 -0.9419 -0.4429
18504TIP3    H277004   5.025   1.014  16.186 -0.0156  0.5807  0.3134
18505TIP3   OH277005   6.132   2.775  12.266  0.3021  1.0425  0.2672
18505TIP3    H177006   6.214   2.729  12.285  1.4144  2.3923 -0.9533
18505TIP3    H277007   6.085   2.717  12.206  0.0846  0.0137  1.3968
18506TIP3   OH277008   0.566   6.483  13.389  0.3003  0.4908  0.2824
18506TIP3    H177009   0.525   6.418  13.332 -0.6614  2.3524 -1.2584
18506TIP3    H277010   0.596   6.433  13.465 -2.8327 -1.3534  0.4623
18507TIP3   OH277011   2.572   0.314   3.467 -0.0752  0.8490 -0.5677
18507TIP3    H177012   2.482   0.284   3.456 -0.0499  0.5521  0.0140
18507TIP3    H277013   2.564   0.394   3.518 -0.1423  1.8735 -2.1122
18508TIP3   OH277014   2.580   4.045   4.070 -0.0860  0.0096 -0.2144
18508TIP3    H177015   2.625   4.080   4.146 -1.5203  0.0675  0.6469
18508TIP3    H277016   2.630   3.967   4.046  0.5009  0.1092  0.6615
18509TIP3   OH277017   3.176   0.938   2.412 -0.0847  0.3293 -0.2037
18509TIP3    H177018   3.139   1.024   2.392  0.4369  0.3500 -1.0997
18509TIP3    H277019   3.180   0.892   2.328 -0.8538 -0.7808  0.3342
18510TIP3   OH277020   4.963   6.122   5.840 -0.2678 -0.4748  0.3911
18510TIP3    H177021   4.872   6.121   5.811  0.0925 -0.8112 -0.8157
18510TIP3    H277022   4.978   6.211   5.872 -1.0562 -0.4655  0.7433
18511TIP3   OH277023   2.019   4.590   4.617 -0.2579 -0.5595 -0.2407
18511TIP3    H177024   2.005   4.511   4.564 -0.1247 -1.4302  0.9861
18511TIP3    H277025   2.096   4.631   4.577  0.3107 -1.6056 -0.2688
18512TIP3   OH277026   4.254   0.928  13.008  0.0100  0.1145 -0.1605
18512TIP3    H177027   4.198   1.003  12.990  0.7874  0.7949  0.1956
18512TIP3    H277028   4.233   0.903  13.098 -0.6774 -0.4867 -0.4752
18513TIP3   OH277029   2.981   2.157  12.849  0.1575  0.4434  0.0599
18513TIP3    H177030   2.926   2.236  12.848  0.1769  0.4557 -0.0058
18513TIP3    H277031   3.069   2.189  12.832  0.0494  0.3129 -0.7728
18514TIP3   OH277032   0.184   5.067  16.430 -0.0650 -0.1951  0.1139
18514TIP3    H177033   0.231   5.104  16.504 -1.0118  1.1125  0.0975
18514TIP3    H277034   0.239   5.086  16.354 -0.3050  0.7717  0.1705
18515TIP3   OH277035   5.576   2.184   5.032 -0.2934 -0.3640 -0.6766
18515TIP3    H177036   5.595   2.151   5.120  0.7897 -1.4812 -1.3091
18515TIP3    H277037   5.492   2.229   5.042  0.2175  0.2747  1.1013
18516TIP3   OH277038   6.609   2.077   5.750  0.4768  0.3019  0.1389
18516TIP3    H177039   6.697   2.073   5.713  1.2414 -0.0649  1.9323
18516TIP3    H277040   6.582   1.985   5.757  0.0083  0.4058 -0.2460
18517TIP3   OH277041   0.896   3.921   2.442 -0.4066 -0.2737  0.7039
18517TIP3    H177042   0.917   4.014   2.450  0.1597 -0.1812 -1.3609
18517TIP3    H277043   0.981   3.877   2.446 -0.6656 -0.7305  1.5862
18518TIP3   OH277044   6.112   5.243  16.071 -0.5935 -0.1684  0.3119
18518TIP3    H177045   6.085   5.217  15.983 -0.2116  0.7457 -0.0857
18518TIP3    H277046   6.206   5.230  16.073 -0.5754 -0.0254  0.5308
18519TIP3   OH277047   0.311   4.367   5.073 -0.1008  0.1292  0.6462
18519TIP3    H177048   0.222   4.335   5.063 -0.4988  1.6981 -1.5126
18519TIP3    H277049   0.366   4.290   5.055 -0.9983 -0.3696 -0.0277
18520TIP3   OH277050   1.671   0.841   3.957 -0.0345  0.2386  0.9710
18520TIP3    H177051   1.619   0.773   3.914  0.0492 -1.2054  3.0093
18520TIP3    H277052   1.734   0.793   4.011  1.6017  1.9511  0.6878
18521TIP3   OH277053   6.464   4.924  16.465 -0.1174 -0.0094 -0.3944
18521TIP3    H177054   6.558   4.945  16.464 -0.0567 -0.1889  0.8503
18521TIP3    H277055   6.436   4.938  16.374  0.9462  0.7770 -0.6210
18522TIP3   OH277056   2.299   0.671   1.156 -0.4857 -0.3185  1.0232
18522TIP3    H177057   2.244   0.596   1.178  0.0832 -1.0291  0.0854
18522TIP3    H277058   2.369   0.635   1.102 -0.6347  1.0112 -0.1145
18523TIP3   OH277059   4.851   1.933   1.743  0.0214 -0.6752 -0.1169
18523TIP3    H177060   4.817   1.946   1.654  1.1538  1.1157 -0.3369
18523TIP3    H277061   4.921   1.868   1.733 -1.2681 -2.1278 -0.1341
18524TIP3   OH277062   1.664   2.571  15.973  0.1745 -0.0956 -0.0120
18524TIP3    H177063   1.659   2.594  16.066 -0.5414 -2.1072  0.4861
18524TIP3    H277064   1.706   2.486  15.971  2.1849  0.8402 -1.7446
18525TIP3   OH277065   5.514   4.962  15.625  0.4503  0.6737 -0.3942
18525TIP3    H177066   5.506   4.869  15.605  0.0696  0.7048 -0.3914
18525TIP3    H277067   5.465   5.006  15.555 -1.2075  0.7643  0.7858
18526TIP3   OH277068   0.299   4.013   3.201  0.0156  0.4399  0.3785
18526TIP3    H177069   0.305   4.004   3.296 -0.4267  1.2716  0.4969
18526TIP3    H277070   0.340   3.934   3.167 -1.5876 -0.8539  1.2740
18527TIP3   OH277071   6.093   0.173  10.983 -0.3978 -0.4288  0.4023
18527TIP3    H177072   6.066   0.180  10.892 -3.9630  0.5593  1.4031
18527TIP3    H277073   6.112   0.263  11.009  1.3019 -0.7864  0.5142
18528TIP3   OH277074   0.106   5.972  15.887 -0.0994  0.1375 -0.0113
18528TIP3    H177075   0.133   6.034  15.820 -2.2743 -1.0589 -2.1211
18528TIP3    H277076   0.014   5.993  15.904  0.1496 -0.1749  2.0080
18529TIP3   OH277077   6.426   4.554  14.683  0.1358  0.4698  0.8215
18529TIP3    H177078   6.370   4.539  14.759 -1.7408 -3.2674 -0.9819
18529TIP3    H277079   6.486   4.480  14.683 -1.4367 -1.0239 -2.3719
18530TIP3   OH277080   1.904   0.124  14.840  0.6250 -0.4524  0.5233
18530TIP3    H177081   1.855   0.140  14.759  2.6124  0.3109 -0.5979
18530TIP3    H277082   1.850   0.063  14.889 -1.7829  0.8854 -0.2914
18531TIP3   OH277083   2.720   3.884   2.624  0.1037 -0.1277  0.0203
18531TIP3    H177084   2.637   3.838   2.634 -0.1221  0.4407  0.8783
18531TIP3    H277085   2.705   3.969   2.665  0.7373  0.4408 -0.8828
18532TIP3   OH277086   5.332   1.980   5.900 -0.4436 -0.3747  0.2186
18532TIP3    H177087   5.319   2.066   5.861 -2.5182 -0.9510 -0.4976
18532TIP3    H277088   5.331   1.920   5.825  2.0384 -0.9840  0.5931
18533TIP3   OH277089   1.638   1.090  16.239  0.1336 -0.1713 -0.3039
18533TIP3    H177090   1.570   1.141  16.283 -0.9622 -0.2122 -1.8775
18533TIP3    H277091   1.711   1.151  16.230  0.0652  0.0910  0.7734
18534TIP3   OH277092   4.515   4.640   3.702  0.3465  0.2799 -0.5802
18534TIP3    H177093   4.546   4.676   3.785  0.2845 -1.4676  0.2483
18534TIP3    H277094   4.567   4.561   3.689 -1.6109 -1.0634 -0.6912
18535TIP3   OH277095   1.558   3.663  13.713 -0.3596 -0.6341 -0.0005
18535TIP3    H177096   1.622   3.622  13.655 -0.9738 -1.0101 -0.4313
18535TIP3    H277097   1.527   3.592  13.769 -1.1355 -0.6950 -0.4837
18536TIP3   OH277098   2.656   4.161   6.519  0.5419 -0.1516 -0.3614
18536TIP3    H177099   2.589   4.114   6.570  0.8333  0.2039  0.3686
18536TIP3    H277100   2.618   4.169   6.432 -0.3542  0.0021  0.0324
18537TIP3   OH277101   4.358   0.385  16.714 -0.9440 -0.0455 -0.3757
18537TIP3    H177102   4.399   0.471  16.721 -1.9715  0.3413  2.3080
18537TIP3    H277103   4.430   0.323  16.721 -0.2901  0.5830 -1.4107
18538TIP3   OH277104   0.124   1.253  14.559  0.2344  0.3884 -0.0230
18538TIP3    H177105   0.085   1.340  14.567 -0.2138  0.3611 -1.5785
18538TIP3    H277106   0.096   1.207  14.638 -2.1564  0.6807 -0.6113
18539TIP3   OH277107   2.022   0.092  14.390  0.1385 -0.0338 -0.2680
18539TIP3    H177108   1.959   0.043  14.442 -0.3993 -0.4473 -1.2727
18539TIP3    H277109   2.062   0.026  14.332  0.3089  0.4949 -0.7663
18540TIP3   OH277110   4.764   2.026  13.703 -0.4185 -0.0628  0.2585
18540TIP3    H177111   4.689   2.060  13.655  0.1599  0.6606 -0.1566
18540TIP3    H277112   4.802   1.960  13.644 -1.9475 -2.0441  1.3459
18541TIP3   OH277113   2.567   5.125  13.233 -0.2965 -0.2656 -0.4196
18541TIP3    H177114   2.662   5.122  13.241 -0.3124 -2.8915 -0.5529
18541TIP3    H277115   2.551   5.150  13.142  0.2808 -0.7467 -0.6549
18542TIP3   OH277116   4.700   2.747   3.870  0.1216  0.5831  0.2008
18542TIP3    H177117   4.661   2.829   3.901  0.9852  2.1550 -2.4388
18542TIP3    H277118   4.628   2.684   3.869 -1.0509  1.8746  0.4793
18543TIP3   OH277119   6.683   4.932   5.646 -0.2606  0.3817 -0.0688
18543TIP3    H177120   6.746   4.964   5.580  0.4964 -1.1121 -0.1197
18543TIP3    H277121   6.603   4.982   5.629 -0.0605  0.0967 -2.0844
18544TIP3   OH277122   2.181   0.200  17.037  0.1422  0.4392 -0.4782
18544TIP3    H177123   2.129   0.121  17.021  0.3945  0.5178 -1.7683
18544TIP3    H277124   2.254   0.193  16.975  1.0369  0.9054  0.4921
18545TIP3   OH277125   5.452   2.905   2.861 -0.6086  0.2204 -0.2777
18545TIP3    H177126   5.518   2.835   2.860 -0.1218  0.6363  0.7313
18545TIP3    H277127   5.370   2.860   2.884 -0.1793  0.0415  1.0247
18546TIP3   OH277128   0.273   4.762  13.654  0.0547 -0.2167 -0.0619
18546TIP3    H177129   0.238   4.704  13.722  0.8772  0.9966  1.4640
18546TIP3    H277130   0.363   4.779  13.680 -0.0312  1.4073 -0.6613
18547TIP3   OH277131   6.012   6.622  11.437 -1.1111 -0.2126  0.0739
18547TIP3    H177132   5.988   6.535  11.468  0.8277 -1.1362 -0.8149
18547TIP3    H277133   5.929   6.662  11.410 -1.9478 -2.2004 -0.4853
18548TIP3   OH277134   4.047   5.534   5.339 -0.4612  0.2247  0.0437
18548TIP3    H177135   3.957   5.525   5.305 -1.1507 -1.6256  2.1326
18548TIP3    H277136   4.036   5.570   5.427  0.9027  0.4234  0.1486
18549TIP3   OH277137   4.989   2.718   5.176 -0.4095  0.1722  0.2631
18549TIP3    H177138   4.991   2.812   5.190  1.6312  0.4954 -1.7052
18549TIP3    H277139   4.961   2.707   5.086  0.5341 -1.0197  0.0792
18550TIP3   OH277140   6.396   4.518   3.364 -0.2720 -0.5626  0.3883
18550TIP3    H177141   6.402   4.610   3.337  0.1287 -1.6678 -4.0581
18550TIP3    H277142   6.487   4.490   3.375 -0.1566 -1.1917 -1.7604
18551TIP3   OH277143   3.722   6.117  17.029 -0.2503 -0.0325  0.2617
18551TIP3    H177144   3.643   6.172  17.027 -0.4136 -0.2445  0.7275
18551TIP3    H277145   3.703   6.052  17.096  1.6602  1.9469  2.9571
18552TIP3   OH277146   3.688   0.058  15.734 -0.2127  0.0793 -0.1133
18552TIP3    H177147   3.773   0.099  15.718 -0.7855  1.5287  0.4554
18552TIP3    H277148   3.627   0.108  15.680 -1.1451  0.8796  1.6402
18553TIP3   OH277149   2.255   1.773   4.238 -0.0943  0.5992 -0.0800
18553TIP3    H177150   2.257   1.794   4.145  1.2099  1.5409  0.1464
18553TIP3    H277151   2.337   1.728   4.254 -1.2397 -1.5066  0.2120
18554TIP3   OH277152   5.446   2.942  13.989  0.2752 -0.3849 -0.6357
18554TIP3    H177153   5.363   2.902  13.961  0.3331  0.7612 -2.6919
18554TIP3    H277154   5.427   2.977  14.076 -1.3851 -0.2422 -1.0099
18555TIP3   OH277155   1.865   4.135  11.592  0.2825  0.1749 -0.2231
18555TIP3    H177156   1.827   4.154  11.678  0.5926  1.6340 -0.3746
18555TIP3    H277157   1.896   4.220  11.561  1.3637 -0.5542 -1.2125
18556TIP3   OH277158   5.729   2.749   6.330 -0.0932 -0.4834 -0.4317
18556TIP3    H177159   5.638   2.721   6.335 -0.5231  1.1604  2.1100
18556TIP3    H277160   5.728   2.842   6.351  2.1473 -0.3151 -0.7938
18557TIP3   OH277161   0.775   3.343  14.637 -0.0628 -0.4817 -0.1785
18557TIP3    H177162   0.834   3.407  14.597 -0.3007  0.2313  0.5909
18557TIP3    H277163   0.716   3.317  14.566  0.4060 -0.2794 -0.6429
18558TIP3   OH277164   4.287   2.009   2.360  0.8596 -0.4082  0.2642
18558TIP3    H177165   4.226   1.963   2.417  0.4503  1.0408  1.0426
18558TIP3    H277166   4.245   2.009   2.274  0.3492 -0.4919  0.5126
18559TIP3   OH277167   2.635   6.114   6.125  0.5339 -0.4466  0.6543
18559TIP3    H177168   2.706   6.091   6.185  0.3518  0.4359  1.2370
18559TIP3    H277169   2.635   6.045   6.059  2.0454 -0.3835  0.5469
18560TIP3   OH277170   0.524   0.961  12.861 -0.3426 -0.2695 -0.1178
18560TIP3    H177171   0.619   0.951  12.857 -0.3622  0.0029 -1.6907
18560TIP3    H277172   0.507   1.049  12.829 -1.0686  0.1614  1.3561
18561TIP3   OH277173   1.291   6.052  11.246  0.1521  0.2401 -0.0963
18561TIP3    H177174   1.302   5.999  11.168 -0.0748 -0.8470  0.5861
18561TIP3    H277175   1.345   6.008  11.313 -0.8263  0.2751  0.7445
18562TIP3   OH277176   2.302   4.546  14.563 -0.4828 -0.0620  0.8388
18562TIP3    H177177   2.293   4.536  14.469  2.4544  1.9361  0.2227
18562TIP3    H277178   2.350   4.628  14.575  1.3622 -1.4024  3.9280
18563TIP3   OH277179   5.769   2.256  11.674  0.3612  0.3629 -0.1286
18563TIP3    H177180   5.781   2.336  11.623  1.1958  1.1032  1.1648
18563TIP3    H277181   5.843   2.201  11.650  1.1884  1.0305  0.8250
18564TIP3   OH277182   4.540   0.847  10.691  0.3329  0.6310 -0.3779
18564TIP3    H177183   4.488   0.925  10.667 -0.2691  0.7177  1.1162
18564TIP3    H277184   4.581   0.820  10.609 -1.9290  0.6732 -1.6090
18565TIP3   OH277185   1.894   0.480   4.674 -0.2945 -0.3760  0.3063
18565TIP3    H177186   1.896   0.547   4.742  0.9459 -0.8256  0.7521
18565TIP3    H277187   1.829   0.417   4.705  0.4193 -0.6925  1.2238
18566TIP3   OH277188   6.541   6.321   3.889  0.5704 -0.2358  0.5491
18566TIP3    H177189   6.604   6.316   3.961  2.0883 -0.7179 -0.7446
18566TIP3    H277190   6.595   6.314   3.810 -1.1669 -1.4195 -0.6097
18567TIP3   OH277191   5.116   2.814   2.586 -0.6032 -0.6808 -0.2188
18567TIP3    H177192   5.185   2.759   2.623  1.2405  1.2003 -0.6347
18567TIP3    H277193   5.124   2.802   2.491 -0.1493  0.2718 -0.3181
18568TIP3   OH277194   3.690   2.345   2.358 -0.4148 -0.6595 -0.1920
18568TIP3    H177195   3.630   2.417   2.373  0.4736  0.1651 -0.4980
18568TIP3    H277196   3.772   2.372   2.399  0.2338 -1.0244 -1.2038
18569TIP3   OH277197   3.625   1.854  17.030  0.0122  0.3777 -0.0725
18569TIP3    H177198   3.662   1.935  16.996  1.0544 -0.2100 -0.3977
18569TIP3    H277199   3.697   1.813  17.078 -0.0702 -0.9967 -1.0704
18570TIP3   OH277200   5.039   3.281  16.616 -0.0348 -0.3493  0.1334
18570TIP3    H177201   4.975   3.350  16.633  1.0192  0.6526  0.1648
18570TIP3    H277202   5.043   3.273  16.521 -1.0924 -1.2984  0.1459
18571TIP3   OH277203   3.726   3.236  15.713  0.0872  0.0829 -0.2482
18571TIP3    H177204   3.787   3.174  15.752  1.0714  0.3930 -1.2620
18571TIP3    H277205   3.646   3.185  15.698  0.6294 -0.7454 -0.3644
18572TIP3   OH277206   4.783   3.804   0.514  0.1166  0.2903 -0.2410
18572TIP3    H177207   4.727   3.736   0.552  1.8031 -2.3436 -2.0402
18572TIP3    H277208   4.724   3.856   0.460 -1.0530 -0.5656  0.1555
18573TIP3   OH277209   3.065   4.237  15.617  0.3856  0.0056  0.4348
18573TIP3    H177210   3.115   4.157  15.632 -0.6541 -0.4185  1.8936
18573TIP3    H277211   3.006   4.217  15.545  0.6583 -0.2797  0.2910
18574TIP3   OH277212   5.582   3.689  12.504  0.1326  0.2646  0.1306
18574TIP3    H177213   5.625   3.743  12.438 -0.2991 -0.8598 -1.1143
18574TIP3    H277214   5.622   3.717  12.587  3.3978 -0.7794 -0.9250
18575TIP3   OH277215   2.328   3.918   0.931  0.2133 -0.4533 -0.2626
18575TIP3    H177216   2.269   3.983   0.893  0.5638  1.6715  2.5313
18575TIP3    H277217   2.317   3.927   1.025  2.0529 -2.8581  0.2933
18576TIP3   OH277218   2.488   0.269   1.282  0.2309 -0.1198  0.0312
18576TIP3    H177219   2.494   0.308   1.195 -0.9838  0.8991  0.3646
18576TIP3    H277220   2.565   0.301   1.328 -0.0029  0.7701 -0.1572
18577TIP3   OH277221   0.684   6.798  15.683 -0.0262 -0.2605 -0.2528
18577TIP3    H177222   0.630   6.877  15.685  2.9649  1.9471  2.0668
18577TIP3    H277223   0.713   6.790  15.592 -0.4181  1.2910 -0.5306
18578TIP3   OH277224   4.853   0.987   1.668 -0.2678  0.4745 -0.3377
18578TIP3    H177225   4.865   1.047   1.594 -0.4566 -0.6336 -1.2819
18578TIP3    H277226   4.781   1.026   1.719 -0.9087  0.6573 -1.3564
18579TIP3   OH277227   6.424   2.477   3.217  0.4462  0.2499 -0.3008
18579TIP3    H177228   6.341   2.494   3.261 -0.0436  0.1129 -1.1475
18579TIP3    H277229   6.465   2.563   3.209 -0.0290  0.4489 -0.6765
18580TIP3   OH277230   0.095   0.282  17.075 -0.4009 -0.0773 -0.9912
18580TIP3    H177231   0.143   0.347  17.126 -1.6010  0.6194 -0.7085
18580TIP3    H277232   0.139   0.200  17.093 -0.6992  0.1708  1.0881
18581TIP3   OH277233   5.324   2.329   5.061  0.8631  0.0805 -0.4803
18581TIP3    H177234   5.366   2.407   5.094 -0.4148  0.3113  0.6686
18581TIP3    H277235   5.251   2.361   5.008  1.0474 -0.3239 -0.9901
18582TIP3   OH277236   5.173   4.630   3.832 -0.4699  0.6363 -0.0254
18582TIP3    H177237   5.243   4.646   3.769 -1.3702  1.4223 -0.8540
18582TIP3    H277238   5.208   4.561   3.889  1.1722  1.3589 -0.0813
18583TIP3   OH277239   4.084   4.260  14.013  0.4071 -0.0303 -0.4180
18583TIP3    H177240   4.127   4.258  13.927  0.1345 -0.1520 -0.5558
18583TIP3    H277241   4.034   4.178  14.016 -1.0370  0.8011 -0.9037
18584TIP3   OH277242   4.617   2.014   0.162 -0.3909 -0.0945 -0.0789
18584TIP3    H177243   4.697   2.057   0.130 -0.5079  0.2737  0.1216
18584TIP3    H277244   4.649   1.935   0.206 -0.0138  0.7993  1.3027
18585TIP3   OH277245   2.373   4.998  13.056  0.6181 -0.3409  0.1403
18585TIP3    H177246   2.412   5.062  12.996 -2.3682  2.1894  0.6444
18585TIP3    H277247   2.381   5.038  13.142  0.5574 -1.6757  0.7863
18586TIP3   OH277248   1.475   4.131   6.381 -0.6920  0.2000 -0.3259
18586TIP3    H177249   1.455   4.200   6.445 -0.0164  1.5053 -1.4559
18586TIP3    H277250   1.569   4.138   6.366 -0.7538 -0.4161 -1.0684
18587TIP3   OH277251   5.063   6.675  16.234 -0.1690 -0.0596  0.1746
18587TIP3    H177252   5.020   6.631  16.161  2.1267  1.8050 -2.5280
18587TIP3    H277253   5.119   6.607  16.273 -1.5931 -1.1385  0.4273
18588TIP3   OH277254   2.648   0.084   6.146  0.2675  0.2894 -0.2767
18588TIP3    H177255   2.704   0.015   6.182 -0.5596 -0.5616 -0.5877
18588TIP3    H277256   2.612   0.128   6.223  1.0471  0.5937 -0.0750
18589TIP3   OH277257   6.494   5.089   4.778  0.1025 -0.2784 -0.5810
18589TIP3    H177258   6.578   5.045   4.763 -0.4375 -1.2846 -0.7579
18589TIP3    H277259   6.499   5.167   4.724  0.9801 -0.2534 -0.4873
18590TIP3   OH277260   1.259   4.091  15.360  0.1585  0.2802  0.1492
18590TIP3    H177261   1.180   4.098  15.415 -1.0747  0.4290 -1.5734
18590TIP3    H277262   1.319   4.155  15.398 -1.5537  2.1117 -0.0739
18591TIP3   OH277263   3.100   5.489   4.155  0.3927  0.3821 -0.2062
18591TIP3    H177264   3.073   5.530   4.073  0.1071 -1.3728 -1.0278
18591TIP3    H277265   3.195   5.475   4.144  0.2893 -0.1946 -0.4163
18592TIP3   OH277266   3.490   6.298   1.002  0.3495 -0.0926 -0.3029
18592TIP3    H177267   3.525   6.339   1.081  1.8984 -0.6078 -0.7086
18592TIP3    H277268   3.431   6.365   0.966 -1.3911 -0.3194  1.9157
18593TIP3   OH277269   0.226   2.109  10.737 -0.2454  0.1740 -0.2736
18593TIP3    H177270   0.204   2.113  10.644 -0.7051 -1.2636 -0.2499
18593TIP3    H277271   0.145   2.081  10.780  0.0943  0.3597  0.5170
18594TIP3   OH277272   1.279   0.217  14.509 -0.2347 -0.3806  0.1863
18594TIP3    H177273   1.236   0.252  14.431 -0.0566  0.1631  0.3275
18594TIP3    H277274   1.356   0.170  14.475 -1.3303 -2.0248 -0.1288
18595TIP3   OH277275   1.672   1.927   4.728 -0.2278 -0.0399 -0.4641
18595TIP3    H177276   1.596   1.869   4.722 -0.5034  0.0801  1.2771
18595TIP3    H277277   1.743   1.871   4.757 -0.5151  0.4460  1.3055
18596TIP3   OH277278   2.988   3.733   5.636 -0.5207 -0.2777  0.0595
18596TIP3    H177279   3.073   3.697   5.610 -0.2086  1.0066 -0.8068
18596TIP3    H277280   2.986   3.820   5.596 -2.5303 -0.5334 -0.4885
18597TIP3   OH277281   4.821   3.829   0.888  0.3419  0.2177  0.6135
18597TIP3    H177282   4.757   3.785   0.831  0.1499  0.1753  0.8562
18597TIP3    H277283   4.806   3.790   0.974  0.8234  0.0771  0.6348
18598TIP3   OH277284   2.306   3.828   6.373 -0.0659 -0.4393 -0.2355
18598TIP3    H177285   2.247   3.767   6.418 -0.5186  0.7842  0.9038
18598TIP3    H277286   2.259   3.851   6.292 -0.1376 -1.1645 -0.4070
18599TIP3   OH277287   4.066   6.791   2.629  0.4889 -0.5211  0.1808
18599TIP3    H177288   4.019   6.713   2.599 -0.0234 -0.1004 -0.1450
18599TIP3    H277289   4.023   6.815   2.711  1.3871 -1.2234  0.8789
18600TIP3   OH277290   3.193   0.619   1.459  0.3369  0.4720  0.1610
18600TIP3    H177291   3.189   0.714   1.473  1.5070  0.3932  1.2736
18600TIP3    H277292   3.102   0.590   1.468  0.1708  1.2946  1.5661
18601TIP3   OH277293   4.032   1.343   2.830 -0.5596  0.2720 -0.1659
18601TIP3    H177294   4.083   1.410   2.876 -0.3735 -0.0246  0.0598
18601TIP3    H277295   3.944   1.350   2.868 -0.1076 -0.8395  1.1905
18602TIP3   OH277296   4.036   1.815  11.403 -0.4397 -0.1198 -0.0511
18602TIP3    H177297   4.123   1.797  11.439 -1.3650 -0.9595  1.9480
18602TIP3    H277298   3.998   1.728  11.386  0.1212  0.2139 -3.7621
18603TIP3   OH277299   3.766   1.433  17.234 -0.2566 -0.0754  0.2842
18603TIP3    H177300   3.834   1.480  17.185  0.9786 -0.9491  1.0851
18603TIP3    H277301   3.795   1.438  17.325 -0.6060 -1.5272  0.4992
18604TIP3   OH277302   3.041   5.287   0.697 -0.6722 -0.0506 -0.4901
18604TIP3    H177303   3.064   5.345   0.769  4.1308 -1.1029 -0.7995
18604TIP3    H277304   2.993   5.216   0.738 -0.3060  0.6346  1.2248
18605TIP3   OH277305   4.551   5.011   2.828 -0.0773 -0.2084  0.4578
18605TIP3    H177306   4.532   5.065   2.905 -0.1078 -0.0643  0.3514
18605TIP3    H277307   4.615   4.947   2.858  1.9145  1.4344 -0.0164
18606TIP3   OH277308   3.720   4.691   5.285 -0.1317  0.0527 -0.2889
18606TIP3    H177309   3.808   4.708   5.253 -0.2800 -0.7925 -1.1656
18606TIP3    H277310   3.664   4.697   5.207 -0.6955 -0.5560  0.0585
18607TIP3   OH277311   0.341   4.564  11.944  0.3565 -0.0912  0.0813
18607TIP3    H177312   0.343   4.589  12.036  0.5624  0.5678 -0.0971
18607TIP3    H277313   0.383   4.637  11.898  0.2729 -0.4203 -0.5327
18608TIP3   OH277314   5.189   3.778   5.732 -0.2850 -0.3959 -0.2270
18608TIP3    H177315   5.128   3.852   5.737 -0.1994 -0.3316 -0.1254
18608TIP3    H277316   5.256   3.805   5.669  0.7317  0.3481  1.1262
18609TIP3   OH277317   0.934   1.588   2.072 -0.0641 -0.7271  0.4805
18609TIP3    H177318   1.025   1.617   2.077 -0.9935  2.2819  3.7364
18609TIP3    H277319   0.900   1.631   1.993  0.4967  1.2679  1.2552
18610TIP3   OH277320   3.572   2.341   0.594  0.2583 -0.1711  0.0400
18610TIP3    H177321   3.595   2.270   0.653  0.7419 -0.4050 -0.4189
18610TIP3    H277322   3.495   2.382   0.634  1.4004  0.5674  1.5902
18611TIP3   OH277323   3.045   6.297   1.798  0.6910  0.7021  0.5032
18611TIP3    H177324   2.962   6.330   1.761  0.6612  2.5157  2.0626
18611TIP3    H277325   3.075   6.367   1.856  3.2504 -0.0006  0.1387
18612TIP3   OH277326   4.012   3.394   1.472 -0.0845  0.3455  0.2388
18612TIP3    H177327   3.959   3.406   1.393  0.5038  0.8406 -0.0881
18612TIP3    H277328   3.959   3.431   1.542 -0.5023  0.1389  0.0354
18613TIP3   OH277329   3.900   4.857   6.096  0.8580  0.3716  0.2555
18613TIP3    H177330   3.895   4.907   6.177 -0.8030 -0.4169  0.7027
18613TIP3    H277331   3.964   4.789   6.113  0.9983  0.6060  0.6717
18614TIP3   OH277332   3.248   1.231  12.794 -0.2153 -0.7021 -0.2120
18614TIP3    H177333   3.313   1.272  12.736 -0.0367  0.1904  0.5801
18614TIP3    H277334   3.228   1.147  12.753 -0.1524 -0.0671 -1.6019
18615TIP3   OH277335   3.215   4.868   0.999 -0.5127  0.0272  0.2315
18615TIP3    H177336   3.210   4.963   0.987  0.0564  0.0332  0.0457
18615TIP3    H277337   3.262   4.856   1.082 -0.9562 -0.0912  0.4729
18616TIP3   OH277338   4.083   4.298   0.469  0.1458 -0.6645 -0.0013
18616TIP3    H177339   4.178   4.299   0.457  0.0267 -2.1255 -1.4654
18616TIP3    H277340   4.059   4.205   0.463 -1.7010 -0.1179 -2.9531
18617TIP3   OH277341   1.531   0.588   6.715  0.3438  0.1571 -0.2966
18617TIP3    H177342   1.443   0.614   6.687  0.4983  0.0674 -0.8716
18617TIP3    H277343   1.536   0.617   6.807 -0.7491 -0.9852  0.1454
18618TIP3   OH277344   2.622   5.788  15.185  0.0233  0.0486  0.0340
18618TIP3    H177345   2.713   5.759  15.182  0.0388 -0.0286  0.9861
18618TIP3    H277346   2.621   5.859  15.249 -0.8210 -0.8902  1.1136
18619TIP3   OH277347   5.722   4.485   3.198  0.1523 -0.4402  0.1528
18619TIP3    H177348   5.762   4.571   3.211  0.9544 -0.6104 -1.1023
18619TIP3    H277349   5.735   4.465   3.106 -0.9045 -1.4839  0.2002
18620TIP3   OH277350   3.084   5.345   1.764  0.2341 -0.5932  0.4492
18620TIP3    H177351   3.067   5.367   1.855  1.6474  0.1048  0.5755
18620TIP3    H277352   3.015   5.282   1.740 -0.7509 -0.0049  1.6728
18621TIP3   OH277353   0.923   2.992  13.703  0.2543 -0.0666 -0.1369
18621TIP3    H177354   1.013   2.960  13.694  0.1936 -0.5416  0.8714
18621TIP3    H277355   0.929   3.067  13.761 -0.0677 -0.4406  0.3879
18622TIP3   OH277356   1.319   2.169   2.822  0.3634  0.0946  0.4486
18622TIP3    H177357   1.233   2.185   2.861  0.3998 -2.0730  1.5748
18622TIP3    H277358   1.380   2.213   2.881  0.2202 -0.9307  1.3940
18623TIP3   OH277359   1.455   5.745   4.998  0.0596 -0.1692 -0.4566
18623TIP3    H177360   1.405   5.670   5.030  2.0935 -0.6691  1.8805
18623TIP3    H277361   1.439   5.746   4.904 -4.2570 -0.2111  0.1107
18624TIP3   OH277362   3.119   2.949   0.022 -0.0897  0.4292 -0.1469
18624TIP3    H177363   3.040   2.980  -0.022  0.6189  1.2238 -0.9199
18624TIP3    H277364   3.153   2.880  -0.035  0.4495  0.9751 -0.5068
18625TIP3   OH277365   2.317   0.895  15.860 -0.5143 -0.4902 -0.0004
18625TIP3    H177366   2.278   0.822  15.812  0.9028 -1.9968  1.0142
18625TIP3    H277367   2.244   0.937  15.905 -1.6408 -0.0441 -2.0918
18626TIP3   OH277368   3.547   3.958  12.848 -0.0471  0.0292  0.3439
18626TIP3    H177369   3.477   4.021  12.865 -0.0290 -0.1602  1.1120
18626TIP3    H277370   3.516   3.876  12.885  1.2420  0.3046  2.1375
18627TIP3   OH277371   1.906   4.399   4.481 -0.3424 -0.0916  0.7253
18627TIP3    H177372   1.911   4.399   4.386  0.6379  1.8834  0.7218
18627TIP3    H277373   1.824   4.446   4.501 -0.5190 -0.4543  0.8686
18628TIP3   OH277374   6.273   6.703   5.469  0.0119 -0.3976  0.2137
18628TIP3    H177375   6.225   6.633   5.425  1.1234 -0.5326 -0.8633
18628TIP3    H277376   6.209   6.746   5.524 -0.5210 -2.8267  1.6242
18629TIP3   OH277377   3.581   0.887  13.804 -0.4485 -0.0922  0.5502
18629TIP3    H177378   3.498   0.879  13.852  0.8361 -0.0619  2.9151
18629TIP3    H277379   3.647   0.854  13.865  1.4532  1.1484 -0.7368
18630TIP3   OH277380   4.502   4.199   4.213 -0.4355 -0.0137 -0.2003
18630TIP3    H177381   4.548   4.115   4.205  0.0500  0.2090  0.1904
18630TIP3    H277382   4.504   4.236   4.125  1.5527  0.7189  0.1053
18631TIP3   OH277383   6.274   4.966   1.883  0.6279  0.7853  0.2481
18631TIP3    H177384   6.236   4.887   1.922  0.8753 -0.0506 -1.1368
18631TIP3    H277385   6.326   5.005   1.954  0.1963 -0.0864  1.0674
18632TIP3   OH277386   0.217   1.720   3.848  0.0917 -0.1907  0.5100
18632TIP3    H177387   0.275   1.645   3.839  0.0478 -0.2175  0.4456
18632TIP3    H277388   0.261   1.791   3.801 -0.4611 -0.5141 -0.5432
18633TIP3   OH277389   6.081   4.591   3.921  0.4941 -0.6588 -0.3217
18633TIP3    H177390   6.114   4.512   3.965  0.2944 -1.2905 -1.2800
18633TIP3    H277391   6.149   4.657   3.936 -0.1279 -0.4346  2.0305
18634TIP3   OH277392   1.239   4.877  16.685 -0.1770 -0.1578 -0.0131
18634TIP3    H177393   1.307   4.901  16.749  0.0197 -2.2645  0.6626
18634TIP3    H277394   1.281   4.810  16.631 -0.9581  0.2896 -1.2037
18635TIP3   OH277395   6.465   6.591  11.714  0.0769  0.7145 -0.2317
18635TIP3    H177396   6.438   6.500  11.726  0.8344  0.5818  0.6048
18635TIP3    H277397   6.532   6.587  11.646  0.3702  0.5913  0.0615
18636TIP3   OH277398   2.939   3.317   2.716  0.0249 -0.0303 -0.0793
18636TIP3    H177399   3.003   3.281   2.776  1.5202  0.8781 -1.0465
18636TIP3    H277400   2.986   3.387   2.671 -1.8023  0.9915 -0.4999
18637TIP3   OH277401   3.736   1.748  11.205  0.2483 -0.7080  0.0879
18637TIP3    H177402   3.661   1.744  11.264 -0.2156 -0.7064 -0.4932
18637TIP3    H277403   3.732   1.835  11.167  1.8067  0.1139  1.6583
18638TIP3   OH277404   1.053   4.507   4.521 -0.2327  0.1811 -0.0024
18638TIP3    H177405   1.142   4.542   4.520 -0.0322 -0.3253 -0.7000
18638TIP3    H277406   1.001   4.573   4.567  0.6980 -0.0091  1.3731
18639TIP3   OH277407   2.282   6.153  11.672 -0.1966 -0.1667  0.8023
18639TIP3    H177408   2.378   6.146  11.669 -0.2030 -0.1349  0.4100
18639TIP3    H277409   2.263   6.239  11.636 -0.3848 -0.2879  0.6081
18640TIP3   OH277410   5.527   3.324   3.922  0.1381  0.6119 -0.2205
18640TIP3    H177411   5.484   3.259   3.978  0.2736  1.3044  0.7226
18640TIP3    H277412   5.615   3.288   3.908 -0.1636  0.0396 -0.6805
18641TIP3   OH277413   2.317   0.242  12.855 -0.6299  0.0084 -0.2698
18641TIP3    H177414   2.275   0.202  12.779 -1.4130 -0.8520  0.5816
18641TIP3    H277415   2.299   0.182  12.927  1.3720  0.0303  0.3212
18642TIP3   OH277416   4.038   1.900   3.459 -0.1866  0.0790 -0.7167
18642TIP3    H177417   4.058   1.824   3.513  0.7865  0.9115  0.1477
18642TIP3    H277418   3.963   1.941   3.504 -0.2198  0.0500 -0.7455
18643TIP3   OH277419   3.283   5.536  13.301  0.0954  0.0953  0.3328
18643TIP3    H177420   3.329   5.468  13.252  0.5343  1.3518 -1.0382
18643TIP3    H277421   3.343   5.610  13.302 -1.2398  1.2156 -0.0675
18644TIP3   OH277422   5.033   1.799   3.975  0.1142  0.5681  0.2055
18644TIP3    H177423   5.027   1.886   3.935  0.0960 -0.2275 -1.6717
18644TIP3    H277424   4.964   1.749   3.932  0.3562 -0.4726  0.9957
18645TIP3   OH277425   6.552   0.321  12.564  0.3563  0.0305 -0.2346
18645TIP3    H177426   6.486   0.312  12.633  1.8305 -0.5328  1.1829
18645TIP3    H277427   6.539   0.245  12.508 -0.5137  0.2087 -0.2991
18646TIP3   OH277428   1.233   5.161   5.359 -0.0527  0.7537 -0.2420
18646TIP3    H177429   1.286   5.085   5.338 -0.4785  0.3203  0.2354
18646TIP3    H277430   1.262   5.186   5.447 -0.4626  0.6663 -0.0813
18647TIP3   OH277431   2.531   5.881   4.988 -0.0348  0.0592  0.1648
18647TIP3    H177432   2.561   5.841   5.070 -0.4338 -0.2273  0.1715
18647TIP3    H277433   2.610   5.882   4.932  0.0825 -0.3583  0.3139
18648TIP3   OH277434   3.942   2.875   5.134  0.0594 -0.2130  0.3515
18648TIP3    H177435   3.871   2.938   5.117  0.5160  0.0564 -0.6961
18648TIP3    H277436   4.022   2.929   5.134  0.3369 -0.6145  0.7786
18649TIP3   OH277437   5.213   6.176   0.251 -0.3325  0.4276 -0.3815
18649TIP3    H177438   5.272   6.138   0.187 -1.2822  2.1928 -2.4043
18649TIP3    H277439   5.267   6.238   0.300  0.0732  0.1005 -0.4092
18650TIP3   OH277440   5.864   3.983  13.246  0.6973  0.1064  0.4638
18650TIP3    H177441   5.786   3.993  13.300 -0.7913  1.6389 -1.7622
18650TIP3    H277442   5.854   3.897  13.204  0.0051  0.4101 -0.0215
18651TIP3   OH277443   0.286   4.786  15.790 -0.5809 -0.8458  0.2268
18651TIP3    H177444   0.270   4.827  15.706 -0.3373 -1.4215 -0.1096
18651TIP3    H277445   0.357   4.724  15.773 -0.2514 -0.6737  0.9481
18652TIP3   OH277446   4.769   5.321   2.815  0.2482 -0.6066 -0.0612
18652TIP3    H177447   4.810   5.386   2.873  0.5669 -0.2351 -0.6930
18652TIP3    H277448   4.829   5.247   2.815  1.0971  0.0445 -1.2036
18653TIP3   OH277449   1.481   2.148  14.207 -0.1523  0.2978 -0.2305
18653TIP3    H177450   1.414   2.148  14.139  0.2222  0.7189 -0.6096
18653TIP3    H277451   1.526   2.064  14.197  0.0924  0.4816 -0.7027
18654TIP3   OH277452   0.426   0.152   0.260  0.0774  0.0387  0.3027
18654TIP3    H177453   0.420   0.058   0.248 -0.3280  0.0876  0.1243
18654TIP3    H277454   0.419   0.166   0.355  1.6293 -0.2212  0.4848
18655TIP3   OH277455   3.528   0.215  11.544 -0.6798 -0.2304 -0.0959
18655TIP3    H177456   3.555   0.236  11.454 -1.9262  0.1314 -0.3947
18655TIP3    H277457   3.597   0.252  11.599  0.0384 -0.3529 -0.8919
18656TIP3   OH277458   4.227   4.981   2.254  0.2461 -0.5543  0.1526
18656TIP3    H177459   4.288   5.044   2.215 -0.2744 -0.4303 -0.4874
18656TIP3    H277460   4.143   5.028   2.256 -0.6561 -1.8845 -2.2706
18657TIP3   OH277461   4.983   2.360  15.652 -0.0354 -0.0388 -0.2456
18657TIP3    H177462   4.889   2.356  15.669  0.2253 -0.7956  1.2341
18657TIP3    H277463   4.997   2.448  15.617 -1.2371  0.2381 -0.0842
18658TIP3   OH277464   1.992   3.021  12.700 -0.4267  0.1905  0.3669
18658TIP3    H177465   2.085   3.033  12.681 -0.2170 -1.4964  0.1554
18658TIP3    H277466   1.947   3.061  12.625  0.1711 -0.0215 -0.1141
18659TIP3   OH277467   5.181   6.686   5.005 -0.3813 -0.6050  0.0356
18659TIP3    H177468   5.233   6.673   5.084 -0.4370  1.2694  0.4349
18659TIP3    H277469   5.219   6.626   4.941  1.4474 -0.2015  0.6906
18660TIP3   OH277470   5.891   3.965   5.732 -0.2891 -0.0418 -1.0701
18660TIP3    H177471   5.816   3.948   5.789 -0.7021 -0.7133 -1.7941
18660TIP3    H277472   5.924   4.050   5.761 -0.1944 -0.5723  0.4807
18661TIP3   OH277473   6.671   4.800   1.396  0.2051 -0.5098  0.1269
18661TIP3    H177474   6.690   4.720   1.446  0.4361 -0.5273  0.0102
18661TIP3    H277475   6.700   4.871   1.453 -1.4804 -0.4115  0.9410
18662TIP3   OH277476   5.756   2.031  15.479 -0.3196 -0.2459 -0.4986
18662TIP3    H177477   5.820   2.074  15.537 -0.2202  1.7521 -1.9724
18662TIP3    H277478   5.809   1.972  15.425 -0.4882 -2.6125  1.7275
18663TIP3   OH277479   0.376   2.224  16.257  0.0281  0.2807 -0.3085
18663TIP3    H177480   0.426   2.145  16.279  1.3033  1.5858  1.8287
18663TIP3    H277481   0.442   2.285  16.221 -1.1384  0.0519 -3.1048
18664TIP3   OH277482   3.681   2.263  11.378  0.1149  0.5424 -0.2919
18664TIP3    H177483   3.678   2.177  11.419 -0.2590  0.9347  0.5201
18664TIP3    H277484   3.764   2.300  11.405  0.6144  0.1596 -1.2451
18665TIP3   OH277485   6.138   3.743  12.654  0.5596  0.6074  0.4370
18665TIP3    H177486   6.103   3.794  12.582  0.5323  0.2133  0.1643
18665TIP3    H277487   6.067   3.739  12.718  0.0798 -0.1920 -0.1139
18666TIP3   OH277488   2.073   4.829  12.145  0.0640 -0.4606  0.0697
18666TIP3    H177489   2.147   4.775  12.173  0.9783  0.7801  0.1102
18666TIP3    H277490   2.068   4.815  12.050  0.2932 -0.6157  0.0797
18667TIP3   OH277491   5.281   2.571  13.105  0.5743  0.0101  0.0859
18667TIP3    H177492   5.211   2.584  13.041 -0.7599 -1.4178  1.1667
18667TIP3    H277493   5.306   2.660  13.131  0.0178  0.5707 -1.2212
18668TIP3   OH277494   5.380   1.019  13.398  0.2815  0.4716  0.1472
18668TIP3    H177495   5.333   1.057  13.324  0.1917 -0.1721 -0.1362
18668TIP3    H277496   5.423   1.093  13.440 -0.2016  0.9341 -0.1642
18669TIP3   OH277497   2.124   1.660  16.549 -0.5000  0.1307 -0.2410
18669TIP3    H177498   2.089   1.594  16.489 -2.4278  2.1748 -1.5518
18669TIP3    H277499   2.190   1.706  16.497  0.4897 -0.4260  0.4994
18670TIP3   OH277500   6.626   1.756   4.335 -0.1940 -0.7648 -0.0556
18670TIP3    H177501   6.643   1.663   4.343 -1.9345 -1.0968  0.1577
18670TIP3    H277502   6.539   1.762   4.296 -0.0183  0.7742 -0.2992
18671TIP3   OH277503   6.023   6.088   6.002 -1.0585 -0.1113 -0.9693
18671TIP3    H177504   6.092   6.035   6.043 -0.9527 -0.7398 -1.9211
18671TIP3    H277505   5.952   6.088   6.066 -0.4394 -0.0335 -0.2629
18672TIP3   OH277506   3.854   2.006  12.939  0.5900 -0.0121 -0.3517
18672TIP3    H177507   3.793   2.035  13.007 -0.2219  0.9745 -1.4488
18672TIP3    H277508   3.940   2.010  12.980  0.3155  2.2400  0.1281
18673TIP3   OH277509   2.207   3.503   3.922 -0.0095  0.0648  0.0390
18673TIP3    H177510   2.174   3.592   3.939 -1.8105 -0.3293 -1.2262
18673TIP3    H277511   2.180   3.453   3.999 -2.0625 -0.1475 -0.7792
18674TIP3   OH277512   3.532   3.272   4.401  0.0606  0.6975  0.0661
18674TIP3    H177513   3.552   3.252   4.310 -1.4108  1.7432 -0.5357
18674TIP3    H277514   3.453   3.326   4.396  0.2363  1.1840  1.9347
18675TIP3   OH277515   5.894   3.009   0.546  0.2622  0.3959  0.1481
18675TIP3    H177516   5.920   3.039   0.633  2.1630 -0.5862 -0.0299
18675TIP3    H277517   5.959   3.047   0.487 -1.5426  1.8192 -1.0128
18676TIP3   OH277518   5.004   6.189   5.302  0.3804 -0.5702 -0.0920
18676TIP3    H177519   5.062   6.159   5.232 -0.6798  0.3585 -1.4251
18676TIP3    H277520   5.059   6.188   5.380  1.1617 -3.2505 -0.5585
18677TIP3   OH277521   1.556   2.360   2.785  0.2758  0.3261  0.2441
18677TIP3    H177522   1.598   2.339   2.868  1.3008 -3.3150 -1.0252
18677TIP3    H277523   1.557   2.278   2.736 -2.0073  1.8480 -2.6606
18678TIP3   OH277524   5.708   6.643  14.194  0.5585 -0.1235 -0.4585
18678TIP3    H177525   5.778   6.595  14.151  1.3704 -0.5827  1.2610
18678TIP3    H277526   5.714   6.615  14.286 -0.0277  1.9992  0.2707
18679TIP3   OH277527   1.058   0.527  12.139 -0.5425  0.3411 -0.5284
18679TIP3    H177528   1.135   0.584  12.143 -0.4579  0.1781  0.1681
18679TIP3    H277529   1.070   0.477  12.058 -0.0111  0.4510 -0.5216
18680TIP3   OH277530   4.663   0.578  15.879 -0.1645 -0.0982 -0.3964
18680TIP3    H177531   4.655   0.601  15.972  0.4634  1.5974 -0.7286
18680TIP3    H277532   4.748   0.533  15.873  0.5087  1.1214 -0.3604
18681TIP3   OH277533   5.451   0.179  15.513 -0.3933  0.5092  0.4454
18681TIP3    H177534   5.453   0.111  15.581 -0.6204 -0.5313 -0.5556
18681TIP3    H277535   5.359   0.188  15.491 -0.2581  0.3610 -0.1881
18682TIP3   OH277536   3.344   5.906   1.341  0.2261 -0.4925 -0.1441
18682TIP3    H177537   3.294   5.888   1.262 -0.7279 -0.5113  0.4429
18682TIP3    H277538   3.377   5.821   1.369 -2.9815 -1.2713  1.7783
18683TIP3   OH277539   1.003   0.113   0.775  0.6235 -0.0265  0.2836
18683TIP3    H177540   0.997   0.205   0.749 -2.5643  0.0010  0.7560
18683TIP3    H277541   0.918   0.077   0.753  1.2373 -2.4814  1.6264
18684TIP3   OH277542   4.714   0.784   2.310  0.3931  0.1836 -0.5196
18684TIP3    H177543   4.686   0.853   2.249  1.6477 -0.0762 -1.4380
18684TIP3    H277544   4.734   0.831   2.391  0.0061  0.7294 -0.7369
18685TIP3   OH277545   4.377   2.171   0.602 -0.3131 -0.2679  0.0580
18685TIP3    H177546   4.445   2.204   0.543  0.0414  0.1021  0.6660
18685TIP3    H277547   4.418   2.170   0.688 -0.1970 -2.6276  0.0387
18686TIP3   OH277548   2.790   2.287   4.500  0.3803 -0.4347 -0.0922
18686TIP3    H177549   2.836   2.346   4.560 -0.1301  0.2952 -0.4056
18686TIP3    H277550   2.860   2.247   4.448  0.8751 -1.5142  1.3540
18687TIP3   OH277551   0.474   4.361   5.445 -0.7206 -0.3364  0.2696
18687TIP3    H177552   0.436   4.384   5.530 -0.8626  0.8104 -0.0929
18687TIP3    H277553   0.444   4.272   5.429  1.5154 -1.6680  2.6642
18688TIP3   OH277554   1.595   3.054  14.154 -0.9447 -0.0181  0.1603
18688TIP3    H177555   1.609   3.063  14.249  1.8447 -0.5984 -0.1219
18688TIP3    H277556   1.553   2.969  14.144 -2.4716  0.6011  0.9105
18689TIP3   OH277557   3.904   0.455  10.846 -0.0992 -0.0599  0.1305
18689TIP3    H177558   3.914   0.368  10.883 -1.0355  0.0296  0.6381
18689TIP3    H277559   3.946   0.451  10.760 -0.2970 -1.0614  0.0767
18690TIP3   OH277560   5.215   5.452  13.960  0.5168 -0.1485  0.4906
18690TIP3    H177561   5.212   5.384  13.892 -1.4294  1.9805 -1.7138
18690TIP3    H277562   5.273   5.519  13.924 -0.4527  0.9618  0.9550
18691TIP3   OH277563   5.432   3.854  17.248 -0.1737  0.1510  0.3068
18691TIP3    H177564   5.516   3.850  17.203 -0.4012 -0.4886 -0.0826
18691TIP3    H277565   5.432   3.777  17.305  0.0535  0.8762  1.3046
18692TIP3   OH277566   5.351   2.040  14.332 -0.5434 -1.0127 -0.0557
18692TIP3    H177567   5.445   2.058  14.325 -0.7022 -0.3480 -0.7140
18692TIP3    H277568   5.318   2.054  14.243 -1.3370 -0.7967  0.2648
18693TIP3   OH277569   1.037   4.486  15.962  0.2823  0.2925  0.9388
18693TIP3    H177570   1.125   4.458  15.985  0.5712  1.1095  0.8636
18693TIP3    H277571   0.982   4.454  16.034  0.8656  1.0115  1.7260
18694TIP3   OH277572   4.596   2.233  12.238  0.4691  0.0890  0.3029
18694TIP3    H177573   4.559   2.172  12.302 -1.8947 -0.1601 -1.1564
18694TIP3    H277574   4.668   2.184  12.198  2.7402  0.6392  3.3532
18695TIP3   OH277575   6.444   5.890  11.921  0.2772  0.0384  0.2949
18695TIP3    H177576   6.394   5.832  11.977 -0.8066  0.4939 -0.1751
18695TIP3    H277577   6.391   5.970  11.915 -0.3840 -0.5010 -2.5060
18696TIP3   OH277578   5.970   3.057  14.324  0.0501  0.1974 -0.5311
18696TIP3    H177579   5.895   3.116  14.332 -0.1039  0.0594 -0.8783
18696TIP3    H277580   6.046   3.114  14.315  0.2256  0.3508  1.6183
18697TIP3   OH277581   2.864   3.746   3.554  0.4299  0.1942 -0.4249
18697TIP3    H177582   2.814   3.667   3.532  1.4488 -0.8616  0.9052
18697TIP3    H277583   2.955   3.723   3.535  1.1023 -0.0167  2.5646
18698TIP3   OH277584   3.089   1.250  13.016 -0.0292  0.4236 -0.3096
18698TIP3    H177585   3.104   1.343  13.029  1.6540  0.0919  0.3544
18698TIP3    H277586   3.132   1.229  12.933  0.8653 -0.0275  0.2558
18699TIP3   OH277587   0.277   0.484   0.228 -0.4755 -0.0100 -0.2637
18699TIP3    H177588   0.362   0.486   0.274 -0.7677 -0.4523  0.3095
18699TIP3    H277589   0.300   0.477   0.136  0.1254  0.6687 -0.1702
18700TIP3   OH277590   1.659   3.497   5.286 -0.0317 -0.4092 -0.5599
18700TIP3    H177591   1.748   3.465   5.272 -0.1859 -0.7157 -0.8556
18700TIP3    H277592   1.630   3.452   5.366 -0.1302 -0.7674 -0.7930
18701TIP3   OH277593   1.920   1.650   5.392 -0.1399  0.5477  1.0105
18701TIP3    H177594   1.883   1.563   5.409 -1.2287  0.9122  0.6027
18701TIP3    H277595   1.921   1.658   5.297 -1.1775  1.4335  1.0541
18702TIP3   OH277596   6.483   2.429   5.533 -0.0977 -0.3571  0.3995
18702TIP3    H177597   6.406   2.377   5.509 -0.7534  1.3200 -1.4882
18702TIP3    H277598   6.557   2.380   5.498 -0.5853 -0.6751 -0.2148
18703TIP3   OH277599   1.382   6.199  12.566 -0.1032 -0.1964 -0.7576
18703TIP3    H177600   1.348   6.194  12.655  0.7487 -0.5709 -0.4428
18703TIP3    H277601   1.333   6.133  12.517 -1.7146  1.0895 -0.9805
18704TIP3   OH277602   3.234   3.140  13.188 -0.1536 -0.1360  0.1258
18704TIP3    H177603   3.296   3.068  13.197  1.3715  1.2035  0.7288
18704TIP3    H277604   3.208   3.161  13.278 -0.5652  0.0920 -0.0431
18705TIP3   OH277605   4.229   5.773   6.311 -0.5390 -0.6779  0.2461
18705TIP3    H177606   4.291   5.845   6.302  1.0338 -1.7935  1.5236
18705TIP3    H277607   4.171   5.798   6.383 -1.2298  0.1028 -0.5579
18706TIP3   OH277608   1.792   3.825   4.822  0.3033 -0.0584 -0.5485
18706TIP3    H177609   1.710   3.824   4.872  0.7813  1.5723  0.3191
18706TIP3    H277610   1.843   3.754   4.861  0.9213  1.5641  1.8384
18707TIP3   OH277611   0.954   4.440  13.257  0.4809 -0.2226 -0.4682
18707TIP3    H177612   0.955   4.471  13.347  1.7429  0.5178 -0.6989
18707TIP3    H277613   1.045   4.449  13.228  0.0797 -0.3295 -1.8472
18708TIP3   OH277614   4.777   0.502   2.355 -0.3958 -1.0205  0.3948
18708TIP3    H177615   4.730   0.579   2.322 -1.8689 -2.4228 -0.9885
18708TIP3    H277616   4.846   0.538   2.410 -0.8298  1.2913 -0.4457
18709TIP3   OH277617   5.777   3.814  13.887  0.3463  0.4849  0.9175
18709TIP3    H177618   5.812   3.753  13.821 -0.8292  0.2166  0.5210
18709TIP3    H277619   5.829   3.894  13.876 -0.3942  0.7440 -0.9284
18710TIP3   OH277620   1.957   0.105  11.354  0.7772 -0.7028 -0.5276
18710TIP3    H177621   1.920   0.019  11.373 -0.5489 -0.2234 -0.8247
18710TIP3    H277622   2.017   0.122  11.427 -0.3302 -1.1032  0.5111
18711TIP3   OH277623   2.623   6.391  14.765 -0.2104 -0.0452 -0.0342
18711TIP3    H177624   2.548   6.441  14.796  0.3122 -0.0032  1.2408
18711TIP3    H277625   2.588   6.334  14.697 -1.6953 -1.0458  1.5012
18712TIP3   OH277626   6.044   0.929  17.154 -0.3472  0.3475  0.3302
18712TIP3    H177627   6.003   0.845  17.132  0.4931 -0.0364  0.2222
18712TIP3    H277628   5.996   0.958  17.232 -1.6398  0.4966 -0.4889
18713TIP3   OH277629   5.888   4.792   2.955 -0.0341 -0.5942  0.1382
18713TIP3    H177630   5.865   4.703   2.981 -0.0819 -0.6143  0.0259
18713TIP3    H277631   5.955   4.781   2.887  0.0499 -0.5428  0.2127
18714TIP3   OH277632   5.345   4.776  16.973  0.2072  0.1867  0.3421
18714TIP3    H177633   5.270   4.727  17.006  0.9938 -0.6748  0.8975
18714TIP3    H277634   5.308   4.835  16.907 -0.8929 -0.4994  0.3184
18715TIP3   OH277635   1.373   3.253   2.097  0.7572 -0.2190  0.1001
18715TIP3    H177636   1.327   3.185   2.146  1.5194 -0.0191  1.1305
18715TIP3    H277637   1.309   3.324   2.089 -0.1740 -1.1571 -1.3137
18716TIP3   OH277638   1.651   5.676   2.875  0.1049  0.3584  0.5548
18716TIP3    H177639   1.623   5.688   2.784  2.2034  0.2150 -0.1710
18716TIP3    H277640   1.574   5.699   2.927 -0.9376  1.1407 -1.2317
18717TIP3   OH277641   1.112   3.278  11.847 -0.0308  0.0589 -0.2942
18717TIP3    H177642   1.186   3.218  11.859  1.4503  1.3850 -2.1932
18717TIP3    H277643   1.097   3.315  11.934 -0.3399 -2.2707  0.7121
18718TIP3   OH277644   1.118   6.507  13.152  0.4943  0.4912  0.1176
18718TIP3    H177645   1.049   6.450  13.117 -0.7263  0.3974  2.4843
18718TIP3    H277646   1.079   6.594  13.154  1.5694  1.0495 -1.3499
18719TIP3   OH277647   4.282   0.474   0.379 -0.1918  0.4722 -0.3255
18719TIP3    H177648   4.224   0.522   0.438 -0.0687  0.1446  0.0750
18719TIP3    H277649   4.317   0.403   0.434 -1.9966 -1.3839 -1.4499
18720TIP3   OH277650   5.008   3.274  15.904 -0.3064  0.2718  0.6257
18720TIP3    H177651   5.031   3.320  15.823  1.0854 -1.4206  0.0017
18720TIP3    H277652   4.992   3.344  15.967  1.7076  1.6320 -0.2711
18721TIP3   OH277653   0.760   4.935   3.071  0.3190  0.7685  0.4666
18721TIP3    H177654   0.669   4.955   3.048  0.5810  2.1424  0.5363
18721TIP3    H277655   0.765   4.839   3.069 -0.6822  0.7174 -1.2515
18722TIP3   OH277656   1.959   3.706   3.958 -0.5596  0.2974 -0.2800
18722TIP3    H177657   1.919   3.740   3.878 -0.9943  0.1761 -0.1166
18722TIP3    H277658   1.885   3.680   4.013 -0.5028  3.5900  1.6258
18723TIP3   OH277659   6.733   1.128   4.081 -1.0184 -1.0231 -0.0178
18723TIP3    H177660   6.717   1.091   3.994 -2.9075  0.4300 -0.3670
18723TIP3    H277661   6.660   1.097   4.134  0.0452 -1.7779  1.0419
18724TIP3   OH277662   1.041   1.054   6.443  0.0296 -0.8468  0.1590
18724TIP3    H177663   1.055   1.127   6.503 -0.2845  0.6803 -1.5176
18724TIP3    H277664   0.949   1.031   6.455  0.1854 -1.1286  0.8513
18725TIP3   OH277665   5.941   3.876   4.392 -0.3772  0.0232 -0.1505
18725TIP3    H177666   5.847   3.861   4.400 -0.2647 -0.0751  1.3687
18725TIP3    H277667   5.965   3.836   4.308 -1.3682 -1.7294  0.3392
18726TIP3   OH277668   4.795   4.383  16.360  0.1385  0.0294 -0.1063
18726TIP3    H177669   4.793   4.471  16.322 -1.0451  1.0556  2.1706
18726TIP3    H277670   4.783   4.325  16.285 -1.9282  1.9227 -1.3661
18727TIP3   OH277671   2.407   2.137   1.641  0.1684  0.4605 -0.3204
18727TIP3    H177672   2.329   2.098   1.680 -0.9418 -0.5790 -3.3120
18727TIP3    H277673   2.418   2.221   1.686 -1.4385 -0.2729  1.5606
18728TIP3   OH277674   4.201   5.603  14.209  0.1027 -0.1119  0.0116
18728TIP3    H177675   4.136   5.568  14.271  0.2700  0.3660  0.4634
18728TIP3    H277676   4.264   5.649  14.264 -1.1690  2.6672 -0.6916
18729TIP3   OH277677   3.973   4.323  12.447  0.2614 -0.4618  0.4472
18729TIP3    H177678   4.054   4.341  12.496  0.5579  3.0710 -1.0737
18729TIP3    H277679   3.905   4.370  12.495  0.0778  0.8340 -1.0209
18730TIP3   OH277680   5.955   4.420  15.746 -0.0550  0.5249  0.1924
18730TIP3    H177681   5.996   4.365  15.679 -0.6428  0.2231  0.0700
18730TIP3    H277682   5.947   4.506  15.706 -1.0367  0.1810 -0.4017
18731TIP3   OH277683   1.266   5.151  16.834 -0.7029 -0.1582 -0.0382
18731TIP3    H177684   1.184   5.112  16.865 -0.1053  0.3876  2.4219
18731TIP3    H277685   1.239   5.230  16.788 -1.6406 -0.9505 -0.8826
18732TIP3   OH277686   5.522   3.753  15.540 -0.4956 -0.4347 -0.5801
18732TIP3    H177687   5.455   3.749  15.472 -0.6690  0.8354 -0.5031
18732TIP3    H277688   5.604   3.765  15.492 -0.7133  1.3769 -0.5781
18733TIP3   OH277689   6.435   1.519  12.207 -0.3599 -0.0797 -0.4269
18733TIP3    H177690   6.523   1.558  12.201  0.1133 -0.7135  1.5695
18733TIP3    H277691   6.423   1.476  12.122  1.1076  0.3211 -0.8844
18734TIP3   OH277692   4.308   5.164  12.936 -0.0784  0.0077  0.7418
18734TIP3    H177693   4.366   5.140  12.864 -1.4351  0.0341 -0.3851
18734TIP3    H277694   4.294   5.258  12.926 -1.6349 -0.2733 -0.0280
18735TIP3   OH277695   3.096   6.319   3.499 -0.9835 -0.0613  0.5360
18735TIP3    H177696   3.112   6.245   3.441 -0.8499  1.6449 -1.7045
18735TIP3    H277697   3.002   6.334   3.495 -1.2564 -0.9677  2.2002
18736TIP3   OH277698   1.951   6.538   5.440  0.6545 -0.3306  0.0118
18736TIP3    H177699   1.877   6.597   5.456  1.5903  1.2654 -1.1902
18736TIP3    H277700   1.991   6.524   5.526  0.5983  1.0853  0.2908
18737TIP3   OH277701   2.811   1.917   4.634 -0.1760  0.2040  0.5258
18737TIP3    H177702   2.892   1.867   4.619  1.1459  2.2340  0.5199
18737TIP3    H277703   2.814   1.941   4.727 -1.5012 -0.8512  0.8719
18738TIP3   OH277704   1.026   4.900  12.831  0.0931  0.2489  0.1804
18738TIP3    H177705   1.034   4.823  12.773 -0.3162 -1.2735  2.0313
18738TIP3    H277706   0.954   4.950  12.794 -1.2193 -1.5104  0.1876
18739TIP3   OH277707   5.575   5.160   3.591  0.8769 -0.4551  0.3228
18739TIP3    H177708   5.539   5.222   3.654  1.1285  1.0702 -0.9720
18739TIP3    H277709   5.518   5.084   3.597  0.2057  0.1160  1.5528
18740TIP3   OH277710   2.055   1.994  14.216  0.6336  0.1917 -0.0331
18740TIP3    H177711   2.022   2.020  14.130  1.7099  1.9453  0.0370
18740TIP3    H277712   1.991   2.031  14.277 -0.2528 -1.2469 -0.0582
18741TIP3   OH277713   3.599   1.411   3.979  0.3319  0.4190 -0.1991
18741TIP3    H177714   3.518   1.362   3.964 -1.1591  2.1535  1.7459
18741TIP3    H277715   3.652   1.353   4.033  0.0688 -0.4051 -0.8025
18742TIP3   OH277716   5.659   3.045   0.406 -0.3078 -0.3716  0.1349
18742TIP3    H177717   5.738   3.025   0.456 -1.0293 -0.8814  1.1026
18742TIP3    H277718   5.673   3.134   0.374  0.5814 -0.3928  0.4423
18743TIP3   OH277719   2.162   3.029  16.807  0.7540 -0.3865 -0.2173
18743TIP3    H177720   2.122   3.029  16.721  0.7352  0.9224 -0.2357
18743TIP3    H277721   2.192   3.120  16.820 -1.9348  0.2864  2.3819
18744TIP3   OH277722   5.534   4.683  16.398 -0.0521  0.4159  0.3429
18744TIP3    H177723   5.610   4.665  16.454  0.4622  1.4541 -0.0038
18744TIP3    H277724   5.475   4.733  16.454 -1.8619 -2.8055  1.5802
18745TIP3   OH277725   5.830   2.667   2.458  0.7056 -0.3017  0.0735
18745TIP3    H177726   5.792   2.745   2.499  1.2855  0.2382 -0.4048
18745TIP3    H277727   5.760   2.602   2.462  0.1417  0.3053  0.2879
18746TIP3   OH277728   3.612   1.368  13.720 -0.5696  0.2221  0.3427
18746TIP3    H177729   3.555   1.299  13.754  0.2438 -0.1795  0.9157
18746TIP3    H277730   3.662   1.398  13.796  1.2918 -0.6963 -0.4431
18747TIP3   OH277731   1.547   2.883  13.846 -0.2319  0.5609 -0.2504
18747TIP3    H177732   1.637   2.916  13.840  0.0106 -0.2475 -1.4022
18747TIP3    H277733   1.535   2.863  13.938  0.4325  1.5949  0.0807
18748TIP3   OH277734   1.253   2.981   1.292 -0.1972  0.5429 -0.2304
18748TIP3    H177735   1.318   3.006   1.227  0.5681 -0.5204  0.1042
18748TIP3    H277736   1.302   2.966   1.372 -0.6650 -1.3372 -0.2412
18749TIP3   OH277737   2.476   3.640   5.358 -0.0106  0.0683  0.4262
18749TIP3    H177738   2.402   3.642   5.298  0.0305 -0.1102  0.3676
18749TIP3    H277739   2.514   3.728   5.354  1.6681 -0.6670 -1.9321
18750TIP3   OH277740   0.937   4.697   2.350 -0.1156 -0.4137 -0.3156
18750TIP3    H177741   0.941   4.785   2.312 -0.9464 -0.2491 -0.0436
18750TIP3    H277742   0.886   4.646   2.287 -0.7004 -0.3754  0.1157
18751TIP3   OH277743   2.098   0.742   2.581  0.2748  0.4016  0.3009
18751TIP3    H177744   2.060   0.713   2.664 -2.1938 -0.1846 -0.9529
18751TIP3    H277745   2.023   0.762   2.526  1.7334 -1.3497 -2.5665
18752TIP3   OH277746   0.680   2.020   1.915 -0.0637 -0.3606  0.7416
18752TIP3    H177747   0.665   1.955   1.984 -3.2001  0.4517  1.0193
18752TIP3    H277748   0.649   1.978   1.835 -0.7073  0.2137  0.6709
18753TIP3   OH277749   6.139   2.226  16.931 -0.5478  0.2039 -0.0992
18753TIP3    H177750   6.059   2.235  16.983  0.0938  0.3265  0.8949
18753TIP3    H277751   6.126   2.286  16.858 -1.1504  0.6298  0.3394
18754TIP3   OH277752   4.602   4.589  10.666  0.0340 -0.3353 -0.5172
18754TIP3    H177753   4.592   4.656  10.599  0.1235  0.1028 -0.0952
18754TIP3    H277754   4.692   4.558  10.656  0.1811  0.0300 -0.3193
18755TIP3   OH277755   5.975   2.397  13.862  0.2322 -0.3665  0.0298
18755TIP3    H177756   5.900   2.456  13.859  1.9021  1.8768 -0.3187
18755TIP3    H277757   6.051   2.455  13.872  1.9495 -2.5088  0.1720
18756TIP3   OH277758   4.570   1.053  14.587 -0.7591  0.2719 -0.5706
18756TIP3    H177759   4.619   0.988  14.536  0.7523  1.0109 -0.1467
18756TIP3    H277760   4.593   1.034  14.678 -2.3535 -0.1869 -0.2493
18757TIP3   OH277761   0.761   0.898  12.766  0.7962 -0.5725  0.5485
18757TIP3    H177762   0.735   0.935  12.682 -0.1119  0.0921  1.1124
18757TIP3    H277763   0.779   0.806  12.747  0.5808 -0.4302 -0.3690
18758TIP3   OH277764   5.371   5.053   4.365  0.3512 -0.5273 -0.0562
18758TIP3    H177765   5.289   5.066   4.412  0.7183 -1.7695  0.9749
18758TIP3    H277766   5.361   4.969   4.321  1.0270 -0.6314 -0.0206
18759TIP3   OH277767   2.016   0.094  13.007  0.1205  0.8192 -0.0159
18759TIP3    H177768   1.999   0.039  13.084  2.3549  1.2191  0.8417
18759TIP3    H277769   2.038   0.180  13.043 -0.7817  1.5856 -1.2219
18760TIP3   OH277770   6.272   2.239   0.817 -0.1047  0.3267  0.4256
18760TIP3    H177771   6.343   2.192   0.773 -1.2037 -0.6412 -0.3566
18760TIP3    H277772   6.312   2.321   0.845  0.7886  0.7709 -1.9311
18761TIP3   OH277773   4.540   6.441  10.894 -0.5710 -0.0172 -0.0762
18761TIP3    H177774   4.475   6.491  10.942 -0.4504 -0.7341  0.8632
18761TIP3    H277775   4.572   6.501  10.827 -2.3518  0.2732 -0.7123
18762TIP3   OH277776   2.648   0.632  16.148  0.0634  0.4753 -0.3146
18762TIP3    H177777   2.639   0.704  16.209 -0.3559  1.1194 -1.1186
18762TIP3    H277778   2.739   0.602  16.159 -0.9800 -1.9867  3.3510
18763TIP3   OH277779   0.030   4.229   5.654  0.3366  0.1836  0.3103
18763TIP3    H177780   0.046   4.190   5.568 -0.1683 -1.3305  0.8682
18763TIP3    H277781  -0.027   4.303   5.637  0.3647 -0.0063 -0.6794
18764TIP3   OH277782   4.867   2.486   0.599 -0.0350  0.1765 -0.2153
18764TIP3    H177783   4.960   2.463   0.597 -0.0648  0.0887 -0.6597
18764TIP3    H277784   4.834   2.441   0.677 -0.3340 -2.3433 -1.6688
18765TIP3   OH277785   6.161   3.568  12.359 -0.5289  0.0106  0.4947
18765TIP3    H177786   6.093   3.570  12.291  0.1717  3.2108 -0.2712
18765TIP3    H277787   6.113   3.572  12.441 -1.2950  0.0728  0.0555
18766TIP3   OH277788   1.543   3.116   4.740  0.1862 -0.3676  0.2560
18766TIP3    H177789   1.595   3.192   4.713  2.1833 -1.6895  0.1836
18766TIP3    H277790   1.504   3.083   4.659 -3.0420  2.0963  0.6066
18767TIP3   OH277791   1.274   1.907  15.526  0.3026 -0.5683  0.8017
18767TIP3    H177792   1.291   1.980  15.585  0.6723 -1.0204  1.2669
18767TIP3    H277793   1.359   1.890  15.485  0.1494 -0.5468  0.4678
18768TIP3   OH277794   5.165   1.892  13.298  0.1170 -0.7769 -0.3331
18768TIP3    H177795   5.250   1.935  13.302  0.1305 -0.7786 -0.5845
18768TIP3    H277796   5.103   1.958  13.327  0.1682 -0.6666 -0.4720
18769TIP3   OH277797   0.646   4.957   3.356 -0.1402 -0.4881 -0.8134
18769TIP3    H177798   0.626   4.875   3.401  2.5684 -0.5882  0.3494
18769TIP3    H277799   0.687   4.930   3.273  0.2265 -0.3141 -0.6901
18770TIP3   OH277800   1.554   2.584  10.920  0.1799  0.3267 -0.2678
18770TIP3    H177801   1.503   2.655  10.881  0.2525  0.3780 -0.2705
18770TIP3    H277802   1.565   2.610  11.011  0.4324  0.4488 -0.3317
18771TIP3   OH277803   2.683   3.362   0.633 -0.7845  0.0582 -0.5798
18771TIP3    H177804   2.615   3.295   0.635 -0.3481 -0.3625 -0.0695
18771TIP3    H277805   2.733   3.343   0.553 -1.3179  0.4294 -1.0118
18772TIP3   OH277806   5.884   2.009  14.199 -0.1283 -0.2573 -0.0340
18772TIP3    H177807   5.914   2.097  14.223  0.1250  0.0619 -1.3823
18772TIP3    H277808   5.886   2.009  14.103  0.5392 -1.9650 -0.0575
18773TIP3   OH277809   1.696   1.355  11.970 -0.4953 -0.4724  0.2524
18773TIP3    H177810   1.677   1.312  12.053  0.3313 -0.3050  0.5477
18773TIP3    H277811   1.741   1.288  11.918 -0.7592 -0.4930  0.0534
18774TIP3   OH277812   4.590   2.199   5.150 -0.2092  0.5672 -0.2597
18774TIP3    H177813   4.542   2.116   5.159 -2.1094  1.5377 -1.0242
18774TIP3    H277814   4.673   2.174   5.108 -0.7108 -0.9414 -0.4154
18775TIP3   OH277815   3.836   1.969   2.317  0.5608 -0.0738 -0.0994
18775TIP3    H177816   3.844   1.925   2.401 -0.0583 -1.2309 -0.6194
18775TIP3    H277817   3.747   2.004   2.317  1.7333  3.3728  1.2812
18776TIP3   OH277818   5.708   0.765   2.160 -0.5406  0.6134 -0.3968
18776TIP3    H177819   5.801   0.769   2.184 -0.7139  1.7960  0.1332
18776TIP3    H277820   5.677   0.855   2.169 -1.8018  0.1895 -0.3292
18777TIP3   OH277821   2.475   2.078  12.220 -0.1803 -0.3496  0.8693
18777TIP3    H177822   2.456   2.155  12.274  1.6165 -0.5106  1.8123
18777TIP3    H277823   2.394   2.028  12.221 -0.9576  0.8797  1.3580
18778TIP3   OH277824   3.999   1.996  16.219  0.1432  0.0454 -0.4191
18778TIP3    H177825   3.924   1.938  16.229  0.9205 -0.7362  1.3120
18778TIP3    H277826   4.068   1.941  16.184  0.5359  0.2162  0.0774
18779TIP3   OH277827   0.477   5.211   4.116 -0.3690 -0.1786  0.4589
18779TIP3    H177828   0.521   5.129   4.138  0.0670  0.1737  0.9466
18779TIP3    H277829   0.512   5.235   4.031  1.1350  0.5727  1.2445
18780TIP3   OH277830   1.798   4.257   3.352  0.0201  0.9218 -0.4553
18780TIP3    H177831   1.724   4.318   3.364  0.1038  0.9904 -0.2906
18780TIP3    H277832   1.875   4.308   3.375  0.1119  0.8186 -0.5335
18781TIP3   OH277833   1.205   4.638   6.786  0.3361 -0.0378  0.0777
18781TIP3    H177834   1.174   4.665   6.700  1.3838 -0.9717 -0.6261
18781TIP3    H277835   1.247   4.553   6.771 -0.1003 -0.5606  1.6430
18782TIP3   OH277836   0.761   5.015  12.939 -0.1648  0.8233 -0.1859
18782TIP3    H177837   0.696   5.001  13.008 -0.2458  0.9557 -0.2342
18782TIP3    H277838   0.729   4.962  12.866  1.3498 -1.5368  0.7564
18783TIP3   OH277839   1.298   6.688   2.175  0.2426 -0.2238 -0.0566
18783TIP3    H177840   1.291   6.782   2.194 -0.7249 -0.0669 -1.1089
18783TIP3    H277841   1.326   6.685   2.083  0.7240 -0.9724  0.1103
18784TIP3   OH277842   5.252   2.604  11.135 -0.1314  0.5003  0.2379
18784TIP3    H177843   5.287   2.669  11.074  0.4604 -1.0533 -1.1625
18784TIP3    H277844   5.256   2.646  11.221  0.8393  2.0520 -0.5348
18785TIP3   OH277845   3.713   1.704   0.702  0.5279  0.1951 -0.0949
18785TIP3    H177846   3.729   1.785   0.653  1.2136  0.1192 -0.0054
18785TIP3    H277847   3.661   1.731   0.778 -2.1634  0.0754 -1.7414
18786TIP3   OH277848   5.706   1.643   3.959 -0.5443 -0.1149 -0.4143
18786TIP3    H177849   5.752   1.559   3.963 -0.9669 -0.3095  1.2264
18786TIP3    H277850   5.631   1.627   3.902 -2.0974 -1.6618  1.9143
18787TIP3   OH277851   0.605   5.402  17.232  0.0003  0.1703  0.3635
18787TIP3    H177852   0.511   5.409  17.218  0.1660  1.1722 -0.3694
18787TIP3    H277853   0.621   5.447  17.315  0.0846  2.0892 -0.6209
18788TIP3   OH277854   2.780   0.067   2.659  0.3866  0.0319  0.3356
18788TIP3    H177855   2.739   0.153   2.663 -0.6162 -0.4747  1.6050
18788TIP3    H277856   2.710   0.006   2.680  1.2263 -1.0625  0.0621
18789TIP3   OH277857   1.999   5.499  10.560 -0.2550  0.1215  0.0877
18789TIP3    H177858   1.930   5.477  10.623  1.1583  0.6915  1.9275
18789TIP3    H277859   2.054   5.421  10.557  1.6165  1.2080  2.3308
18790TIP3   OH277860   2.057   4.723  11.874 -0.0846 -0.6238  0.4954
18790TIP3    H177861   1.974   4.679  11.892  0.6175 -1.6809  1.3428
18790TIP3    H277862   2.117   4.652  11.850  0.8531 -0.0391  1.0208
18791TIP3   OH277863   2.849   6.328  16.685 -0.1308  0.0205  0.2663
18791TIP3    H177864   2.877   6.269  16.614  0.5108  0.8764 -0.2163
18791TIP3    H277865   2.777   6.282  16.727  1.8156 -2.2114  1.4156
18792TIP3   OH277866   4.092   1.322   4.186 -0.2228 -0.0862 -0.5477
18792TIP3    H177867   4.169   1.287   4.143 -0.7376 -0.8598 -0.8572
18792TIP3    H277868   4.019   1.295   4.131 -0.7981 -0.1589  0.2250
18793TIP3   OH277869   6.147   0.259  16.066  0.4170 -0.0874 -1.1329
18793TIP3    H177870   6.056   0.255  16.040 -0.2416 -0.2087  0.9561
18793TIP3    H277871   6.157   0.344  16.108  0.6144 -0.9409  0.6657
18794TIP3   OH277872   1.345   6.725   3.682 -0.0959 -0.6783 -0.1662
18794TIP3    H177873   1.346   6.748   3.775 -0.5828  1.9816 -0.7360
18794TIP3    H277874   1.254   6.738   3.655  0.7427  2.6812 -1.8326
18795TIP3   OH277875   4.665   3.690  11.837  0.1975  0.1156  0.4043
18795TIP3    H177876   4.729   3.755  11.867 -2.2315  2.2176  1.4961
18795TIP3    H277877   4.641   3.719  11.749 -1.4282  1.2519  1.1709
18796TIP3   OH277878   3.185   4.846   2.151 -0.4015 -0.1805  0.5761
18796TIP3    H177879   3.120   4.896   2.102 -0.3498 -0.7140 -0.0557
18796TIP3    H277880   3.179   4.758   2.114 -0.5990 -0.6876  1.7580
18797TIP3   OH277881   5.120   1.441   1.966 -0.0516  0.2566 -0.2771
18797TIP3    H177882   5.127   1.401   2.053 -0.3377  0.2823 -0.2408
18797TIP3    H277883   5.113   1.367   1.906 -0.1494  0.2430 -0.2496
18798TIP3   OH277884   6.315   2.206   5.475 -0.4699  0.1429 -0.1234
18798TIP3    H177885   6.250   2.236   5.412 -0.2377 -0.2964 -0.5860
18798TIP3    H277886   6.330   2.114   5.451  0.7404  0.3859 -0.4027
18799TIP3   OH277887   1.263   5.949  15.159 -0.5002 -0.5446 -0.1545
18799TIP3    H177888   1.189   5.948  15.218 -1.6431  1.5974 -1.4211
18799TIP3    H277889   1.225   5.962  15.072  1.1549 -2.8005 -1.3319
18800TIP3   OH277890   6.002   1.905  15.320  0.7197  0.3059 -0.0109
18800TIP3    H177891   6.048   1.944  15.394  2.0012 -3.0040  1.0905
18800TIP3    H277892   6.037   1.816  15.313 -0.9013 -0.2313 -3.2841
18801TIP3   OH277893   0.038   4.056  12.389 -0.2735 -0.1996  0.1932
18801TIP3    H177894   0.040   4.147  12.416 -2.3049  0.3057 -1.1780
18801TIP3    H277895   0.108   4.014  12.440 -0.3904  1.7453  2.0697
18802TIP3   OH277896   3.462   2.201  16.558 -0.3120  0.3419 -0.4992
18802TIP3    H177897   3.499   2.134  16.615 -0.2726  0.0355 -0.8808
18802TIP3    H277898   3.371   2.210  16.588 -0.1429  0.5698 -0.0421
18803TIP3   OH277899   2.914   0.226  14.382 -0.2019 -0.8231  0.0908
18803TIP3    H177900   2.943   0.317  14.391  0.1391 -0.7619 -1.4530
18803TIP3    H277901   2.929   0.188  14.469 -3.2115  1.3601  1.7628
18804TIP3   OH277902   3.553   5.926   5.580 -0.0362  0.1135  0.3858
18804TIP3    H177903   3.480   5.917   5.518  0.3608 -0.2226 -0.0353
18804TIP3    H277904   3.516   5.900   5.664 -1.1812  2.6084  0.7263
18805TIP3   OH277905   0.137   1.996  16.415 -0.1338 -0.1749  0.4243
18805TIP3    H177906   0.218   1.965  16.455  0.6945  0.2945 -0.8299
18805TIP3    H277907   0.135   1.952  16.329 -0.4449  0.9323 -0.1550
18806TIP3   OH277908   0.899   5.674   4.638  0.1454 -0.2768  0.3989
18806TIP3    H177909   0.921   5.608   4.572  1.1399  0.0452  0.3944
18806TIP3    H277910   0.979   5.684   4.689 -0.7602 -0.9175  2.0219
18807TIP3   OH277911   2.258   1.333  14.547  0.1773 -0.1892  0.0004
18807TIP3    H177912   2.313   1.337  14.469 -1.5963  0.2349 -1.3079
18807TIP3    H277913   2.170   1.356  14.515 -1.3917 -3.5506  1.3531
18808TIP3   OH277914   4.899   3.856  11.606  0.5447 -0.3393  0.3029
18808TIP3    H177915   4.827   3.819  11.658  0.3830 -0.5954 -0.1027
18808TIP3    H277916   4.867   3.854  11.516  1.3058 -1.0125  0.0463
18809TIP3   OH277917   3.028   2.526   3.297  0.0491 -0.1681 -0.2576
18809TIP3    H177918   2.953   2.473   3.324  0.6846 -0.9363  0.0146
18809TIP3    H277919   3.011   2.546   3.205 -0.2202 -0.7835 -0.3447
18810TIP3   OH277920   0.851   2.697  13.160  0.4406  0.4337  0.1127
18810TIP3    H177921   0.884   2.701  13.250  2.1085  1.4198 -0.4896
18810TIP3    H277922   0.907   2.632  13.117  0.8983  1.2932 -0.6399
18811TIP3   OH277923   0.992   3.643   0.194  0.3328 -0.1246  0.1663
18811TIP3    H177924   0.946   3.726   0.179  0.3953  0.3223  2.2392
18811TIP3    H277925   0.926   3.576   0.175 -0.6242  0.4738  1.2510
18812TIP3   OH277926   6.165   3.164   5.793  0.8754 -0.1597 -0.4064
18812TIP3    H177927   6.201   3.092   5.741 -0.8488 -0.8548 -0.7104
18812TIP3    H277928   6.232   3.233   5.789  2.8169 -1.9019  0.3320
18813TIP3   OH277929   3.447   3.817  10.880 -0.2895 -0.4990 -0.2809
18813TIP3    H177930   3.371   3.846  10.931  0.3257  0.9384 -0.1262
18813TIP3    H277931   3.439   3.864  10.797  0.8549  0.3252  0.0551
18814TIP3   OH277932   2.498   3.553   0.243  0.2911 -0.1730 -0.5127
18814TIP3    H177933   2.556   3.613   0.196  1.1328 -0.3370  0.2948
18814TIP3    H277934   2.528   3.466   0.216 -0.5394 -0.2588 -1.2172
18815TIP3   OH277935   3.318   5.983   6.762 -0.3198  0.2000 -0.1225
18815TIP3    H177936   3.329   6.073   6.791 -0.4079  0.3842 -0.6493
18815TIP3    H277937   3.227   5.977   6.735 -0.1798  0.1084 -0.5960
18816TIP3   OH277938   4.985   3.925  13.516  0.0512 -0.1566  0.0036
18816TIP3    H177939   4.925   3.930  13.590 -0.5007 -0.0360 -0.4497
18816TIP3    H277940   5.067   3.892  13.554 -0.6106 -1.3554  0.4434
18817TIP3   OH277941   0.199   6.171  15.731  0.3591 -0.2574  0.0313
18817TIP3    H177942   0.157   6.245  15.687 -0.5843 -0.2389  0.9158
18817TIP3    H277943   0.250   6.128  15.662  0.7882  1.1039 -0.5359
18818TIP3   OH277944   5.228   1.722  10.728 -0.0767  0.6138 -0.1199
18818TIP3    H177945   5.212   1.817  10.730  1.6932  1.0337 -1.8480
18818TIP3    H277946   5.173   1.690  10.657  0.2103  0.5724 -0.3279
18819TIP3   OH277947   5.633   5.842  14.587  0.4106 -0.1543  0.2282
18819TIP3    H177948   5.624   5.748  14.569  1.5332  0.2885 -3.2122
18819TIP3    H277949   5.542   5.873  14.592  0.0104 -1.0800 -0.8040
18820TIP3   OH277950   6.151   2.853  14.296 -0.2649 -0.0869  0.0296
18820TIP3    H177951   6.124   2.790  14.229 -1.5568 -0.9093  1.2635
18820TIP3    H277952   6.084   2.921  14.294  1.0132  1.1753 -1.1520
18821TIP3   OH277953   5.266   2.141   0.933  0.4815  0.1233 -0.0793
18821TIP3    H177954   5.288   2.193   0.856  0.4043  2.0585  1.1400
18821TIP3    H277955   5.327   2.067   0.931  3.3064  2.2748  0.1304
18822TIP3   OH277956   4.124   5.040  16.776 -0.8137 -0.3611 -0.3266
18822TIP3    H177957   4.069   5.080  16.843  0.8743  0.2983  0.7345
18822TIP3    H277958   4.106   5.091  16.697 -0.7285  0.7431  0.3425
18823TIP3   OH277959   1.073   6.802  11.056  0.4804  0.2855  0.2580
18823TIP3    H177960   1.019   6.881  11.056 -0.0647 -0.0738  1.1364
18823TIP3    H277961   1.134   6.815  11.128 -0.5153 -0.6732  1.3141
18824TIP3   OH277962   4.734   5.928  16.286 -0.2539  0.1418  0.2281
18824TIP3    H177963   4.757   5.932  16.193 -0.3495  0.1997  0.2061
18824TIP3    H277964   4.798   5.869  16.325  0.7296  1.2767  0.4068
18825TIP3   OH277965   0.171   5.644   0.127 -0.3768  0.0232 -0.1471
18825TIP3    H177966   0.136   5.587   0.059 -1.3409 -1.5674  1.5752
18825TIP3    H277967   0.095   5.665   0.182  0.5815  0.1765  1.1692
18826TIP3   OH277968   6.453   4.036  16.768 -0.2051 -0.2026  0.1991
18826TIP3    H177969   6.473   4.127  16.747  2.0506 -0.5871  0.4376
18826TIP3    H277970   6.362   4.025  16.742 -0.9317  2.4340  1.2813
18827TIP3   OH277971   5.253   5.410   1.706  0.4155  0.0854 -0.0156
18827TIP3    H177972   5.317   5.342   1.690 -0.1046 -0.6187  0.7784
18827TIP3    H277973   5.276   5.445   1.792 -0.8065 -0.8529  0.7410
18828TIP3   OH277974   5.149   3.394   3.420 -0.5661  0.2670  0.1555
18828TIP3    H177975   5.098   3.364   3.345 -0.9851  1.1838  0.0539
18828TIP3    H277976   5.092   3.379   3.495 -0.7086  0.6283  0.1234
18829TIP3   OH277977   0.089   6.699   2.844  0.5959  0.2020  0.2649
18829TIP3    H177978   0.129   6.782   2.819 -1.2150  0.7202 -1.1142
18829TIP3    H277979   0.006   6.723   2.884  1.7037 -0.8250  3.5285
18830TIP3   OH277980   5.452   2.993   6.171  0.0066  0.4664 -0.0433
18830TIP3    H177981   5.471   3.049   6.247  0.0590  1.2125 -0.5913
18830TIP3    H277982   5.447   2.905   6.207  2.8408  0.4133  0.4292
18831TIP3   OH277983   3.512   2.420   3.487 -0.1455  0.0894 -0.6720
18831TIP3    H177984   3.422   2.397   3.464 -0.2691  0.3637 -0.4811
18831TIP3    H277985   3.548   2.460   3.407 -0.4976  0.8267 -0.4745
18832TIP3   OH277986   0.837   0.105   3.948  0.2831 -0.6375  0.1642
18832TIP3    H177987   0.797   0.129   3.865 -0.9458 -2.3315  0.2146
18832TIP3    H277988   0.803   0.170   4.010  0.2739 -0.0713 -0.4199
18833TIP3   OH277989   1.132   0.635   4.213  0.0393  0.0051  0.5057
18833TIP3    H177990   1.101   0.721   4.242  0.2063 -0.6854  3.0110
18833TIP3    H277991   1.060   0.599   4.162 -0.0642  1.5612 -0.5226
18834TIP3   OH277992   6.784   3.422   1.300 -0.1750  0.6101 -0.6852
18834TIP3    H177993   6.766   3.337   1.341  0.8728  0.3657 -0.6968
18834TIP3    H277994   6.844   3.465   1.361 -2.4389  2.3166  0.4592
18835TIP3   OH277995   4.482   5.122   6.557 -0.0096  0.2364  0.0460
18835TIP3    H177996   4.566   5.082   6.581 -0.0617 -0.3541 -0.7134
18835TIP3    H277997   4.420   5.049   6.560 -0.2994  0.4627 -0.3856
18836TIP3   OH277998   4.483   5.552   3.256 -0.6748  0.5705  0.2339
18836TIP3    H177999   4.548   5.534   3.324 -1.3745  0.9386  1.0304
18836TIP3    H278000   4.400   5.559   3.304 -0.7708  4.0877 -0.1664
18837TIP3   OH278001   4.678   1.335  12.327 -0.1221  0.1003 -0.4252
18837TIP3    H178002   4.695   1.423  12.293 -0.7473  0.8956  1.1937
18837TIP3    H278003   4.758   1.312  12.375 -0.4129  0.3233  0.1818
18838TIP3   OH278004   5.527   0.643   1.378 -0.0856 -0.4787  0.0665
18838TIP3    H178005   5.557   0.604   1.460  2.8334  0.3919 -0.4546
18838TIP3    H278006   5.505   0.568   1.322 -0.9746 -1.1087  1.2159
18839TIP3   OH278007   4.096   3.570   4.448 -0.4301  0.8849  0.1254
18839TIP3    H178008   4.064   3.597   4.362  0.8888 -0.8476 -0.9821
18839TIP3    H278009   4.181   3.612   4.456  0.4820 -0.7630 -0.4822
18840TIP3   OH278010   3.861   5.859   1.417  0.1162  0.2879  0.1407
18840TIP3    H178011   3.929   5.819   1.361 -0.6662 -0.6824 -0.1539
18840TIP3    H278012   3.905   5.875   1.500  0.3321 -1.8978  0.5296
18841TIP3   OH278013   0.754   0.736   6.319  0.1264 -0.7706 -0.6939
18841TIP3    H178014   0.742   0.738   6.414 -0.6432 -2.1104 -0.7335
18841TIP3    H278015   0.667   0.717   6.284  0.2775  0.3154 -1.7152
18842TIP3   OH278016   4.842   5.535   0.900 -0.5474 -0.1241 -0.2715
18842TIP3    H178017   4.794   5.464   0.857  0.6956 -0.6876 -0.8070
18842TIP3    H278018   4.789   5.558   0.976 -0.1306 -2.9168  0.9914
18843TIP3   OH278019   2.256   5.985  13.774  0.2593  0.3877 -0.7321
18843TIP3    H178020   2.213   6.069  13.787  0.1980  0.4748 -1.4779
18843TIP3    H278021   2.238   5.962  13.683  1.3478  0.1819 -0.9114
18844TIP3   OH278022   2.845   6.655   2.488  0.1756 -0.2811  0.3591
18844TIP3    H178023   2.878   6.597   2.557 -1.6705 -1.1879  0.5322
18844TIP3    H278024   2.900   6.734   2.494  0.8667 -0.8556  2.0167
18845TIP3   OH278025   0.401   0.563   4.915  0.2212 -0.5521  0.7014
18845TIP3    H178026   0.433   0.561   4.825  0.0917 -2.5874  0.6655
18845TIP3    H278027   0.481   0.568   4.968  0.3507 -0.6110  0.5141
18846TIP3   OH278028   2.099   0.020   2.237 -0.1396 -0.0801 -0.1037
18846TIP3    H178029   2.028   0.069   2.280  1.1578  0.1756  1.8520
18846TIP3    H278030   2.055  -0.025   2.164 -2.3185  0.0784  1.0065
18847TIP3   OH278031   1.406   5.093   6.386 -0.5364  0.1512  0.7856
18847TIP3    H178032   1.477   5.114   6.445  0.9378  1.2970 -1.2576
18847TIP3    H278033   1.327   5.119   6.433  0.3547 -0.9874  3.0413
18848TIP3   OH278034   3.673   1.338   5.951  0.2596 -0.6136 -0.4745
18848TIP3    H178035   3.763   1.326   5.919  0.8606  1.3328  0.3404
18848TIP3    H278036   3.681   1.327   6.046 -0.3176 -0.2174 -0.3790
18849TIP3   OH278037   5.379   5.468   6.263  0.2612 -0.3744  0.1294
18849TIP3    H178038   5.469   5.455   6.234  0.6084  0.3316  0.8314
18849TIP3    H278039   5.359   5.390   6.316  0.9914  0.1333  1.1951
18850TIP3   OH278040   0.309   5.443  15.033  0.3870 -0.1350  0.1524
18850TIP3    H178041   0.351   5.523  15.064 -0.7900  0.2356  0.8385
18850TIP3    H278042   0.353   5.423  14.950  0.4095  1.4695 -0.2431
18851TIP3   OH278043   4.735   4.878  15.971 -0.0536 -0.4585 -0.1111
18851TIP3    H178044   4.711   4.851  16.060  0.0784 -1.8754 -0.4820
18851TIP3    H278045   4.764   4.969  15.981 -0.9898 -0.2625  1.1217
18852TIP3   OH278046   4.481   3.660  17.226  0.4375  0.3427 -0.2871
18852TIP3    H178047   4.406   3.677  17.169  1.2743  2.7515 -0.8073
18852TIP3    H278048   4.444   3.618  17.303 -1.2831  0.4405 -1.0205
18853TIP3   OH278049   4.328   4.242   2.964  0.2781 -0.1528 -0.3134
18853TIP3    H178050   4.327   4.331   3.001 -1.1686 -0.4735  0.5496
18853TIP3    H278051   4.244   4.235   2.918  0.6496 -0.8661 -0.8899
18854TIP3   OH278052   1.477   0.022  16.404  0.0472 -0.1750  0.6707
18854TIP3    H178053   1.544   0.084  16.432 -0.1755  0.8867 -1.0011
18854TIP3    H278054   1.434  -0.007  16.485  0.8993  0.9970  1.5602
18855TIP3   OH278055   4.468   5.096   2.154 -0.3316  0.3801  0.0797
18855TIP3    H178056   4.483   5.014   2.107 -0.8968 -0.0617  0.6590
18855TIP3    H278057   4.510   5.163   2.099 -0.1137 -0.2525 -0.5408
18856TIP3   OH278058   5.992   2.958   1.077  0.7887 -0.0536  0.2482
18856TIP3    H178059   5.972   3.036   1.025 -0.1281  0.2274  0.9817
18856TIP3    H278060   6.056   2.910   1.025  0.1375  0.3611 -0.9889
18857TIP3   OH278061   0.705   0.452   2.015 -0.1141  0.2680  0.0934
18857TIP3    H178062   0.672   0.385   2.075  1.1691  1.9604  2.9644
18857TIP3    H278063   0.680   0.535   2.056  1.5704  1.5454 -1.3009
18858TIP3   OH278064   5.778   3.975   1.827  0.7403  0.3615  0.8466
18858TIP3    H178065   5.787   3.883   1.800 -0.0167  0.4283  0.3196
18858TIP3    H278066   5.788   4.025   1.746  0.2900  0.6876  0.9903
18859TIP3   OH278067   4.591   2.606   1.298 -0.6885 -0.1168  0.2206
18859TIP3    H178068   4.660   2.635   1.357 -0.3135  0.1617 -0.3461
18859TIP3    H278069   4.529   2.559   1.354 -0.6197  0.6154  0.9252
18860TIP3   OH278070   4.415   1.379  16.543  0.4674 -0.4375 -0.3330
18860TIP3    H178071   4.324   1.403  16.558  0.5189 -0.3527 -0.1480
18860TIP3    H278072   4.418   1.284  16.556  0.4407 -0.4144 -0.1541
18861TIP3   OH278073   6.740   2.784  11.708  0.1615  0.4213 -0.8593
18861TIP3    H178074   6.777   2.799  11.795 -0.5364  1.0519 -0.6621
18861TIP3    H278075   6.815   2.791  11.649  0.5648  0.4515 -0.3482
18862TIP3   OH278076   3.065   4.184   1.627  0.4518  0.2605 -0.5273
18862TIP3    H178077   3.062   4.161   1.534  1.8398 -0.3636 -0.4312
18862TIP3    H278078   3.005   4.122   1.669  0.3485  0.0951 -0.9145
18863TIP3   OH278079   0.993   4.196  15.823  0.1444  0.3639 -0.2200
18863TIP3    H178080   0.962   4.280  15.789 -0.3180  0.1559 -0.3257
18863TIP3    H278081   0.950   4.188  15.908 -0.3686 -0.0778 -0.5096
18864TIP3   OH278082   3.750   6.781  10.668 -0.4027  0.1693  0.2142
18864TIP3    H178083   3.712   6.769  10.581  0.8474  1.4156 -0.5372
18864TIP3    H278084   3.818   6.714  10.674 -0.4010  0.1690  0.1900
18865TIP3   OH278085   2.030   5.097  13.651 -0.0563 -0.4804  0.0152
18865TIP3    H178086   2.059   5.125  13.738  1.0937 -2.4714  0.3166
18865TIP3    H278087   2.022   5.179  13.601  0.9672  0.5531  1.4692
18866TIP3   OH278088   2.155   6.337   2.170  0.7049  0.6899 -0.0233
18866TIP3    H178089   2.100   6.311   2.096  1.7217  1.3539 -1.0420
18866TIP3    H278090   2.119   6.420   2.199 -0.4605 -0.1517  1.0665
18867TIP3   OH278091   2.938   4.518   2.325  0.0320  0.1528 -0.7357
18867TIP3    H178092   2.878   4.447   2.350  1.2791 -0.5784  0.3200
18867TIP3    H278093   3.015   4.472   2.290  1.2884  0.8978  0.9139
18868TIP3   OH278094   4.671   5.604   4.695 -0.6930  0.3992  0.2808
18868TIP3    H178095   4.619   5.532   4.659  1.0963 -1.9087  1.9560
18868TIP3    H278096   4.615   5.643   4.763 -2.0219  1.2493 -1.2490
18869TIP3   OH278097   2.399   2.311  11.749  0.1908  0.4784  0.1264
18869TIP3    H178098   2.431   2.237  11.697 -1.1741  0.7080 -1.1269
18869TIP3    H278099   2.306   2.319  11.724  0.1380  2.1820  0.7396
18870TIP3   OH278100   2.552   1.282  11.159 -0.5020  0.0103 -0.3384
18870TIP3    H178101   2.520   1.239  11.080  0.5257 -0.3438 -0.5830
18870TIP3    H278102   2.584   1.210  11.214 -0.2141  0.3355 -0.0726
18871TIP3   OH278103   6.304   0.083   5.758 -0.3686 -0.0203 -0.3549
18871TIP3    H178104   6.264   0.076   5.844 -0.6298  0.7261 -0.4057
18871TIP3    H278105   6.398   0.085   5.775 -0.4462  1.3421  0.0244
18872TIP3   OH278106   4.671   1.129   4.966  0.1758  0.2907 -0.5567
18872TIP3    H178107   4.592   1.099   4.920  0.6733 -1.2943 -0.4411
18872TIP3    H278108   4.638   1.166   5.048 -0.4145 -1.7699  0.2184
18873TIP3   OH278109   5.873   2.923   0.035  0.0228 -0.4629  1.1613
18873TIP3    H178110   5.794   2.897   0.083 -1.2572  0.7539 -0.1569
18873TIP3    H278111   5.876   2.864  -0.040 -0.0056 -0.1021  0.8724
18874TIP3   OH278112   1.789   4.425  14.984 -0.3623  0.4881  0.0046
18874TIP3    H178113   1.787   4.498  15.046 -0.7105  1.3199 -0.9539
18874TIP3    H278114   1.700   4.419  14.951 -0.3807 -0.5108  0.2112
18875TIP3   OH278115   5.278   0.009  14.650 -0.7536  0.1463 -0.4934
18875TIP3    H178116   5.279   0.030  14.557  0.9726  1.7399 -0.1659
18875TIP3    H278117   5.187   0.022  14.676 -0.7287  2.5166 -1.3922
18876TIP3   OH278118   2.711   5.693  15.995 -0.0151 -0.1614 -0.3985
18876TIP3    H178119   2.666   5.654  16.070  1.5118 -0.0405  0.6314
18876TIP3    H278120   2.754   5.619  15.951 -0.2200 -0.1244 -0.6613
18877TIP3   OH278121   5.015   1.794   5.733 -0.7753  0.1484  0.8247
18877TIP3    H178122   4.960   1.747   5.671  1.0498 -1.4823  0.3582
18877TIP3    H278123   4.974   1.776   5.818 -0.5672 -1.7157  0.5805
18878TIP3   OH278124   2.814   5.001  13.112 -0.2353  0.4926  0.1090
18878TIP3    H178125   2.881   4.936  13.093 -1.8359 -1.2919  0.1561
18878TIP3    H278126   2.764   5.009  13.030 -1.1539  0.2707  0.6331
18879TIP3   OH278127   2.138   2.541  12.806 -0.0324  0.8125  0.0827
18879TIP3    H178128   2.116   2.562  12.897  0.4317  1.0019  0.1543
18879TIP3    H278129   2.057   2.558  12.757 -0.3741  0.4186  0.4986
18880TIP3   OH278130   5.705   1.683   2.379 -0.0453  0.0204 -0.4536
18880TIP3    H178131   5.764   1.615   2.411 -1.2926 -1.6191 -1.4734
18880TIP3    H278132   5.617   1.649   2.398 -0.7047  1.7440 -0.2555
18881TIP3   OH278133   6.301   0.006   6.496 -0.4242 -0.4992  0.4453
18881TIP3    H178134   6.308   0.100   6.481 -0.9537 -0.5808 -0.3804
18881TIP3    H278135   6.210  -0.007   6.524 -0.4485 -0.7927  0.2424
18882TIP3   OH278136   0.675   2.600  13.982  0.6013  0.1275 -0.1414
18882TIP3    H178137   0.703   2.690  13.997  2.0421 -0.5948  1.8024
18882TIP3    H278138   0.656   2.597  13.888 -0.7619  2.7678 -0.0462
18883TIP3   OH278139   6.698   6.216  15.755 -0.4244  0.1723 -0.7428
18883TIP3    H178140   6.756   6.271  15.808  1.2736  0.5861 -2.8668
18883TIP3    H278141   6.629   6.275  15.726 -0.1335  0.5113 -0.7592
18884TIP3   OH278142   2.799   0.067   0.938  0.0610  0.1452 -0.1489
18884TIP3    H178143   2.890   0.087   0.958 -0.3776  1.5337  0.6338
18884TIP3    H278144   2.778   0.122   0.863 -0.0039 -0.5270 -0.6272
18885TIP3   OH278145   0.033   5.290  13.076 -0.2357 -0.2200 -0.4898
18885TIP3    H178146   0.122   5.278  13.111 -0.6893 -1.2317  0.3807
18885TIP3    H278147   0.008   5.204  13.044 -0.7197  0.1763 -1.1938
18886TIP3   OH278148   5.179   6.604   2.259  0.0619  0.0996 -0.1788
18886TIP3    H178149   5.161   6.527   2.313  1.8184 -1.1423 -1.2880
18886TIP3    H278150   5.093   6.629   2.224 -0.9098  0.1357  2.0435
18887TIP3   OH278151   2.384   5.564  12.774  0.0018 -0.4867  0.0634
18887TIP3    H178152   2.328   5.617  12.831 -1.2113 -0.7590 -0.8296
18887TIP3    H278153   2.323   5.508  12.726  1.1210 -1.4469 -0.2942
18888TIP3   OH278154   2.617   2.353  16.790 -0.9828  0.2790 -0.3625
18888TIP3    H178155   2.574   2.437  16.809  1.1822  1.6592 -1.1809
18888TIP3    H278156   2.640   2.319  16.876 -0.6384  1.2487 -0.0515
18889TIP3   OH278157   5.205   1.881  13.936  0.2977  0.2403  0.3666
18889TIP3    H178158   5.116   1.871  13.903  0.2643 -0.2598  0.5903
18889TIP3    H278159   5.258   1.901  13.859 -0.0068  0.5248  0.2316
18890TIP3   OH278160   5.172   5.721   4.619  0.4498 -0.5076 -0.4535
18890TIP3    H178161   5.197   5.635   4.585  0.4509 -0.7631  0.1687
18890TIP3    H278162   5.094   5.704   4.672  0.5511 -0.1546 -0.1842
18891TIP3   OH278163   5.127   1.014   4.754 -0.6968 -0.4686  0.4471
18891TIP3    H178164   5.124   1.109   4.755  2.1683 -0.3050  0.6949
18891TIP3    H278165   5.117   0.988   4.845  1.3191 -0.2035  0.7763
18892TIP3   OH278166   3.613   4.721   3.727 -0.1322 -0.3079  0.0415
18892TIP3    H178167   3.659   4.640   3.705  1.2152  0.5357 -0.3507
18892TIP3    H278168   3.522   4.704   3.702  0.1526 -1.6412 -0.1624
18893TIP3   OH278169   4.509   2.315   3.521  0.0253 -0.3181  0.2826
18893TIP3    H178170   4.423   2.326   3.563 -0.2872 -0.7504 -0.2335
18893TIP3    H278171   4.521   2.221   3.514 -0.4089 -0.2752 -1.5245
18894TIP3   OH278172   0.915   2.019   2.128 -0.6195  0.6039  0.7536
18894TIP3    H178173   0.917   2.112   2.105  0.1371  1.0726  2.4870
18894TIP3    H278174   0.973   1.977   2.064  1.2909  1.7968  1.5895
18895TIP3   OH278175   3.619   6.091   2.204  0.1813  0.1467 -0.8952
18895TIP3    H178176   3.596   5.998   2.212 -0.8380  0.4917  0.3843
18895TIP3    H278177   3.551   6.128   2.147 -0.5938  0.4962  0.2248
18896TIP3   OH278178   4.211   0.527   3.831 -0.5755 -0.2482  0.1081
18896TIP3    H178179   4.265   0.575   3.894  1.5077 -1.8396 -0.3605
18896TIP3    H278180   4.127   0.573   3.832  0.8318  2.5195  0.6729
18897TIP3   OH278181   3.521   0.253  13.689  0.2898  0.0369 -0.8962
18897TIP3    H178182   3.527   0.334  13.740  1.4267 -0.7327  0.2568
18897TIP3    H278183   3.467   0.195  13.743 -0.8530  0.1314 -1.8982
18898TIP3   OH278184   6.100   3.281   5.223  0.4511 -0.1648  0.1262
18898TIP3    H178185   6.045   3.280   5.302  0.1238 -0.3234 -0.1008
18898TIP3    H278186   6.081   3.198   5.180  1.6216 -0.6915  0.5570
18899TIP3   OH278187   6.575   3.386  13.572 -0.0932  0.1948 -0.4863
18899TIP3    H178188   6.531   3.410  13.653 -0.6920  0.6392 -0.9299
18899TIP3    H278189   6.639   3.320  13.597  0.0062  0.6274  0.4078
18900TIP3   OH278190   1.536   3.699  12.360 -0.2464 -0.2194  0.0200
18900TIP3    H178191   1.457   3.669  12.315 -1.4040  1.2761  0.9810
18900TIP3    H278192   1.566   3.622  12.409 -1.0601 -0.8197 -0.4009
18901TIP3   OH278193   6.526   4.611   2.856  0.0512 -0.0383  0.0772
18901TIP3    H178194   6.488   4.698   2.845 -0.7643 -0.6057 -2.1877
18901TIP3    H278195   6.466   4.566   2.915 -1.0591  0.1022 -0.9059
18902TIP3   OH278196   6.644   6.339  16.403 -0.1955  0.3090  0.1101
18902TIP3    H178197   6.737   6.328  16.382  0.0966  2.1102  0.3144
18902TIP3    H278198   6.642   6.351  16.498 -0.6769  0.0382  0.1407
18903TIP3   OH278199   5.516   6.492  15.961 -0.7095  0.2677  0.3121
18903TIP3    H178200   5.504   6.558  16.029 -0.8581  2.4459 -1.6651
18903TIP3    H278201   5.578   6.430  15.998 -0.0640  1.8720  2.0906
18904TIP3   OH278202   0.408   6.606  14.029 -0.2889 -0.0812 -0.1936
18904TIP3    H178203   0.431   6.697  14.048  0.1289 -0.2931  0.3420
18904TIP3    H278204   0.371   6.573  14.111  1.8955 -1.1238  0.4437
18905TIP3   OH278205   4.664   1.734  16.049 -0.0311  0.5515 -0.5300
18905TIP3    H178206   4.728   1.753  15.981  0.3957  2.9213  0.4366
18905TIP3    H278207   4.710   1.755  16.131 -0.9440 -1.0187  0.4390
18906TIP3   OH278208   2.943   4.329   0.017 -0.4278 -0.0591  0.3116
18906TIP3    H178209   2.986   4.245   0.002  0.2849  0.4077 -0.3611
18906TIP3    H278210   2.860   4.323  -0.030 -0.2659 -0.2886  0.0536
18907TIP3   OH278211   2.986   0.173   5.619 -0.3197  0.0511  0.7823
18907TIP3    H178212   2.977   0.191   5.713 -1.0296  0.4799  0.6396
18907TIP3    H278213   3.080   0.161   5.606 -0.1876  0.2187  1.5053
18908TIP3   OH278214   5.881   4.336  12.640  0.4419 -0.0218  0.5921
18908TIP3    H178215   5.876   4.265  12.576  0.7838 -0.2947  0.8631
18908TIP3    H278216   5.888   4.416  12.587  1.8014 -0.3260  0.2791
18909TIP3   OH278217   4.795   1.618   1.136  0.3061 -0.1014  0.1006
18909TIP3    H178218   4.865   1.583   1.192  0.0749 -0.1804  0.3438
18909TIP3    H278219   4.715   1.591   1.179  0.1201  0.6699  0.2487
18910TIP3   OH278220   1.818   1.037   5.288 -0.4906  0.3266  0.5547
18910TIP3    H178221   1.786   1.009   5.374 -0.0384 -4.0622 -0.4374
18910TIP3    H278222   1.740   1.066   5.241 -1.6366 -1.8568  0.9809
18911TIP3   OH278223   3.348   0.804   4.138  0.1047 -0.5682 -0.1734
18911TIP3    H178224   3.266   0.843   4.106 -0.0223 -0.3576  0.4004
18911TIP3    H278225   3.341   0.711   4.114 -0.4219 -0.6040  0.1041
18912TIP3   OH278226   5.516   1.984   2.780  0.1598  0.3316 -0.1844
18912TIP3    H178227   5.455   2.035   2.833 -0.4880 -0.2644 -0.3496
18912TIP3    H278228   5.513   2.025   2.694  2.6626  2.5473  0.6307
18913TIP3   OH278229   2.640   6.731  13.319  0.2505  0.1059 -0.3875
18913TIP3    H178230   2.703   6.753  13.250  0.2793  0.4763 -0.2447
18913TIP3    H278231   2.694   6.702  13.392  0.2844  0.8904 -0.0955
18914TIP3   OH278232   5.377   3.156   4.123  0.1931  0.3769  0.2486
18914TIP3    H178233   5.466   3.169   4.154  1.0929  0.3762 -2.1297
18914TIP3    H278234   5.359   3.063   4.138  1.6626 -0.2795 -1.6803
18915TIP3   OH278235   4.621   3.371  17.078  0.3657  0.1709  0.0082
18915TIP3    H178236   4.647   3.303  17.140 -1.1347 -0.7935 -0.3820
18915TIP3    H278237   4.682   3.363  17.005  0.4890 -0.4457  0.1793
18916TIP3   OH278238   4.663   5.312  12.014 -0.0355  0.5441 -0.5762
18916TIP3    H178239   4.598   5.379  11.990  0.6938  0.4070 -3.1729
18916TIP3    H278240   4.624   5.229  11.986  0.9637  0.4011 -1.6265
18917TIP3   OH278241   3.543   0.144   2.654 -0.2842 -0.3195 -0.0595
18917TIP3    H178242   3.454   0.151   2.687  0.4338  2.5250  1.6043
18917TIP3    H278243   3.536   0.160   2.560 -1.4170  1.3433  0.2785
18918TIP3   OH278244   6.211   0.393  13.793  0.7332  0.5877 -0.0125
18918TIP3    H178245   6.297   0.430  13.773  1.5491 -0.0400  2.0593
18918TIP3    H278246   6.182   0.440  13.870  0.7515 -1.4059  1.2984
18919TIP3   OH278247   3.955   1.982   2.691 -0.0591 -0.3148 -0.2542
18919TIP3    H178248   3.870   2.020   2.713 -0.5606 -0.3714 -2.0128
18919TIP3    H278249   3.976   1.927   2.767 -0.6549  1.1805  1.0707
18920TIP3   OH278250   3.649   6.087   0.954  0.2000 -0.0686  0.8487
18920TIP3    H178251   3.607   6.173   0.957 -0.9137 -0.5817  0.2609
18920TIP3    H278252   3.623   6.045   1.036 -3.9672 -1.9422 -1.1163
18921TIP3   OH278253   3.669   2.686  14.690  0.4895 -0.0281 -0.5049
18921TIP3    H178254   3.684   2.780  14.677 -0.0998 -0.2216 -2.9968
18921TIP3    H278255   3.593   2.682  14.748 -1.9792  1.1862 -3.3893
18922TIP3   OH278256   1.716   1.846   5.424 -0.4797 -0.1530 -0.3213
18922TIP3    H178257   1.720   1.837   5.519  1.7864  1.4826 -0.1833
18922TIP3    H278258   1.768   1.772   5.391 -2.2829 -1.4362 -0.3969
18923TIP3   OH278259   3.980   5.048  14.622 -0.2796 -0.1883 -0.2290
18923TIP3    H178260   3.959   5.141  14.629 -1.9606 -0.4815 -0.8757
18923TIP3    H278261   3.906   5.003  14.662  0.7245 -1.2603  0.4894
18924TIP3   OH278262   3.715   2.027  11.158 -0.1664  0.6859  0.2132
18924TIP3    H178263   3.806   2.018  11.185 -0.5822 -0.3104  1.4028
18924TIP3    H278264   3.706   2.120  11.136  0.7929  1.1036  1.4242
18925TIP3   OH278265   5.934   4.717  16.250 -0.1489  0.1102 -0.5021
18925TIP3    H178266   5.860   4.663  16.279  0.3060 -0.0437  0.4269
18925TIP3    H278267   5.964   4.676  16.169 -1.2498  0.3435 -1.0424
18926TIP3   OH278268   5.332   4.136  12.715  0.2069  0.5088  0.4049
18926TIP3    H178269   5.386   4.184  12.651 -1.1929 -0.4338 -1.5988
18926TIP3    H278270   5.256   4.191  12.728 -1.7790 -1.2591 -2.4883
18927TIP3   OH278271   3.968   0.493  14.368 -0.2753 -0.1976 -0.2537
18927TIP3    H178272   3.931   0.450  14.445  1.3871  0.2184  0.8281
18927TIP3    H278273   4.011   0.422  14.320 -2.3191 -0.6798 -1.5055
18928TIP3   OH278274   3.754   1.720   3.339  0.2710  0.5614  0.1010
18928TIP3    H178275   3.835   1.738   3.291  0.9273  1.8975  1.6395
18928TIP3    H278276   3.776   1.649   3.399 -0.1070  0.0079 -0.3891
18929TIP3   OH278277   5.843   4.355  14.924 -0.2850  0.2124  0.8906
18929TIP3    H178278   5.759   4.363  14.969 -0.2726  0.3551  0.8902
18929TIP3    H278279   5.842   4.425  14.858 -1.0164 -1.0722 -0.5027
18930TIP3   OH278280   2.052   0.325  13.139 -0.1991  0.2156  0.1149
18930TIP3    H178281   2.056   0.308  13.233 -1.3841 -0.1002  0.1293
18930TIP3    H278282   2.078   0.417  13.130 -1.0032  0.5348  0.8701
18931TIP3   OH278283   0.179   6.217  14.036  0.0009  0.1724 -0.1043
18931TIP3    H178284   0.206   6.204  13.945  0.2358 -2.8347  0.2714
18931TIP3    H278285   0.261   6.219  14.085 -0.1298  1.7173  0.0778
18932TIP3   OH278286   6.359   1.552   0.865  0.0436  0.3362 -0.3671
18932TIP3    H178287   6.420   1.526   0.796 -0.7356  0.1357 -0.9931
18932TIP3    H278288   6.323   1.469   0.897  0.7926  0.3887  0.6668
18933TIP3   OH278289   2.538   3.271  12.466  0.4040  0.4366 -0.3326
18933TIP3    H178290   2.450   3.290  12.434  0.3472  0.8583  0.0624
18933TIP3    H278291   2.593   3.340  12.427 -0.0502  2.5071  2.3487
18934TIP3   OH278292   4.721   0.161   0.408  0.6566 -0.0624  0.0693
18934TIP3    H178293   4.692   0.211   0.484  0.1031 -0.4768  0.1305
18934TIP3    H278294   4.659   0.185   0.339  1.1789  0.3427 -0.2690
18935TIP3   OH278295   5.679   4.926   3.857  0.8248  0.0884  0.3851
18935TIP3    H178296   5.611   4.929   3.790  0.6160 -1.3448  0.5119
18935TIP3    H278297   5.755   4.887   3.814  0.4842 -1.4579  1.1220
18936TIP3   OH278298   5.094   3.226  14.917 -0.5249  0.1155  0.1912
18936TIP3    H178299   5.080   3.171  14.995 -1.0398 -1.4561 -0.9565
18936TIP3    H278300   5.019   3.207  14.861 -0.3505  1.5111 -0.5610
18937TIP3   OH278301   1.963   3.622   2.243  0.7105  0.1982 -0.5013
18937TIP3    H178302   1.945   3.533   2.274 -0.1244  0.5779  0.1326
18937TIP3    H278303   1.979   3.612   2.150  3.2819 -0.9772 -0.0220
18938TIP3   OH278304   0.088   4.014  16.151 -0.6671 -0.7342  0.3178
18938TIP3    H178305   0.058   3.986  16.064  1.2607  0.6101 -0.8473
18938TIP3    H278306   0.021   4.075  16.181 -0.7903 -0.3195 -0.7535
18939TIP3   OH278307   2.541   6.382   6.376  0.3092  0.2074 -0.1287
18939TIP3    H178308   2.627   6.421   6.356  0.8945  0.4923  2.5974
18939TIP3    H278309   2.561   6.307   6.433 -1.1978 -0.5014 -0.4736
18940TIP3   OH278310   6.296   1.324  13.945  0.4286 -0.3329  0.4085
18940TIP3    H178311   6.332   1.267  14.013  0.7707 -0.8645 -0.2084
18940TIP3    H278312   6.369   1.338  13.885 -0.2904 -1.1525 -0.6895
18941TIP3   OH278313   6.470   3.447  11.400  0.3326  0.1845  0.3532
18941TIP3    H178314   6.381   3.426  11.428 -1.0164  1.1516 -2.7622
18941TIP3    H278315   6.508   3.363  11.374 -0.7395  0.0549 -0.9099
18942TIP3   OH278316   2.814   6.366   3.602  0.5354 -0.4865 -0.0406
18942TIP3    H178317   2.730   6.335   3.636  1.3720 -2.0950  0.6804
18942TIP3    H278318   2.800   6.458   3.582 -0.4666  0.1774  3.2399
18943TIP3   OH278319   0.541   0.068   2.804  0.0362  0.8121 -0.1013
18943TIP3    H178320   0.636   0.056   2.803 -0.1490 -0.9484  0.5819
18943TIP3    H278321   0.508  -0.002   2.860 -1.7785  0.5408 -1.4033
18944TIP3   OH278322   5.560   0.820   4.750  0.0638 -0.5821  0.0492
18944TIP3    H178323   5.577   0.777   4.667  0.7557  1.9173 -1.2123
18944TIP3    H278324   5.558   0.749   4.814 -1.7369 -2.7480 -2.2019
18945TIP3   OH278325   5.962   1.660  13.002 -0.7239  0.0839 -0.2210
18945TIP3    H178326   6.035   1.598  13.010 -0.9478 -0.3136 -1.1328
18945TIP3    H278327   5.902   1.619  12.939 -2.1522  0.0021  1.1301
18946TIP3   OH278328   4.941   0.175  10.657  0.2250  0.2265  0.1995
18946TIP3    H178329   5.015   0.208  10.708 -0.1262  0.4205  0.6008
18946TIP3    H278330   4.976   0.161  10.570  0.7462  0.2712  0.3959
18947TIP3   OH278331   3.442   3.493   0.058  0.4247  0.0718 -0.0932
18947TIP3    H178332   3.363   3.461   0.014  0.8008  0.2107 -0.8997
18947TIP3    H278333   3.501   3.417   0.058  0.8420  0.3856 -0.8530
18948TIP3   OH278334   1.241   6.107  12.822 -0.3033  0.3766  0.2926
18948TIP3    H178335   1.298   6.031  12.828 -0.0345  0.5993  0.5837
18948TIP3    H278336   1.152   6.071  12.813 -0.4397  0.0126  2.6489
18949TIP3   OH278337   2.530   2.224  15.315 -0.8021  0.3717 -0.8808
18949TIP3    H178338   2.595   2.161  15.285 -1.5778 -1.1531  0.4941
18949TIP3    H278339   2.533   2.219  15.411 -0.9083  2.4440 -0.7158
18950TIP3   OH278340   2.582   0.349  16.482 -0.7524  0.4988 -0.0552
18950TIP3    H178341   2.610   0.392  16.402 -2.6511 -0.1076 -1.1185
18950TIP3    H278342   2.525   0.412  16.525 -2.5816 -0.3912 -1.0246
18951TIP3   OH278343   0.577   0.197  15.945 -0.0926  0.1256  0.1388
18951TIP3    H178344   0.620   0.164  16.024  0.3627  0.7283  0.1533
18951TIP3    H278345   0.485   0.175  15.957 -0.0618  0.3782  0.9329
18952TIP3   OH278346   4.618   6.432   1.662 -0.2090 -0.6472  0.1347
18952TIP3    H178347   4.705   6.455   1.629 -0.5806  0.0129 -0.4353
18952TIP3    H278348   4.566   6.417   1.582 -0.8011 -0.3102  0.4525
18953TIP3   OH278349   6.232   0.369  13.515 -0.1762 -0.3913  0.3670
18953TIP3    H178350   6.248   0.342  13.606  2.6864  0.4303  0.2208
18953TIP3    H278351   6.185   0.452  13.523  1.2884  0.4125  1.2272
18954TIP3   OH278352   0.051   2.864   4.585  0.2570 -0.7360 -0.0155
18954TIP3    H178353   0.047   2.914   4.666 -2.6248 -1.3892  0.3545
18954TIP3    H278354   0.104   2.917   4.525  0.1370  1.0651  1.4182
18955TIP3   OH278355   4.398   6.727   4.685 -0.2940 -0.2516 -0.0311
18955TIP3    H178356   4.363   6.811   4.714  0.5893  0.1161  0.0206
18955TIP3    H278357   4.385   6.726   4.591 -1.1170 -0.4554  0.0774
18956TIP3   OH278358   0.267   5.145  13.141  0.2648  0.0537 -0.1911
18956TIP3    H178359   0.287   5.131  13.048  0.0527 -1.8802  0.0020
18956TIP3    H278360   0.346   5.182  13.178  0.5920  0.1995 -1.0214
18957TIP3   OH278361   6.054   1.659   5.429  0.3327 -0.1296  0.0498
18957TIP3    H178362   6.132   1.604   5.433 -0.0888 -0.6815  1.3016
18957TIP3    H278363   5.987   1.610   5.478 -0.1035  1.3843  1.0481
18958TIP3   OH278364   2.913   5.689  15.136 -0.0416 -0.1291  0.0102
18958TIP3    H178365   2.964   5.608  15.138 -1.6134 -1.1403  0.2387
18958TIP3    H278366   2.937   5.730  15.052  0.1232 -1.2687 -0.5152
18959TIP3   OH278367   3.110   3.722  11.603  0.3816 -0.1331 -0.1429
18959TIP3    H178368   3.184   3.673  11.568  1.6504  0.9248  0.9699
18959TIP3    H278369   3.137   3.747  11.691 -0.7107  1.5445 -0.2479
18960TIP3   OH278370   6.604   5.259  14.538 -0.5094 -0.4430 -0.0253
18960TIP3    H178371   6.687   5.211  14.534 -1.4742 -2.2079  0.0738
18960TIP3    H278372   6.608   5.320  14.465  0.8768 -0.4771 -0.0069
18961TIP3   OH278373   6.132   1.542   4.894  0.2288  0.0690  0.2381
18961TIP3    H178374   6.222   1.565   4.917  0.2966 -0.7117  0.7893
18961TIP3    H278375   6.141   1.469   4.832 -0.0362 -1.3608  1.8264
18962TIP3   OH278376   0.481   0.780  14.684 -0.3774 -0.0905 -0.5080
18962TIP3    H178377   0.477   0.755  14.591 -2.5922 -4.1410  0.4550
18962TIP3    H278378   0.538   0.714  14.724 -0.7289  0.6493  1.2875
18963TIP3   OH278379   0.755   5.451  15.866 -0.8336  0.0627 -0.3595
18963TIP3    H178380   0.813   5.475  15.794  1.4999 -1.1449  1.0049
18963TIP3    H278381   0.690   5.394  15.826  1.8241 -2.6277 -1.2381
18964TIP3   OH278382   1.114   4.327  12.266 -0.2231 -0.6902  0.4916
18964TIP3    H178383   1.169   4.335  12.188 -1.2554 -0.3034 -0.2217
18964TIP3    H278384   1.025   4.320  12.232 -1.0242  2.2816  1.6297
18965TIP3   OH278385   4.481   0.116  11.404 -0.9901  0.1887 -0.1348
18965TIP3    H178386   4.493   0.069  11.322  1.6691 -1.8514  1.2897
18965TIP3    H278387   4.444   0.201  11.378 -1.6407 -0.9347 -3.2379
18966TIP3   OH278388   1.058   1.401   0.570 -0.2239  0.5350  0.4817
18966TIP3    H178389   1.121   1.462   0.532 -1.3469  2.0690  1.0075
18966TIP3    H278390   1.056   1.424   0.663 -0.9919 -0.0119  0.6060
18967TIP3   OH278391   5.952   4.964  17.167 -0.0672  0.5330  0.1457
18967TIP3    H178392   6.027   4.938  17.220 -0.2581 -0.0377  0.1377
18967TIP3    H278393   5.882   4.904  17.192 -0.1047  0.1153 -0.8936
18968TIP3   OH278394   2.153   2.562  16.219 -0.1442 -0.2298  0.4810
18968TIP3    H178395   2.182   2.570  16.128  0.0949 -1.4786  0.4318
18968TIP3    H278396   2.149   2.652  16.251 -0.2633  0.2287 -0.7717
18969TIP3   OH278397   5.726   1.480  15.788  0.1152  0.0226  0.1376
18969TIP3    H178398   5.691   1.462  15.876  1.1598  2.2377  1.0859
18969TIP3    H278399   5.773   1.400  15.765  0.1837 -0.4702  1.8111
18970TIP3   OH278400   4.653   1.056   3.671  0.0742 -0.4131  0.2386
18970TIP3    H178401   4.633   1.013   3.588 -0.4943  0.3178 -0.0133
18970TIP3    H278402   4.734   1.104   3.655 -0.8363  1.0019 -0.4049
18971TIP3   OH278403   5.049   2.008   2.311  0.4362  0.5590  0.0228
18971TIP3    H178404   5.004   1.924   2.297  1.9915 -0.1767 -0.8095
18971TIP3    H278405   5.126   2.003   2.255  1.1561  2.0933  0.8344
18972TIP3   OH278406   4.240   0.800  14.423  0.2611  0.1413 -0.1719
18972TIP3    H178407   4.230   0.769  14.513 -1.1947  0.3170 -0.2588
18972TIP3    H278408   4.255   0.720  14.372 -0.8440 -0.1799 -0.0249
18973TIP3   OH278409   5.980   5.006   1.401 -0.3869 -0.1457  0.3242
18973TIP3    H178410   5.965   4.978   1.491 -1.7003 -2.3474 -0.4633
18973TIP3    H278411   6.067   4.972   1.379  0.1499  0.8406  0.8999
18974TIP3   OH278412   3.538   3.311  13.568  0.4330  0.4556  0.4459
18974TIP3    H178413   3.564   3.403  13.570 -0.9437  0.8822 -0.0302
18974TIP3    H278414   3.452   3.309  13.609 -0.3848 -0.3022 -1.2001
18975TIP3   OH278415   6.215   1.294  10.591  0.2427  0.2534 -0.0447
18975TIP3    H178416   6.143   1.335  10.545 -2.5396 -2.3641  1.6247
18975TIP3    H278417   6.262   1.244  10.524 -1.8916 -1.0649 -0.6467
18976TIP3   OH278418   1.391   1.766   5.373 -0.0474 -0.3058  0.3282
18976TIP3    H178419   1.376   1.847   5.422  0.9656  0.5381 -0.7181
18976TIP3    H278420   1.397   1.699   5.441  1.4440  0.8461  1.4222
18977TIP3   OH278421   3.710   4.216   1.035 -0.4386  1.0772 -0.3336
18977TIP3    H178422   3.717   4.123   1.016  0.1737  1.0291  0.0863
18977TIP3    H278423   3.669   4.254   0.957 -1.2133  0.3824 -0.2745
18978TIP3   OH278424   2.923   6.152  15.916 -0.1336 -0.0167  0.8209
18978TIP3    H178425   2.887   6.124  15.831 -0.9780 -0.1194  1.2048
18978TIP3    H278426   2.880   6.234  15.935 -0.8011 -0.5510  1.6835
18979TIP3   OH278427   0.862   4.743   2.798 -0.1888 -0.8607 -0.4006
18979TIP3    H178428   0.846   4.752   2.705 -1.0144  0.9114 -0.1220
18979TIP3    H278429   0.924   4.813   2.819 -0.7063 -0.6672  0.5341
18980TIP3   OH278430   4.609   4.266   3.163 -0.0678 -0.0976  0.1914
18980TIP3    H178431   4.609   4.181   3.119 -0.9675 -0.7856  1.4723
18980TIP3    H278432   4.518   4.279   3.190  0.1850  0.9891  0.5854
18981TIP3   OH278433   5.482   4.038  11.852 -0.2573 -0.1268 -0.0736
18981TIP3    H178434   5.432   4.119  11.840  0.0894 -0.0520 -1.1059
18981TIP3    H278435   5.455   3.983  11.778 -0.6964 -1.0631  0.7697
18982TIP3   OH278436   3.505   0.195  15.122  0.3026 -0.9282  0.9624
18982TIP3    H178437   3.412   0.205  15.104  0.6297 -0.1373 -0.4581
18982TIP3    H278438   3.549   0.246  15.054  1.7815 -1.2639  1.6035
18983TIP3   OH278439   6.114   5.106  13.941 -0.0474  0.0702 -0.0998
18983TIP3    H178440   6.201   5.093  13.903  0.4974  0.6203  0.9150
18983TIP3    H278441   6.119   5.193  13.982 -1.5682  0.7901 -1.3358
18984TIP3   OH278442   5.196   4.137  13.760  0.0334  0.4454  0.1151
18984TIP3    H178443   5.131   4.207  13.759  1.1398  1.4946 -0.8637
18984TIP3    H278444   5.190   4.100  13.848 -1.3434  1.0154  0.2913
18985TIP3   OH278445   3.989   1.786   3.910 -0.2249 -0.3072  0.1108
18985TIP3    H178446   4.034   1.744   3.837  0.9067  0.8291  0.1089
18985TIP3    H278447   4.051   1.780   3.983  0.5885  2.4364 -0.2308
18986TIP3   OH278448   6.369   4.038  10.791 -0.2994 -0.0021 -0.3033
18986TIP3    H178449   6.386   3.953  10.831 -2.7571 -0.1982  0.4826
18986TIP3    H278450   6.455   4.068  10.761  0.9197 -1.9065  1.0647
18987TIP3   OH278451   6.574   6.759   5.572 -0.1470  0.6390 -0.3439
18987TIP3    H178452   6.514   6.762   5.497 -1.3005  0.2246  0.5365
18987TIP3    H278453   6.594   6.666   5.582 -0.3682  0.6433  0.1414
18988TIP3   OH278454   3.257   5.306  13.457 -0.0777 -0.6130 -0.0879
18988TIP3    H178455   3.233   5.397  13.445  0.2390 -0.3954  0.8677
18988TIP3    H278456   3.300   5.282  13.375  2.3431  0.9144  0.6534
18989TIP3   OH278457   3.490   5.440   3.676  0.0598 -0.3757  0.3117
18989TIP3    H178458   3.463   5.426   3.767 -0.6394 -2.6555 -0.1846
18989TIP3    H278459   3.576   5.397   3.669  1.5700  2.3526  0.5615
18990TIP3   OH278460   0.835   2.266  15.490 -0.4644 -0.1520 -0.1168
18990TIP3    H178461   0.851   2.259  15.584 -0.6338  0.5241 -0.0336
18990TIP3    H278462   0.912   2.313  15.456 -0.0343 -1.0599 -0.4395
18991TIP3   OH278463   2.227   4.659  17.131 -0.5012 -0.6371 -0.5015
18991TIP3    H178464   2.231   4.570  17.166  3.0826 -0.6817 -0.6281
18991TIP3    H278465   2.168   4.705  17.189 -0.7875 -2.5942  0.8588
18992TIP3   OH278466   4.293   4.385  14.129 -0.1490 -0.0680  0.4194
18992TIP3    H178467   4.212   4.340  14.104 -0.1932 -0.5902  1.4793
18992TIP3    H278468   4.264   4.458  14.183  0.1505 -1.0466  1.9420
18993TIP3   OH278469   4.659   4.178  15.284  0.3297 -0.7519 -0.3582
18993TIP3    H178470   4.651   4.273  15.271  1.6951 -0.5366  0.1771
18993TIP3    H278471   4.583   4.141  15.240 -0.3955  0.6198 -0.3036
18994TIP3   OH278472   4.148   6.028  12.276 -0.0527 -0.0792 -0.5608
18994TIP3    H178473   4.100   6.082  12.214 -0.7222  1.1204  0.9254
18994TIP3    H278474   4.228   6.076  12.294 -0.4262  0.2057  0.4030
18995TIP3   OH278475   6.139   0.639   1.684 -0.2558  0.3622  0.2392
18995TIP3    H178476   6.160   0.704   1.617 -2.8688 -1.0165 -2.1204
18995TIP3    H278477   6.193   0.563   1.662  0.1988  0.5012  0.8395
18996TIP3   OH278478   3.280   5.126   1.295 -0.0107 -0.0879  0.1901
18996TIP3    H178479   3.316   5.141   1.383  0.3012  1.7323 -0.2120
18996TIP3    H278480   3.205   5.185   1.290 -0.1240 -0.2996 -0.7091
18997TIP3   OH278481   1.667   2.915   0.654  0.3665  0.5442  0.0781
18997TIP3    H178482   1.618   2.971   0.713 -0.8543 -0.5337  0.1427
18997TIP3    H278483   1.600   2.860   0.612  1.2211  1.0014 -2.0144
18998TIP3   OH278484   0.303   1.908   4.936 -0.0604  0.2695  0.0701
18998TIP3    H178485   0.300   1.846   4.863 -1.9119 -1.2892  1.3725
18998TIP3    H278486   0.234   1.971   4.916  0.5216  0.8004 -0.2966
18999TIP3   OH278487   1.610   6.776  13.327  0.3331  0.4480  0.3205
18999TIP3    H178488   1.659   6.851  13.293  1.4391 -0.6969 -0.6987
18999TIP3    H278489   1.661   6.746  13.402 -1.2747  1.9999  2.1534
19000TIP3   OH278490   4.999   4.223   2.329 -0.3300 -0.4315  0.6945
19000TIP3    H178491   5.016   4.144   2.379  0.0052 -1.4567 -0.9857
19000TIP3    H278492   5.053   4.215   2.251 -0.6232  1.2604  0.2640
19001TIP3   OH278493   2.250   0.160  16.305 -0.4022 -0.2469  0.0420
19001TIP3    H178494   2.192   0.085  16.323 -0.2799 -0.2440  0.4570
19001TIP3    H278495   2.334   0.135  16.343 -1.0678  1.2497  2.7796
19002TIP3   OH278496   3.031   2.012   5.172  0.8191 -0.0767 -0.4401
19002TIP3    H178497   3.060   2.101   5.151  0.5093 -0.2837 -1.9245
19002TIP3    H278498   3.097   1.978   5.232  1.5812  0.7511 -0.7855
19003TIP3   OH278499   3.388   0.095  11.099  0.0421 -0.0078 -0.3399
19003TIP3    H178500   3.456   0.073  11.035 -0.2687  0.3006 -0.7897
19003TIP3    H278501   3.336   0.015  11.106 -0.1360  0.0646 -0.7569
19004TIP3   OH278502   4.329   5.668   5.360  0.1435  0.3358 -0.1828
19004TIP3    H178503   4.305   5.628   5.444 -2.0785  1.4433 -0.2158
19004TIP3    H278504   4.270   5.627   5.297  1.1267  0.2403 -1.0704
19005TIP3   OH278505   5.784   5.245   6.864 -0.3691  0.2249  0.0600
19005TIP3    H178506   5.798   5.338   6.846 -1.7961  0.7563  1.3944
19005TIP3    H278507   5.861   5.217   6.913 -0.2900  0.9334  0.3494
19006TIP3   OH278508   2.846   2.477   1.697 -0.3197 -0.4908 -0.1049
19006TIP3    H178509   2.876   2.411   1.759 -1.2777 -0.9970 -0.1602
19006TIP3    H278510   2.822   2.552   1.752 -0.8594 -0.8190  0.1111
19007TIP3   OH278511   0.253   0.553   4.184 -0.0561 -0.0460  0.3771
19007TIP3    H178512   0.345   0.581   4.182  0.4805 -1.6339 -1.5841
19007TIP3    H278513   0.237   0.518   4.096 -1.9802 -1.5206  1.2257
19008TIP3   OH278514   2.581   2.816   5.089  0.1082 -0.0530  0.2539
19008TIP3    H178515   2.570   2.888   5.027  2.3342  1.0095  0.9684
19008TIP3    H278516   2.593   2.739   5.034 -1.2253  0.2766 -0.5490
19009TIP3   OH278517   4.608   6.402  11.401  0.5596 -0.1275  0.3831
19009TIP3    H178518   4.577   6.489  11.375  1.9266  0.3015  0.0663
19009TIP3    H278519   4.553   6.377  11.475 -1.0524  0.2084 -0.6544
19010TIP3   OH278520   4.584   6.805  14.228 -0.0996 -0.3173 -0.5431
19010TIP3    H178521   4.519   6.794  14.297  1.7699 -1.4968  1.1171
19010TIP3    H278522   4.627   6.888  14.247 -0.1128 -0.2530 -0.7806
19011TIP3   OH278523   6.712   6.766  10.469  0.3487  0.2551 -0.5735
19011TIP3    H178524   6.662   6.688  10.443  1.0291 -0.7173  0.9026
19011TIP3    H278525   6.653   6.839  10.452 -1.4855 -0.8264  0.8116
19012TIP3   OH278526   6.762   2.137   1.242 -0.4987 -0.1413 -0.1304
19012TIP3    H178527   6.689   2.193   1.270 -1.4728 -0.7566 -1.3514
19012TIP3    H278528   6.827   2.198   1.207 -0.5218  0.3865  0.7081
19013TIP3   OH278529   1.707   0.694   5.227  0.4962 -0.4955  0.6729
19013TIP3    H178530   1.647   0.676   5.155  2.2115 -2.0067 -0.4834
19013TIP3    H278531   1.651   0.705   5.304 -1.6602  3.8451 -1.1880
19014TIP3   OH278532   4.277   1.102   1.682  0.4867  0.5176  0.1444
19014TIP3    H178533   4.234   1.120   1.765 -1.4206  0.7264 -0.8376
19014TIP3    H278534   4.369   1.125   1.697  0.6015 -1.2218  2.7211
19015TIP3   OH278535   1.323   1.171   3.798  0.2805  0.7749 -0.7058
19015TIP3    H178536   1.283   1.086   3.812 -0.6462  1.3395  0.1836
19015TIP3    H278537   1.417   1.154   3.802  0.1456 -0.4019 -1.8686
19016TIP3   OH278538   3.745   1.099   0.266 -0.5266 -0.0478  0.1121
19016TIP3    H178539   3.821   1.042   0.253 -1.2932 -1.8265  2.6339
19016TIP3    H278540   3.781   1.185   0.286  0.8259 -0.7280  0.6835
19017TIP3   OH278541   5.177   3.305  13.691  0.6237  0.0217 -0.4409
19017TIP3    H178542   5.187   3.257  13.772 -0.9778 -0.2322 -0.3710
19017TIP3    H278543   5.160   3.238  13.624  1.0501  0.2936 -0.8326
19018TIP3   OH278544   6.386   4.604  13.081 -0.3269  0.5688  0.3089
19018TIP3    H178545   6.307   4.580  13.033  0.4001 -1.8673  0.2106
19018TIP3    H278546   6.354   4.636  13.166 -1.4495  1.4721 -0.4244
19019TIP3   OH278547   6.359   1.137   6.621  0.2798  0.9927 -0.1605
19019TIP3    H178548   6.359   1.099   6.533 -0.3260  0.8937 -0.1183
19019TIP3    H278549   6.326   1.068   6.678 -1.8838  1.8861 -0.2298
19020TIP3   OH278550   1.792   6.637  15.861 -0.2554 -0.6699 -0.0403
19020TIP3    H178551   1.855   6.706  15.840 -1.6487  0.0922 -2.0338
19020TIP3    H278552   1.706   6.678  15.847 -1.1765 -2.1591  0.9659
19021TIP3   OH278553   2.123   0.906   0.900 -0.1395 -0.8832  0.2546
19021TIP3    H178554   2.144   0.816   0.877  1.2015 -0.1682 -1.5319
19021TIP3    H278555   2.055   0.898   0.967 -0.4613 -3.1924 -0.2594
19022TIP3   OH278556   0.175   0.240   3.733  0.5412  0.4817  0.0413
19022TIP3    H178557   0.220   0.276   3.810 -0.3487  0.1190  0.7539
19022TIP3    H278558   0.101   0.299   3.719  1.1464  1.0060 -1.0451
19023TIP3   OH278559   4.957   0.397  12.286 -0.4947  0.8115 -1.1289
19023TIP3    H178560   4.937   0.304  12.289  1.7422  0.2211 -2.5955
19023TIP3    H278561   5.023   0.410  12.355 -2.2012  1.7755  0.4267
19024TIP3   OH278562   5.555   3.170   3.648  0.1396 -0.5229 -0.1858
19024TIP3    H178563   5.576   3.092   3.699  1.7854  1.1718  1.9181
19024TIP3    H278564   5.467   3.195   3.677  1.1209  0.5248  2.1335
19025TIP3   OH278565   6.269   3.399   5.860  0.4269 -0.4385  0.1707
19025TIP3    H178566   6.201   3.463   5.837  0.9952 -0.2686 -1.0961
19025TIP3    H278567   6.285   3.415   5.953 -0.4415  0.3096  0.2137
19026TIP3   OH278568   2.293   0.429   0.149  0.3102 -0.3084 -0.5630
19026TIP3    H178569   2.237   0.373   0.203  0.1976 -1.8815 -2.2086
19026TIP3    H278570   2.236   0.499   0.118  0.1194 -0.0021  0.4260
19027TIP3   OH278571   4.071   4.484  14.362  0.7858  0.0895 -0.0545
19027TIP3    H178572   4.042   4.492  14.271 -0.0431 -2.3320 -0.0885
19027TIP3    H278573   4.068   4.573  14.397  0.6249  1.0045 -2.2299
19028TIP3   OH278574   3.456   6.276  16.734 -0.0694 -0.3189  0.5019
19028TIP3    H178575   3.529   6.326  16.698  0.2052 -0.9700  0.1394
19028TIP3    H278576   3.422   6.331  16.805 -0.0240  0.5542 -0.1392
19029TIP3   OH278577   2.637   3.382  12.700  0.0256 -0.2090  0.2381
19029TIP3    H178578   2.593   3.326  12.636 -0.4448  0.1675  0.2234
19029TIP3    H278579   2.700   3.325  12.744 -0.3438 -0.7044  0.1228
19030TIP3   OH278580   2.497   2.108   3.245  0.7011  0.1218  0.0452
19030TIP3    H178581   2.516   2.158   3.165  1.4009  2.1808  1.4100
19030TIP3    H278582   2.580   2.109   3.293  0.4020 -1.4382  0.6438
19031TIP3   OH278583   0.831   0.628  16.274 -0.4766  0.2799  0.8455
19031TIP3    H178584   0.749   0.671  16.298 -2.2248 -1.7945 -0.9012
19031TIP3    H278585   0.812   0.588  16.188  1.9409 -1.3608  0.9871
19032TIP3   OH278586   2.326   3.560  15.646  0.1892  0.6219  0.3726
19032TIP3    H178587   2.408   3.584  15.690 -0.3718  0.7185  1.4133
19032TIP3    H278588   2.349   3.554  15.554  1.4022  0.4997  0.6644
19033TIP3   OH278589   3.375   6.007  15.232 -0.1387  0.3879 -0.7489
19033TIP3    H178590   3.306   6.073  15.227 -0.6992  0.1757  2.3257
19033TIP3    H278591   3.348   5.939  15.171 -1.5993  1.2231 -1.0699
19034TIP3   OH278592   6.078   0.286  12.151 -0.8327  0.0722 -0.3684
19034TIP3    H178593   5.992   0.260  12.183 -1.1459  2.0965  0.5818
19034TIP3    H278594   6.065   0.302  12.057 -1.6896  1.1093 -0.0802
19035TIP3   OH278595   6.818   5.304  14.748 -0.8148 -0.1389  0.8068
19035TIP3    H178596   6.898   5.356  14.754 -2.0085  1.7116  1.3238
19035TIP3    H278597   6.749   5.367  14.730 -2.0417 -1.8283 -0.8030
19036TIP3   OH278598   5.556   6.106  12.750  0.1549 -0.2003  0.5034
19036TIP3    H178599   5.481   6.052  12.727 -0.2428  0.6581 -0.3058
19036TIP3    H278600   5.597   6.128  12.666  0.1818  0.8981  0.7793
19037TIP3   OH278601   2.796   4.486   6.140  0.8745 -0.0265  0.4586
19037TIP3    H178602   2.848   4.409   6.165  0.5045 -0.4924 -0.2000
19037TIP3    H278603   2.708   4.466   6.171  0.6768 -0.0717 -0.1274
19038TIP3   OH278604   4.406   2.574   2.535 -0.2648  0.1949  0.5538
19038TIP3    H178605   4.454   2.494   2.557 -1.3956 -0.2632  1.4828
19038TIP3    H278606   4.452   2.643   2.583  1.2268  0.2867 -0.9166
19039TIP3   OH278607   5.200   2.815   2.978  0.1745 -0.3187  0.5329
19039TIP3    H178608   5.177   2.908   2.986  0.1393 -0.2052 -0.7144
19039TIP3    H278609   5.122   2.769   3.009 -0.0531  0.0690  0.5482
19040TIP3   OH278610   1.147   2.193  11.370 -0.1582  0.0941  0.4265
19040TIP3    H178611   1.192   2.277  11.360  0.3919 -0.2457 -0.0060
19040TIP3    H278612   1.213   2.134  11.406 -0.6605 -0.0507  1.1259
19041TIP3   OH278613   3.339   1.395   2.773 -0.4388 -0.0583 -0.4350
19041TIP3    H178614   3.433   1.403   2.754 -0.1874 -0.8338  0.3754
19041TIP3    H278615   3.333   1.405   2.868 -0.6796 -3.4033  0.0521
19042TIP3   OH278616   1.203   3.433  12.580  0.2041 -0.0308  0.2820
19042TIP3    H178617   1.116   3.468  12.560 -0.9870 -2.6299  0.4397
19042TIP3    H278618   1.189   3.378  12.657  1.6549 -1.6544 -0.5569
19043TIP3   OH278619   5.589   5.775  13.510  0.0913 -0.6291  0.3350
19043TIP3    H178620   5.561   5.842  13.448 -0.1721 -0.8361  0.2279
19043TIP3    H278621   5.508   5.749  13.555  0.4823  0.5252  1.7683
19044TIP3   OH278622   4.216   4.369  16.764 -1.0313 -0.1234  0.1817
19044TIP3    H178623   4.303   4.346  16.732 -0.8976 -0.7548  0.9473
19044TIP3    H278624   4.157   4.344  16.693 -0.8874 -2.8898  0.9212
19045TIP3   OH278625   3.861   6.633  13.003 -0.1912  0.0637 -0.2230
19045TIP3    H178626   3.820   6.675  13.078  1.6564 -0.8958  1.4085
19045TIP3    H278627   3.802   6.651  12.930 -3.0056 -0.4818  1.7606
19046TIP3   OH278628   1.635   1.426  12.477 -0.3189 -0.1467  0.2861
19046TIP3    H178629   1.721   1.460  12.452 -0.9055  0.5388 -0.8757
19046TIP3    H278630   1.588   1.502  12.511 -0.0795 -0.7575  2.0716
19047TIP3   OH278631   3.656   2.733  16.981  0.9596 -0.0598  0.1399
19047TIP3    H178632   3.562   2.746  16.983  1.1216  1.3608 -0.4435
19047TIP3    H278633   3.671   2.654  17.033 -0.5128 -0.1223  0.4884
19048TIP3   OH278634   3.396   6.078  16.963 -0.3705  0.3401 -0.0613
19048TIP3    H178635   3.383   6.164  17.004  1.6751  1.2066 -1.0787
19048TIP3    H278636   3.395   6.097  16.869  0.1164 -0.7448 -0.2986
19049TIP3   OH278637   5.575   1.332  15.210 -0.0420  0.1033 -0.2305
19049TIP3    H178638   5.655   1.378  15.238 -0.5905  1.7471 -1.2569
19049TIP3    H278639   5.514   1.401  15.188 -1.9182 -1.1239  0.8587
19050TIP3   OH278640   5.665   0.461   4.130 -0.1912  0.4526  0.1937
19050TIP3    H178641   5.574   0.455   4.102 -0.4076 -0.7858  1.0723
19050TIP3    H278642   5.663   0.519   4.206 -0.1089  1.1453 -0.3322
19051TIP3   OH278643   0.556   0.266  10.393 -0.4513  0.2550  0.2649
19051TIP3    H178644   0.515   0.340  10.349 -2.1111 -1.0239 -0.4919
19051TIP3    H278645   0.482   0.212  10.422  0.6063 -2.4636 -1.6360
19052TIP3   OH278646   1.058   1.125   0.641  0.2473 -0.1710  0.6744
19052TIP3    H178647   1.062   1.218   0.619 -0.4831 -0.5909 -1.5857
19052TIP3    H278648   0.984   1.092   0.589  1.4532 -2.2917  0.1923
19053TIP3   OH278649   4.246   1.364   4.991 -0.4492  0.0298 -0.0350
19053TIP3    H178650   4.309   1.428   4.957  1.0480 -0.7315  1.1894
19053TIP3    H278651   4.221   1.312   4.915 -0.2119  0.8526 -0.6931
19054TIP3   OH278652   4.014   0.007  14.535  0.6284 -0.0816  0.1407
19054TIP3    H178653   4.110   0.008  14.543  0.6554  0.1746 -0.1941
19054TIP3    H278654   3.999  -0.017  14.443  0.3780  0.5003  0.0312
19055TIP3   OH278655   4.902   2.866   3.219  0.1283  0.2685 -0.1380
19055TIP3    H178656   4.967   2.808   3.181  0.5454  0.6878 -0.0823
19055TIP3    H278657   4.823   2.813   3.227  0.3988 -0.1790 -0.4210
19056TIP3   OH278658   3.640   5.312  16.192  0.1729  0.3000  0.0525
19056TIP3    H178659   3.547   5.305  16.173 -1.0271  4.4366  2.9825
19056TIP3    H278660   3.654   5.255  16.268  0.4736 -1.3817 -1.2058
19057TIP3   OH278661   6.751   0.647   2.244 -0.4711 -0.5066 -0.3830
19057TIP3    H178662   6.798   0.669   2.325  1.7510 -0.2828 -1.6484
19057TIP3    H278663   6.782   0.560   2.221 -0.8744 -0.4620 -1.1157
19058TIP3   OH278664   3.916   4.599  11.008 -0.2236 -0.1606 -0.1560
19058TIP3    H178665   3.840   4.639  10.966  1.1748  2.4049 -0.4499
19058TIP3    H278666   3.911   4.627  11.099  0.3232  0.0435 -0.1783
19059TIP3   OH278667   2.766   2.836  13.383 -0.3557 -0.1773  1.0306
19059TIP3    H178668   2.803   2.837  13.471  1.7153  0.5524  0.2185
19059TIP3    H278669   2.753   2.928  13.362 -1.6925 -0.3793  0.8667
19060TIP3   OH278670   1.241   3.037   2.201  0.1434 -0.0714  0.3569
19060TIP3    H178671   1.292   2.983   2.141  0.7502  1.0726 -0.1957
19060TIP3    H278672   1.150   3.013   2.184  0.3984 -0.8451  0.0615
19061TIP3   OH278673   4.007   3.695   0.591  0.3774 -0.2815  0.1262
19061TIP3    H178674   3.956   3.614   0.586  1.7964 -1.1573 -0.7053
19061TIP3    H278675   4.070   3.689   0.519  0.4055  1.6568 -0.0794
19062TIP3   OH278676   3.581   4.265   0.779  0.6699  0.0329  0.0207
19062TIP3    H178677   3.577   4.304   0.692 -2.8654  0.7946  0.3741
19062TIP3    H278678   3.540   4.179   0.769  0.9267 -0.1895  0.7820
19063TIP3   OH278679   1.337   1.232   0.325  0.6366  0.2744 -0.2503
19063TIP3    H178680   1.329   1.308   0.382 -1.3746  0.3506 -0.5585
19063TIP3    H278681   1.326   1.157   0.383 -1.5854  0.3545 -0.4559
19064TIP3   OH278682   2.505   5.123   1.700 -0.2638 -0.5398  0.1340
19064TIP3    H178683   2.569   5.155   1.764 -1.4984  2.0709  0.2216
19064TIP3    H278684   2.509   5.186   1.629 -0.7874 -1.9241 -1.1631
19065TIP3   OH278685   6.705   2.542  14.894 -0.1497  0.1511 -0.5323
19065TIP3    H178686   6.683   2.534  14.987 -0.9974 -0.5841 -0.7815
19065TIP3    H278687   6.635   2.596  14.858  0.6544  1.1916 -0.5978
19066TIP3   OH278688   0.592   1.833   3.457 -0.0483  0.1040  0.5081
19066TIP3    H178689   0.677   1.806   3.491  0.0047  1.1929  1.2981
19066TIP3    H278690   0.529   1.804   3.522 -0.1719  0.2829  0.4694
19067TIP3   OH278691   0.721   3.746  14.795  0.3444 -0.0793  0.3429
19067TIP3    H178692   0.677   3.661  14.799 -0.0020  0.0742 -0.1278
19067TIP3    H278693   0.814   3.726  14.801  0.2355 -0.4340  1.0037
19068TIP3   OH278694   0.412   1.476  16.931 -0.6607  0.4388 -0.1177
19068TIP3    H178695   0.388   1.567  16.912  0.2273  0.5264 -0.8753
19068TIP3    H278696   0.481   1.483  16.997  1.3326  0.4918 -2.0790
19069TIP3   OH278697   6.688   1.654  14.735  1.1920 -0.0350  0.0272
19069TIP3    H178698   6.629   1.596  14.784  1.2037  0.6870  0.9042
19069TIP3    H278699   6.696   1.732  14.789  1.5273  0.6203 -0.9398
19070TIP3   OH278700   1.295   2.907   1.638 -0.0298 -0.0621 -0.5052
19070TIP3    H178701   1.344   2.844   1.585  2.2037  1.3577 -0.2698
19070TIP3    H278702   1.208   2.911   1.597  0.1202 -2.4201 -1.1796
19071TIP3   OH278703   0.830   6.374  14.612  0.0335  0.0356 -0.2597
19071TIP3    H178704   0.761   6.391  14.676 -3.9062 -2.4978 -3.3663
19071TIP3    H278705   0.817   6.440  14.544  0.7473 -0.4292 -0.8653
19072TIP3   OH278706   2.194   2.424  15.545  0.0076  0.2778 -0.2672
19072TIP3    H178707   2.193   2.347  15.488  0.8351  0.6468 -0.7995
19072TIP3    H278708   2.104   2.431  15.577  0.2869 -1.9940  1.2978
19073TIP3   OH278709   3.887   5.149   0.073  0.2216  0.1480  0.2824
19073TIP3    H178710   3.908   5.068   0.027  1.7967  0.9233 -0.4727
19073TIP3    H278711   3.874   5.123   0.164  2.5304 -0.7773  0.4255
19074TIP3   OH278712   4.515   1.771   5.778 -0.1281  0.0226  0.7685
19074TIP3    H178713   4.436   1.717   5.785  0.6802 -1.1768  0.8429
19074TIP3    H278714   4.584   1.719   5.819  0.9458  0.5579 -0.2932
19075TIP3   OH278715   1.402   1.323  14.795 -0.1765 -0.5642  0.0669
19075TIP3    H178716   1.400   1.359  14.884 -0.0197 -0.8272  0.1795
19075TIP3    H278717   1.450   1.388  14.744 -0.5157 -0.2764  0.1122
19076TIP3   OH278718   5.534   5.347  11.903  0.2923  0.9961  0.1361
19076TIP3    H178719   5.485   5.413  11.952 -0.4706  0.8533 -0.4128
19076TIP3    H278720   5.570   5.289  11.970 -0.9747  0.6337  0.5465
19077TIP3   OH278721   6.626   5.196   1.145  0.8047  0.1569 -0.0770
19077TIP3    H178722   6.667   5.187   1.059 -0.1169 -1.6928 -0.3640
19077TIP3    H278723   6.691   5.163   1.207  0.4779 -1.1001 -0.3653
19078TIP3   OH278724   3.265   5.785   3.394  0.4964 -0.2117  0.0106
19078TIP3    H178725   3.170   5.779   3.387  0.3644  2.1613 -1.3294
19078TIP3    H278726   3.281   5.833   3.476  0.3283  1.8101 -1.0692
19079TIP3   OH278727   0.463   3.781   3.154  0.3974 -0.0765 -0.1779
19079TIP3    H178728   0.508   3.859   3.121  0.4462 -0.5886 -1.3673
19079TIP3    H278729   0.430   3.737   3.076  2.4855 -2.5580  0.1750
19080TIP3   OH278730   1.915   4.897  15.732 -0.5608 -0.4103 -0.1430
19080TIP3    H178731   1.860   4.958  15.683  0.8176  1.1030  0.1264
19080TIP3    H278732   2.003   4.909  15.696  0.9861  2.2721  3.8946
19081TIP3   OH278733   5.089   2.729  14.959 -0.1741 -0.0888  0.7153
19081TIP3    H178734   5.123   2.708  15.046  1.1558  1.0147  0.4815
19081TIP3    H278735   5.000   2.759  14.975 -0.7421 -1.9715  1.4483
19082TIP3   OH278736   6.002   1.893  16.012  0.2739 -0.0348  0.0769
19082TIP3    H178737   5.931   1.932  15.961  0.6984 -0.1191 -0.5802
19082TIP3    H278738   5.984   1.919  16.102 -1.6385 -1.5490  0.2038
19083TIP3   OH278739   1.685   4.124   4.290  0.1924  0.3992 -0.0824
19083TIP3    H178740   1.631   4.118   4.211  0.1895 -1.2739  0.0092
19083TIP3    H278741   1.768   4.161   4.259  1.6411 -3.6789 -1.7624
19084TIP3   OH278742   3.743   2.214  14.524  0.6450  0.5775  0.3511
19084TIP3    H178743   3.764   2.263  14.604  0.5099  1.1110  0.0619
19084TIP3    H278744   3.669   2.158  14.548  1.0839  0.1775  0.8087
19085TIP3   OH278745   0.805   2.663  14.733  0.0232 -0.3827 -0.0111
19085TIP3    H178746   0.857   2.595  14.776  0.9285  0.4417  0.2347
19085TIP3    H278747   0.786   2.628  14.646  1.1323 -0.6410 -0.1621
19086TIP3   OH278748   0.725   0.104  13.454  0.5765 -0.0348 -0.5414
19086TIP3    H178749   0.769   0.146  13.380  1.4303 -1.1238 -0.6858
19086TIP3    H278750   0.638   0.081  13.421  0.4433  0.7492 -0.7504
19087TIP3   OH278751   0.183   3.254  15.596  0.1574 -0.8132  0.2457
19087TIP3    H178752   0.120   3.241  15.667  0.0292  0.7891  0.4517
19087TIP3    H278753   0.153   3.333  15.551  1.5631 -0.4732 -0.1472
19088TIP3   OH278754   0.904   5.175   5.695  0.1045  0.0610 -1.0308
19088TIP3    H178755   0.930   5.225   5.772 -2.4332  2.7123 -1.7296
19088TIP3    H278756   0.827   5.126   5.723  0.4810 -0.7116 -1.3238
19089TIP3   OH278757   5.466   2.886   3.750 -0.1332  0.2824 -0.6495
19089TIP3    H178758   5.560   2.872   3.747 -0.0489  0.6430  0.1792
19089TIP3    H278759   5.453   2.949   3.821 -1.3522 -2.8630  2.1734
19090TIP3   OH278760   2.021   2.838  13.155  0.1380  0.2082  0.1431
19090TIP3    H178761   2.075   2.905  13.197  0.8698 -1.2641  1.7328
19090TIP3    H278762   2.031   2.761  13.212 -2.7603 -0.4789 -0.1486
19091TIP3   OH278763   0.007   3.253   4.166 -0.2930 -0.7212  0.1606
19091TIP3    H178764  -0.018   3.189   4.233 -2.7220  0.5439  0.5918
19091TIP3    H278765   0.094   3.226   4.139  1.3616 -0.6863  4.6328
19092TIP3   OH278766   5.877   3.961  15.715 -0.1111  0.1173  0.0269
19092TIP3    H178767   5.801   3.999  15.759 -0.7511  0.0824 -1.0179
19092TIP3    H278768   5.907   3.893  15.774  0.9674  2.0853  1.8934
19093TIP3   OH278769   1.378   0.420  13.273  0.1245 -0.4777 -1.0139
19093TIP3    H178770   1.434   0.452  13.202 -0.5597 -0.0662 -1.3859
19093TIP3    H278771   1.324   0.352  13.233  0.2851 -0.7986 -0.6879
19094TIP3   OH278772   0.667   4.338  14.614 -0.1457  0.4859  0.5003
19094TIP3    H178773   0.750   4.375  14.643 -0.3000  0.8248  0.5219
19094TIP3    H278774   0.655   4.260  14.668  1.8033 -1.5578 -1.8215
19095TIP3   OH278775   0.729   0.642   6.599 -0.4445 -0.5019 -0.6458
19095TIP3    H178776   0.779   0.651   6.680  0.1674  0.1799 -1.0856
19095TIP3    H278777   0.637   0.642   6.627 -0.2312 -0.7154  0.0825
19096TIP3   OH278778   4.522   6.080   3.428 -0.2453 -0.5503 -0.2488
19096TIP3    H178779   4.455   6.027   3.384  0.2651 -2.7380  1.4633
19096TIP3    H278780   4.472   6.142   3.481 -0.9213 -1.4742  0.2172
19097TIP3   OH278781   3.684   1.642  15.168  0.3717 -0.1117  0.8198
19097TIP3    H178782   3.739   1.638  15.090  0.5737 -0.1130  0.9589
19097TIP3    H278783   3.629   1.564  15.163 -0.7011  0.6793 -0.1041
19098TIP3   OH278784   6.512   0.155   2.355  0.4028  0.3119  0.1034
19098TIP3    H178785   6.586   0.177   2.411 -0.3372  1.4140  0.6778
19098TIP3    H278786   6.526   0.206   2.275  2.1489 -2.2373 -1.3529
19099TIP3   OH278787   1.913   5.296  16.765  0.2704 -0.3209 -0.1817
19099TIP3    H178788   1.962   5.219  16.737  0.6879  0.2690 -1.1539
19099TIP3    H278789   1.837   5.300  16.706  2.2646  2.1273 -2.9005
19100TIP3   OH278790   1.812   4.478  10.443 -0.2293  0.4999  0.1426
19100TIP3    H178791   1.749   4.519  10.384  0.7494  0.3351 -1.0704
19100TIP3    H278792   1.839   4.549  10.502  0.0656  1.1448 -0.7375
19101TIP3   OH278793   3.928   6.579   2.520  0.2199 -0.2042  0.1835
19101TIP3    H178794   3.911   6.517   2.591 -0.7351 -0.3926 -0.1847
19101TIP3    H278795   3.902   6.531   2.441 -1.1644  0.8723 -0.0499
19102TIP3   OH278796   2.182   0.539   6.249 -0.1840  0.7161  0.1949
19102TIP3    H178797   2.212   0.454   6.282  0.7829  0.7118 -0.6441
19102TIP3    H278798   2.089   0.542   6.272 -0.1750 -0.4501  0.4723
19103TIP3   OH278799   0.785   2.771  11.387 -0.3456  0.0413 -0.6378
19103TIP3    H178800   0.699   2.732  11.371 -0.7339  0.6716 -0.1335
19103TIP3    H278801   0.847   2.709  11.349 -0.9228 -1.2187  0.3830
19104TIP3   OH278802   1.987   6.344  14.867 -0.4066 -0.2037 -0.1919
19104TIP3    H178803   1.892   6.335  14.871 -0.3658 -0.1818  2.8631
19104TIP3    H278804   2.001   6.436  14.845 -1.0511 -0.2980 -1.0746
19105TIP3   OH278805   6.396   4.657   3.969  0.7947  0.1249  0.4819
19105TIP3    H178806   6.396   4.570   4.010  0.6757  0.4901  1.2792
19105TIP3    H278807   6.450   4.647   3.891 -0.6880 -1.1273 -0.4413
19106TIP3   OH278808   4.598   0.900  16.266 -0.1788 -0.0047 -0.4381
19106TIP3    H178809   4.517   0.937  16.230 -0.4665 -0.9958 -0.8233
19106TIP3    H278810   4.623   0.831  16.204  0.8754  0.1752 -0.2358
19107TIP3   OH278811   5.535   2.404   4.638 -0.0765  0.1480 -0.5139
19107TIP3    H178812   5.484   2.465   4.692 -1.4025 -1.0109 -0.3960
19107TIP3    H278813   5.551   2.329   4.695 -2.5800 -1.6533 -1.9706
19108TIP3   OH278814   2.778   2.222   5.424 -0.5839  0.1948 -0.5169
19108TIP3    H178815   2.803   2.258   5.339 -0.3454 -0.3079 -0.6629
19108TIP3    H278816   2.721   2.288   5.462  1.8371  1.9805  0.3113
19109TIP3   OH278817   3.231   5.193   2.186 -0.1592 -0.0390  0.3580
19109TIP3    H178818   3.227   5.283   2.153 -2.2052 -0.2116  0.0346
19109TIP3    H278819   3.161   5.147   2.141  0.0716 -1.5052  1.4089
19110TIP3   OH278820   3.664   3.537  15.514  0.1163  0.6714  0.2394
19110TIP3    H178821   3.737   3.477  15.499  0.0223  0.7776 -0.6568
19110TIP3    H278822   3.586   3.485  15.493  0.1051  1.5745 -2.1638
19111TIP3   OH278823   4.647   0.930  12.737  0.4168 -0.1954 -0.1594
19111TIP3    H178824   4.727   0.956  12.693 -0.5691 -0.0247 -1.9363
19111TIP3    H278825   4.577   0.979  12.693 -0.6851 -0.3886  1.2829
19112TIP3   OH278826   6.115   5.852   0.897  0.3582 -0.0506  0.2741
19112TIP3    H178827   6.181   5.879   0.961  0.8730 -0.0009 -0.2650
19112TIP3    H278828   6.155   5.777   0.852  1.0350  1.3354 -1.5844
19113TIP3   OH278829   5.883   6.627   0.078 -0.3759  0.7443  0.8396
19113TIP3    H178830   5.853   6.617   0.168  0.3742 -0.0163  1.0152
19113TIP3    H278831   5.825   6.571   0.027 -0.2749  0.5174  0.9695
19114TIP3   OH278832   0.308   4.500  14.306  0.2638  0.3791  0.1325
19114TIP3    H178833   0.361   4.442  14.361  0.6675  0.0336 -0.6089
19114TIP3    H278834   0.290   4.576  14.362  0.7926  0.0997  0.6928
19115TIP3   OH278835   6.813   3.225  16.134 -0.0832 -0.0881 -0.1465
19115TIP3    H178836   6.733   3.189  16.172 -0.7310 -0.0412 -1.3973
19115TIP3    H278837   6.782   3.285  16.066  1.0031 -0.4388 -0.9859
19116TIP3   OH278838   2.128   0.631   1.627  0.0519 -0.4158 -0.2820
19116TIP3    H178839   2.185   0.566   1.586  0.8643 -0.3121  0.6366
19116TIP3    H278840   2.098   0.588   1.707 -0.1855 -0.0234 -0.1599
19117TIP3   OH278841   6.546   0.091  11.799 -0.0246  0.6244  0.1316
19117TIP3    H178842   6.528   0.109  11.707  1.1219 -0.5423 -0.3542
19117TIP3    H278843   6.491   0.016  11.820 -1.0210  1.4875  0.7045
19118TIP3   OH278844   5.324   0.559  13.367 -0.5176  0.0001 -0.0921
19118TIP3    H178845   5.369   0.634  13.405 -0.5999  0.2110 -0.4122
19118TIP3    H278846   5.343   0.487  13.427  0.6035 -0.0091 -0.4376
19119TIP3   OH278847   0.920   5.919   1.036  0.4871  0.3686  0.3946
19119TIP3    H178848   0.846   5.897   0.979 -0.3583  1.5992  0.9655
19119TIP3    H278849   0.988   5.950   0.976 -0.4952  1.9260  0.0171
19120TIP3   OH278850   5.817   0.018  12.347 -0.6448  0.1270 -0.0473
19120TIP3    H178851   5.820   0.113  12.347  0.1509  0.1171 -0.3374
19120TIP3    H278852   5.725  -0.004  12.335 -1.4617  0.8183  3.8500
19121TIP3   OH278853   0.420   4.079  14.655 -0.0024  0.6502  0.4119
19121TIP3    H178854   0.513   4.060  14.646 -0.0043  1.3232 -1.2713
19121TIP3    H278855   0.384   4.073  14.566 -1.2118  2.1481  0.7424
19122TIP3   OH278856   3.285   5.850   2.950 -0.2103  0.2402  0.1853
19122TIP3    H178857   3.234   5.769   2.938 -1.0384  0.4211  2.1866
19122TIP3    H278858   3.326   5.864   2.865  0.6086 -2.7102 -0.0311
19123TIP3   OH278859   2.978   0.161  14.645 -0.4542  0.4727 -0.1252
19123TIP3    H178860   2.993   0.092  14.709 -1.7835 -1.4796 -1.7914
19123TIP3    H278861   3.066   0.185  14.615  0.0300 -1.1484 -0.1131
19124TIP3   OH278862   5.254   1.047   0.181 -0.1547 -0.1954 -0.1959
19124TIP3    H178863   5.331   1.097   0.207  0.0253  0.9403 -2.6176
19124TIP3    H278864   5.181   1.107   0.193  0.0513  0.7657 -3.0359
19125TIP3   OH278865   5.799   4.434  16.311 -0.2041 -0.3748  0.3082
19125TIP3    H178866   5.864   4.369  16.336 -1.2038 -1.6058 -0.2165
19125TIP3    H278867   5.778   4.414  16.220  0.1969  1.3354 -0.2156
19126TIP3   OH278868   4.920   2.209   4.516  0.0127  0.4695 -0.2824
19126TIP3    H178869   4.973   2.131   4.501 -0.6340 -0.0794  0.2059
19126TIP3    H278870   4.831   2.183   4.491 -0.5298  0.4853  1.4678
19127TIP3   OH278871   5.911   2.458  11.489  0.1155  0.2807  0.5443
19127TIP3    H178872   5.949   2.408  11.560  1.3458 -0.3269 -0.5135
19127TIP3    H278873   5.852   2.397  11.445 -1.5123  0.9750  1.6667
19128TIP3   OH278874   0.474   2.476  11.582  0.0829 -0.1349 -0.2474
19128TIP3    H178875   0.506   2.489  11.493  1.9851 -0.1795  0.3659
19128TIP3    H278876   0.516   2.546  11.633 -0.6764 -0.3263  0.6654
19129TIP3   OH278877   5.958   5.084   2.329 -0.1795 -0.7709  0.4009
19129TIP3    H178878   6.032   5.124   2.284  0.2566  1.2525  2.7320
19129TIP3    H278879   5.996   5.012   2.379 -0.1434 -0.9502  0.1230
19130TIP3   OH278880   1.774   2.283  13.276  0.0411 -0.0926 -0.1229
19130TIP3    H178881   1.798   2.358  13.331  2.2700 -0.1701 -0.9052
19130TIP3    H278882   1.833   2.288  13.201 -1.9280 -0.8319 -1.8368
19131TIP3   OH278883   4.133   6.244   3.794  0.9799  0.2945  0.4063
19131TIP3    H178884   4.192   6.198   3.854  0.8857  0.9977  1.0624
19131TIP3    H278885   4.163   6.335   3.798  1.9920  0.1210 -1.8582
19132TIP3   OH278886   3.055   2.530  11.443  0.4249  0.3588  0.1907
19132TIP3    H178887   3.099   2.484  11.371 -0.1511  0.8850 -0.5122
19132TIP3    H278888   2.986   2.581  11.400  0.9728  1.7909  0.9701
19133TIP3   OH278889   5.595   5.720   1.596  0.3811  0.8577 -0.1596
19133TIP3    H178890   5.618   5.717   1.689 -1.4141  0.6215  0.3104
19133TIP3    H278891   5.616   5.633   1.563 -0.9608  0.2454  0.5487
19134TIP3   OH278892   0.177   3.194   1.358  0.0444 -0.2041 -0.7281
19134TIP3    H178893   0.158   3.221   1.448  2.0905 -2.3630  0.4507
19134TIP3    H278894   0.223   3.269   1.319  2.7427 -0.5977  1.3955
19135TIP3   OH278895   3.717   3.657   0.036 -0.3443 -0.2240  0.1199
19135TIP3    H178896   3.631   3.643  -0.003  1.1547 -1.4255 -3.1150
19135TIP3    H278897   3.702   3.648   0.130 -3.5621 -1.4890 -0.3778
19136TIP3   OH278898   6.069   2.556   0.948  0.3386 -0.0061 -0.2547
19136TIP3    H178899   5.977   2.549   0.974  0.2560 -0.7274 -0.7101
19136TIP3    H278900   6.069   2.612   0.871  0.1709 -0.6815 -0.7575
19137TIP3   OH278901   3.501   4.699   5.484 -0.0884  0.2029  0.0979
19137TIP3    H178902   3.531   4.776   5.533  1.0728  0.1081 -0.4324
19137TIP3    H278903   3.573   4.679   5.424 -0.4900 -1.1307  0.0236
19138TIP3   OH278904   4.466   1.743  12.569  0.5936  0.0717 -0.8809
19138TIP3    H178905   4.415   1.824  12.573  0.1685 -0.1164 -2.0130
19138TIP3    H278906   4.417   1.680  12.622  0.6913  0.4271 -0.3643
19139TIP3   OH278907   1.407   0.350  16.564  0.1917 -0.0317 -0.6545
19139TIP3    H178908   1.350   0.329  16.490  0.0116  0.9892 -0.8239
19139TIP3    H278909   1.494   0.319  16.537 -0.3982 -2.3068 -0.0679
19140TIP3   OH278910   5.183   6.453   3.853 -0.6423 -0.6630 -0.0170
19140TIP3    H178911   5.127   6.517   3.808 -0.5381  0.9175  1.9102
19140TIP3    H278912   5.122   6.391   3.891 -0.9673 -0.1009  0.3968
19141TIP3   OH278913   3.619   4.088  14.949  0.0694 -0.1817  0.3902
19141TIP3    H178914   3.526   4.107  14.938  0.1973 -0.4847 -1.6419
19141TIP3    H278915   3.658   4.108  14.863  2.0555  0.8753  1.4555
19142TIP3   OH278916   3.880   6.103   1.891 -1.2073 -0.0293  0.4242
19142TIP3    H178917   3.796   6.141   1.914 -0.6868  1.6119 -0.2655
19142TIP3    H278918   3.937   6.178   1.873 -0.2376 -1.1229 -1.3527
19143TIP3   OH278919   2.179   0.801   2.192  0.1556  0.3976  1.0381
19143TIP3    H178920   2.181   0.788   2.097  1.7081 -1.3968  1.2480
19143TIP3    H278921   2.186   0.895   2.204  1.1853  0.5621 -0.6154
19144TIP3   OH278922   5.255   4.984  15.049  0.4512  0.3040 -0.8366
19144TIP3    H178923   5.327   5.043  15.070 -0.0833  0.4864  0.6139
19144TIP3    H278924   5.240   4.934  15.130  0.1736 -1.0548 -1.6924
19145TIP3   OH278925   2.359   2.386   2.833  0.3826 -0.4343  0.2689
19145TIP3    H178926   2.314   2.453   2.782  0.7611 -0.7214 -0.4640
19145TIP3    H278927   2.352   2.307   2.779  1.3769 -0.5846  0.3523
19146TIP3   OH278928   3.175   5.737  12.985 -0.5541  0.5867  0.2628
19146TIP3    H178929   3.143   5.654  13.020  1.1044  0.6030  2.0213
19146TIP3    H278930   3.187   5.792  13.062 -0.5215  2.0722 -0.7619
19147TIP3   OH278931   2.689   0.531   1.270 -0.0175 -0.0214 -0.3755
19147TIP3    H178932   2.717   0.502   1.183 -0.6634 -0.6463 -0.3795
19147TIP3    H278933   2.648   0.616   1.255 -0.4377 -0.2858 -0.7301
19148TIP3   OH278934   4.915   2.035  13.401  0.5595  0.0675 -0.5032
19148TIP3    H178935   4.853   1.980  13.353  0.0688 -1.0292  1.3031
19148TIP3    H278936   4.881   2.124  13.392 -1.0852 -0.4614  0.1021
19149TIP3   OH278937   6.107   0.070   5.577  0.8898  0.0701  0.2538
19149TIP3    H178938   6.132   0.157   5.545  2.0672 -0.0475  0.7780
19149TIP3    H278939   6.175   0.048   5.641  0.3642 -1.0529  0.4507
19150TIP3   OH278940   4.858   0.734   5.383  0.4404  0.0503 -1.0060
19150TIP3    H178941   4.881   0.808   5.326  0.2356 -1.6207 -3.4001
19150TIP3    H278942   4.887   0.762   5.470  1.9618  2.2384 -2.1008
19151TIP3   OH278943   0.375   0.655  17.063  0.3666  1.0284 -0.6355
19151TIP3    H178944   0.390   0.750  17.055 -0.9208  1.2251 -1.0526
19151TIP3    H278945   0.305   0.637  17.000 -2.1984  0.5182  2.1349
19152TIP3   OH278946   0.197   1.960  13.910 -0.8250  0.0724  0.5112
19152TIP3    H178947   0.128   1.937  13.847 -0.9618  0.5315  0.4875
19152TIP3    H278948   0.151   2.011  13.977 -0.3419  1.1402  0.0350
19153TIP3   OH278949   2.289   1.809  16.413  0.4952  0.4760 -0.7746
19153TIP3    H178950   2.303   1.754  16.336  1.3229  0.0973 -0.3707
19153TIP3    H278951   2.373   1.853  16.426  0.6178 -0.0577  0.3578
19154TIP3   OH278952   1.420   1.736   3.071  0.0242  0.4675  0.1211
19154TIP3    H178953   1.500   1.710   3.117 -0.4795  0.4683  1.0277
19154TIP3    H278954   1.417   1.832   3.082  1.0313  0.7591 -1.8143
19155TIP3   OH278955   1.201   2.910  11.699 -0.0679 -0.4798 -0.1999
19155TIP3    H178956   1.118   2.926  11.745  0.3272 -0.1464  0.4155
19155TIP3    H278957   1.175   2.885  11.611 -0.8295 -0.4676  0.0111
19156TIP3   OH278958   5.236   4.682  10.658 -0.0015  0.1755  0.3622
19156TIP3    H178959   5.228   4.728  10.742  0.6245 -2.1905  1.7990
19156TIP3    H278960   5.248   4.591  10.681  0.6788 -0.5156 -2.3368
19157TIP3   OH278961   4.978   1.669   4.629  0.2376 -0.2077 -0.0096
19157TIP3    H178962   5.006   1.721   4.553 -1.1260  0.0258 -0.3689
19157TIP3    H278963   4.953   1.584   4.592  2.6489 -1.2633  0.5994
19158TIP3   OH278964   0.994   3.573  12.852  0.5271 -0.0859 -0.1702
19158TIP3    H178965   1.070   3.521  12.823  1.1002  0.1206  0.9140
19158TIP3    H278966   1.017   3.601  12.941 -0.3439  0.9164 -0.2446
19159TIP3   OH278967   5.877   0.869   4.715 -0.4089 -0.2317  0.1468
19159TIP3    H178968   5.855   0.955   4.751 -0.8666 -0.9655  1.7048
19159TIP3    H278969   5.867   0.809   4.788  0.7512 -1.5113 -0.6882
19160TIP3   OH278970   4.766   6.609  14.392 -0.1939 -0.2164  0.6788
19160TIP3    H178971   4.777   6.561  14.310 -0.1106 -0.2468  0.7078
19160TIP3    H278972   4.792   6.698  14.372 -0.1222 -0.2357  0.6862
19161TIP3   OH278973   5.881   6.377  11.499 -0.4680 -0.0891 -0.6992
19161TIP3    H178974   5.858   6.359  11.407 -0.9238  0.5846 -0.7277
19161TIP3    H278975   5.866   6.294  11.544  0.5074 -0.6500 -1.3647
19162TIP3   OH278976   6.210   4.274   5.000 -0.8489  0.5048  0.5181
19162TIP3    H178977   6.211   4.294   4.906  0.5157  1.2009  0.6519
19162TIP3    H278978   6.206   4.178   5.004  1.5282  0.2918 -0.3398
19163TIP3   OH278979   2.209   5.867  12.719 -0.0149 -0.1682 -0.3218
19163TIP3    H178980   2.137   5.923  12.748 -0.8792 -0.6920 -1.3747
19163TIP3    H278981   2.245   5.830  12.800 -0.7921  0.2660  0.2337
19164TIP3   OH278982   2.367   2.078  13.517 -0.2887  0.0989  0.1395
19164TIP3    H178983   2.375   2.100  13.610 -0.8112 -0.6741  0.3806
19164TIP3    H278984   2.329   1.990  13.516  2.1855 -1.0664 -0.7585
19165TIP3   OH278985   3.672   6.562  13.616 -0.2422 -0.3396 -0.2941
19165TIP3    H178986   3.717   6.627  13.562  1.1635 -1.5026 -0.5723
19165TIP3    H278987   3.590   6.544  13.570 -0.5564  1.0469 -0.3264
19166TIP3   OH278988   1.219   6.502   0.903  0.2350  0.1343 -0.2676
19166TIP3    H178989   1.222   6.570   0.835  0.6036  2.2321  1.7288
19166TIP3    H278990   1.286   6.528   0.966  0.4434 -2.1760  0.5657
19167TIP3   OH278991   1.312   1.468  15.763  0.0557 -0.4846  0.4998
19167TIP3    H178992   1.242   1.516  15.719  1.0157  1.3705  0.8947
19167TIP3    H278993   1.341   1.404  15.698 -1.6044 -0.9271  0.1385
19168TIP3   OH278994   2.609   0.714  14.831  0.2067  0.0531 -0.1792
19168TIP3    H178995   2.610   0.619  14.844 -0.7932  0.1333  0.6899
19168TIP3    H278996   2.517   0.738  14.842  0.4283  1.1085 -0.5321
19169TIP3   OH278997   2.438   3.613  16.479  0.0135 -0.4677  0.3514
19169TIP3    H178998   2.495   3.676  16.523  1.6736 -0.7304 -1.2572
19169TIP3    H278999   2.428   3.648  16.390 -0.2808 -1.6881 -0.1159
19170TIP3   OH279000   2.693   1.327  17.268  0.5095  0.3323  0.6447
19170TIP3    H179001   2.705   1.348  17.175 -1.9601  0.1451  0.2086
19170TIP3    H279002   2.622   1.385  17.297 -0.2224 -1.0823  1.8150
19171TIP3   OH279003   2.021   2.529   0.011  0.5811  0.2727 -0.0124
19171TIP3    H179004   2.058   2.544   0.098  2.3529 -0.2889 -0.6348
19171TIP3    H279005   2.088   2.480  -0.036 -0.6902 -0.1853 -1.4388
19172TIP3   OH279006   3.790   0.943   1.179 -0.3951  0.0544  0.5677
19172TIP3    H179007   3.740   0.865   1.152 -0.8213  0.5343 -0.0634
19172TIP3    H279008   3.759   1.012   1.120  0.5815  0.5057  0.5766
19173TIP3   OH279009   1.429   0.618  12.499 -0.3275  0.3246 -0.1497
19173TIP3    H179010   1.398   0.602  12.410  0.3096  0.7354 -0.4567
19173TIP3    H279011   1.483   0.542  12.520 -1.1758 -0.1886  0.2248
19174TIP3   OH279012   5.719   3.124  10.939  0.4030 -0.0984  0.0346
19174TIP3    H179013   5.671   3.042  10.953  0.0386  0.1726  0.4166
19174TIP3    H279014   5.677   3.163  10.861 -1.0216  0.8444  1.2122
19175TIP3   OH279015   6.084   4.368  13.699 -0.0149 -0.4540 -0.0683
19175TIP3    H179016   6.030   4.356  13.777 -0.9112 -1.3387 -0.7948
19175TIP3    H279017   6.149   4.433  13.724 -0.2087 -0.8155  1.4548
19176TIP3   OH279018   3.188   4.137  12.233  0.0842 -0.6865 -0.0633
19176TIP3    H179019   3.138   4.095  12.163 -0.3364  2.0001 -1.4810
19176TIP3    H279020   3.122   4.185  12.284  0.5857 -1.4186  1.3365
19177TIP3   OH279021   0.319   2.482  15.976 -0.4139  0.4290  0.8658
19177TIP3    H179022   0.404   2.484  16.020 -0.8234  0.3557  1.6774
19177TIP3    H279023   0.309   2.392  15.947 -0.3410  0.3666  1.0332
19178TIP3   OH279024   0.722   2.825   1.355 -0.6814  0.3167  0.3612
19178TIP3    H179025   0.809   2.789   1.338 -0.0883  2.2232 -0.9063
19178TIP3    H279026   0.669   2.748   1.376  0.6826 -1.2103 -1.4239
19179TIP3   OH279027   4.284   5.277   1.467  1.0046  0.0716  0.0933
19179TIP3    H179028   4.284   5.260   1.372 -0.1343 -0.4352  0.1653
19179TIP3    H279029   4.255   5.368   1.475 -1.0162 -0.5097  0.0023
19180TIP3   OH279030   4.438   5.119  15.291 -0.0539  0.1727 -0.1183
19180TIP3    H179031   4.457   5.206  15.324 -3.6515  0.6194  1.2058
19180TIP3    H279032   4.343   5.116  15.281 -0.2210 -3.8195  0.6542
19181TIP3   OH279033   0.295   0.334   3.480 -0.8204 -0.5181  0.4628
19181TIP3    H179034   0.209   0.314   3.518 -0.8806 -0.3640  0.4085
19181TIP3    H279035   0.285   0.421   3.442 -1.1834 -1.2205 -1.1459
19182TIP3   OH279036   3.426   6.758  14.421  0.0920  0.5969  0.1854
19182TIP3    H179037   3.386   6.680  14.382 -2.8191  2.3271 -0.5731
19182TIP3    H279038   3.466   6.726  14.502  1.5049 -2.1364 -1.4423
19183TIP3   OH279039   3.170   3.317   5.450 -0.1198  0.1876 -0.4901
19183TIP3    H179040   3.086   3.313   5.495  0.5715 -2.8709  0.7765
19183TIP3    H279041   3.229   3.360   5.512 -0.1190 -0.2209 -0.2053
19184TIP3   OH279042   6.463   4.106   5.878 -0.0302 -0.3463  0.0833
19184TIP3    H179043   6.392   4.148   5.829  0.4249 -0.5796 -0.7963
19184TIP3    H279044   6.502   4.178   5.927  1.3938  0.5491 -2.1924
19185TIP3   OH279045   3.928   4.258   3.123  0.1243  0.0874  0.0236
19185TIP3    H179046   3.925   4.304   3.207  0.9999 -1.4723  0.9612
19185TIP3    H279047   3.846   4.208   3.120 -0.7010  1.4449 -0.8680
19186TIP3   OH279048   4.763   2.027  12.709  0.2335  0.4401  0.6739
19186TIP3    H179049   4.753   1.966  12.782 -0.8868 -0.8206 -0.4769
19186TIP3    H279050   4.684   2.081  12.711 -0.3768 -0.3873 -0.2765
19187TIP3   OH279051   1.765   2.715  13.478 -0.0666 -0.0029  0.2050
19187TIP3    H179052   1.821   2.781  13.437 -2.1221  2.8719  1.6233
19187TIP3    H279053   1.800   2.706  13.566 -0.4961  0.1502  0.3959
19188TIP3   OH279054   2.729   3.551  12.919  0.1788 -0.4030 -0.5220
19188TIP3    H179055   2.681   3.504  12.850  0.4243 -0.9973 -0.2952
19188TIP3    H279056   2.667   3.557  12.992 -0.7090  1.7885 -1.3825
19189TIP3   OH279057   0.614   2.276  16.117  0.0907 -0.4681 -0.7338
19189TIP3    H179058   0.640   2.366  16.098  0.5422 -0.2733  0.7000
19189TIP3    H279059   0.687   2.239  16.166 -0.9837 -0.9048  0.6144
19190TIP3   OH279060   0.862   6.754  15.396  0.2191 -0.1608  0.2381
19190TIP3    H179061   0.930   6.701  15.354 -0.4104  0.5674 -1.8019
19190TIP3    H279062   0.890   6.844  15.383 -1.5710  0.2164 -1.5855
19191TIP3   OH279063   4.016   1.468  11.589  0.3627 -0.9596 -0.5653
19191TIP3    H179064   4.028   1.431  11.676  1.1856 -0.9888 -0.6789
19191TIP3    H279065   3.972   1.551  11.604  0.4196 -1.0052 -0.1332
19192TIP3   OH279066   4.352   6.703   4.084 -0.2614 -1.6105  0.8480
19192TIP3    H179067   4.383   6.624   4.129  0.0161 -1.5448  0.7747
19192TIP3    H279068   4.400   6.703   4.001 -1.9893 -2.6404 -0.2059
19193TIP3   OH279069   3.047   4.448   0.770 -0.1044  0.3076  0.0699
19193TIP3    H179070   3.045   4.483   0.681 -1.0504  0.7867  0.2588
19193TIP3    H279071   2.964   4.477   0.808 -1.0305 -2.2752  0.2022
19194TIP3   OH279072   4.429   5.936  16.584  0.4406 -0.7948  0.2061
19194TIP3    H179073   4.413   6.016  16.534 -1.1970 -0.3216  1.4029
19194TIP3    H279074   4.346   5.889  16.582  0.7395 -1.4113  1.3030
19195TIP3   OH279075   1.832   0.984   5.566  0.3748 -0.0608  0.0543
19195TIP3    H179076   1.831   1.063   5.619  0.9154  0.1437 -0.2387
19195TIP3    H279077   1.911   0.938   5.594  0.2860 -0.2941 -0.0781
19196TIP3   OH279078   2.349   1.619  12.748  0.6945 -0.2819  0.8725
19196TIP3    H179079   2.378   1.681  12.681  1.2862 -1.7417 -0.2956
19196TIP3    H279080   2.254   1.632  12.754  0.5310 -0.5032 -0.7130
19197TIP3   OH279081   2.866   4.887   6.077  0.3812  0.0235  0.5764
19197TIP3    H179082   2.816   4.876   6.158 -0.0602 -1.5776  0.1194
19197TIP3    H279083   2.914   4.804   6.067 -1.9193 -1.1180 -2.3354
19198TIP3   OH279084   5.583   1.347  10.985 -0.1085 -0.3560  0.4062
19198TIP3    H179085   5.655   1.294  10.952 -0.6768 -1.8075  1.4119
19198TIP3    H279086   5.593   1.431  10.940  0.5908 -1.4144 -1.5318
19199TIP3   OH279087   6.508   2.597  11.637 -0.2351  0.3219 -0.0570
19199TIP3    H179088   6.471   2.685  11.643  0.6731  0.6304  3.1850
19199TIP3    H279089   6.599   2.608  11.668 -0.4766 -1.8851  1.6990
19200TIP3   OH279090   4.642   2.009   3.254  0.0689 -0.1267 -0.9999
19200TIP3    H179091   4.567   2.067   3.264  0.5749  0.4044 -0.2324
19200TIP3    H279092   4.690   2.016   3.336  1.3654  0.1077 -1.7476
19201TIP3   OH279093   6.567   0.182  15.925 -0.2109  0.5417 -0.2803
19201TIP3    H179094   6.578   0.268  15.885  0.4664  1.6003  2.0085
19201TIP3    H279095   6.569   0.199  16.020 -1.4325 -1.8277  0.2448
19202TIP3   OH279096   3.328   1.310   5.245  0.2353 -0.1544 -0.0048
19202TIP3    H179097   3.275   1.232   5.230 -0.5271  0.4386 -0.4788
19202TIP3    H279098   3.384   1.287   5.320 -0.8837 -0.7142  0.6878
19203TIP3   OH279099   3.270   3.685   4.710  0.1131  0.0340 -0.0130
19203TIP3    H179100   3.341   3.621   4.701  0.1240 -0.1904  1.4576
19203TIP3    H279101   3.198   3.636   4.750 -0.8989  0.2601 -1.4842
19204TIP3   OH279102   1.043   3.639   4.235 -0.3441 -0.0676 -0.0415
19204TIP3    H179103   0.994   3.720   4.249  1.1027  0.9726 -0.6782
19204TIP3    H279104   1.134   3.664   4.248 -0.0032 -2.4081  3.3499
19205TIP3   OH279105   2.984   1.519   3.952  0.2646 -0.1501  0.6052
19205TIP3    H179106   2.903   1.571   3.951  0.3864  0.0351  0.0086
19205TIP3    H279107   2.973   1.456   3.880  0.9209  0.3075  0.0845
19206TIP3   OH279108   4.460   0.865  11.972  0.0731 -0.2896 -0.0351
19206TIP3    H179109   4.516   0.840  12.045 -0.9373 -1.0509  0.5047
19206TIP3    H279110   4.455   0.960  11.976  0.1597 -0.3145  0.7936
19207TIP3   OH279111   6.810   6.625   5.762 -0.6664 -0.1924  0.4312
19207TIP3    H179112   6.903   6.646   5.748 -0.7456  0.6798  1.1327
19207TIP3    H279113   6.808   6.530   5.763  0.0754 -0.2439 -0.5081
19208TIP3   OH279114   6.428   4.247  17.119 -0.7687 -0.6504  0.0119
19208TIP3    H179115   6.409   4.172  17.062  1.8654  0.1389 -2.1412
19208TIP3    H279116   6.491   4.213  17.182 -1.2980 -0.7685  0.4832
19209TIP3   OH279117   2.780   2.937  15.421 -0.1772 -0.4441 -0.1459
19209TIP3    H179118   2.692   2.937  15.459 -0.4621  0.7096 -0.7465
19209TIP3    H279119   2.834   2.890  15.484 -0.4681  2.0032  2.0942
19210TIP3   OH279120   5.778   2.062  15.878 -0.1117  0.5202  0.5335
19210TIP3    H179121   5.747   1.974  15.855  1.7313 -0.4959  1.7251
19210TIP3    H279122   5.717   2.092  15.946 -2.1137  1.1887 -1.4059
19211TIP3   OH279123   5.852   5.796  12.919 -0.0103 -0.6488  0.4462
19211TIP3    H179124   5.928   5.803  12.861 -1.2081  0.2374 -1.0941
19211TIP3    H279125   5.826   5.704  12.912 -0.4494 -0.4418 -0.8622
19212TIP3   OH279126   1.225   4.328  14.752  0.0687 -0.0054 -0.2240
19212TIP3    H179127   1.161   4.283  14.806  1.0668 -0.3774  0.6786
19212TIP3    H279128   1.230   4.277  14.672  1.5255 -1.8354  0.9625
19213TIP3   OH279129   5.598   5.729   6.501  0.0829 -0.7315 -0.0958
19213TIP3    H179130   5.523   5.761   6.452  2.8222  1.8519 -3.0758
19213TIP3    H279131   5.579   5.636   6.516 -2.3605 -0.9731 -3.4437
19214TIP3   OH279132   4.861   3.568  12.594  0.1282 -0.3884 -0.2558
19214TIP3    H179133   4.879   3.662  12.585 -0.4898 -0.1238  0.9566
19214TIP3    H279134   4.947   3.526  12.589  0.3046  0.1183 -1.9285
19215TIP3   OH279135   3.861   4.092   3.496  0.1406 -0.2261 -0.0444
19215TIP3    H179136   3.948   4.130   3.505 -0.4962  1.0507  0.8903
19215TIP3    H279137   3.803   4.166   3.479 -0.6076 -1.1807 -2.1561
19216TIP3   OH279138   0.148   1.478   0.396  0.1144  0.7429  0.1268
19216TIP3    H179139   0.242   1.489   0.406  0.0350 -0.1235  2.2247
19216TIP3    H279140   0.131   1.387   0.421 -1.0633  0.2274 -2.2514
19217TIP3   OH279141   6.792   0.312   3.953 -0.0307 -0.1883  0.0451
19217TIP3    H179142   6.752   0.226   3.961 -1.9255  0.6066 -0.2343
19217TIP3    H279143   6.778   0.353   4.039 -0.7462  0.4503 -0.3606
19218TIP3   OH279144   5.827   0.402  13.032  0.5024  0.1506 -0.0183
19218TIP3    H179145   5.800   0.493  13.039 -4.2367 -0.9591 -0.5620
19218TIP3    H279146   5.853   0.378  13.121  1.4496  1.8405  0.2064
19219TIP3   OH279147   0.048   3.971  14.642 -0.5562  0.4353  0.1890
19219TIP3    H179148   0.066   4.052  14.689  2.0957 -0.5504  1.0301
19219TIP3    H279149   0.122   3.960  14.583 -1.1712 -1.0798 -0.3573
19220TIP3   OH279150   2.796   4.384   3.236 -0.4113 -0.2423 -0.1733
19220TIP3    H179151   2.819   4.367   3.145  0.1170 -0.5448  0.0141
19220TIP3    H279152   2.858   4.332   3.287  0.5196  1.3746  0.3978
19221TIP3   OH279153   1.950   0.595   6.413 -0.0767 -0.3794  0.2592
19221TIP3    H179154   1.870   0.624   6.456  0.3386  0.4446  0.4746
19221TIP3    H279155   1.964   0.506   6.446 -0.4380 -0.2141  0.8681
19222TIP3   OH279156   1.140   0.258  13.238 -0.4390 -0.5155 -0.4434
19222TIP3    H179157   1.150   0.353  13.247  0.6566 -0.5907 -0.7243
19222TIP3    H279158   1.113   0.246  13.147 -0.0610 -0.5096 -0.5556
19223TIP3   OH279159   5.901   5.326  15.458  0.0062 -0.3938  0.2442
19223TIP3    H179160   5.939   5.399  15.409 -1.5228  0.0706 -0.3071
19223TIP3    H279161   5.950   5.324  15.540  3.6082 -2.0350 -1.7004
19224TIP3   OH279162   4.863   0.520  14.973 -0.1057 -0.1533 -0.0532
19224TIP3    H179163   4.815   0.463  14.912  2.0161 -0.9847 -1.0441
19224TIP3    H279164   4.930   0.561  14.919  1.3626 -0.3068  1.5863
19225TIP3   OH279165   5.943   5.326  14.419 -0.1758 -0.4869 -0.2167
19225TIP3    H179166   5.986   5.250  14.379 -0.2999 -0.8742  0.3767
19225TIP3    H279167   5.915   5.295  14.506 -1.4424 -0.1706 -0.4929
19226TIP3   OH279168   0.022   1.202  13.206  0.0259  0.4053 -0.0627
19226TIP3    H179169  -0.008   1.120  13.168 -1.0770  0.5272  0.5074
19226TIP3    H279170   0.059   1.250  13.133 -0.7295  0.0318 -0.7064
19227TIP3   OH279171   5.107   1.838  17.122  0.5826  0.4478  0.3482
19227TIP3    H179172   5.038   1.857  17.187 -0.6229 -1.8462 -0.1818
19227TIP3    H279173   5.168   1.781  17.169  0.0641 -0.6614 -0.2983
19228TIP3   OH279174   1.398   0.548   2.341  0.3028  0.7422  0.1011
19228TIP3    H179175   1.385   0.566   2.434 -2.0677  0.3217 -0.0724
19228TIP3    H279176   1.316   0.505   2.314  1.8589 -1.3057 -1.6495
19229TIP3   OH279177   0.514   1.535  13.646  0.1357 -0.7642 -0.6273
19229TIP3    H179178   0.589   1.550  13.587  1.3185  0.0796  1.0116
19229TIP3    H279179   0.466   1.617  13.644  0.4324 -0.5749 -0.0816
19230TIP3   OH279180   5.648   0.361  15.067 -0.2123  0.3008  0.1008
19230TIP3    H179181   5.620   0.284  15.018  0.9078  0.1041 -0.2711
19230TIP3    H279182   5.744   0.356  15.067  0.0138  2.6678 -1.5581
19231TIP3   OH279183   0.973   0.604  16.705  0.1593  0.2109  0.1014
19231TIP3    H179184   0.976   0.529  16.646 -1.5343  1.2198 -1.3400
19231TIP3    H279185   1.052   0.654  16.685 -1.1991  1.4402 -2.6421
19232TIP3   OH279186   0.303   0.513  13.430 -0.3832  0.5424  0.2585
19232TIP3    H179187   0.326   0.584  13.490 -1.0066  0.1901  0.9311
19232TIP3    H279188   0.208   0.508  13.434 -0.2986 -1.0359  1.0625
19233TIP3   OH279189   5.711   4.121  12.930  0.4206  0.1758 -0.1929
19233TIP3    H179190   5.711   4.214  12.909  0.2877  0.5053  1.2089
19233TIP3    H279191   5.742   4.116  13.020  1.5070 -1.2334 -0.5985
19234TIP3   OH279192   0.579   0.994   5.296  0.0806  0.2286 -0.0743
19234TIP3    H179193   0.543   0.936   5.229 -1.8516  1.5544 -0.2465
19234TIP3    H279194   0.537   1.078   5.281  3.0939  1.8790 -0.0778
19235TIP3   OH279195   2.626   6.366   4.511  0.2464  0.1080 -0.7253
19235TIP3    H179196   2.666   6.330   4.432 -0.7425 -1.8508 -0.3975
19235TIP3    H279197   2.536   6.386   4.485  0.4198  1.1357 -0.5496
19236TIP3   OH279198   1.891   1.517  14.901 -0.5713 -0.4029 -0.4340
19236TIP3    H179199   1.862   1.540  14.813 -2.6385 -0.8341  0.0887
19236TIP3    H279200   1.819   1.544  14.958 -0.0614 -1.8002  0.9354
19237TIP3   OH279201   3.270   2.882   2.235 -0.4777 -1.0718 -0.3106
19237TIP3    H179202   3.214   2.807   2.214 -2.3875  0.3239 -0.5100
19237TIP3    H279203   3.268   2.888   2.330  1.6181 -2.6156 -0.1045
19238TIP3   OH279204   4.586   0.558   3.422 -1.1666 -0.4991  0.2596
19238TIP3    H179205   4.608   0.616   3.349  1.5103 -0.3668  1.0587
19238TIP3    H279206   4.554   0.478   3.380 -1.7149  0.3259 -0.9606
19239TIP3   OH279207   1.003   5.262   3.802 -0.2975  0.4922 -0.0199
19239TIP3    H179208   1.012   5.257   3.707  0.3381  0.3771  0.0428
19239TIP3    H279209   0.971   5.176   3.828  0.9195  0.0266  0.0110
19240TIP3   OH279210   0.964   4.093   4.533  0.3095  0.4280 -0.4997
19240TIP3    H179211   0.870   4.111   4.521  0.1955  0.0471 -0.1768
19240TIP3    H279212   0.988   4.147   4.609  0.5471  1.1781 -1.0958
19241TIP3   OH279213   2.273   6.612   4.149  0.7443  0.3075  0.6194
19241TIP3    H179214   2.237   6.581   4.066 -0.5665 -1.6097  1.8205
19241TIP3    H279215   2.251   6.705   4.151 -1.4924 -0.1413 -0.0990
19242TIP3   OH279216   3.203   2.618   2.207  0.3297 -0.5501 -0.1597
19242TIP3    H179217   3.289   2.601   2.246  1.6617  0.0425 -2.6277
19242TIP3    H279218   3.208   2.577   2.121 -1.6416  0.0991 -0.6251
19243TIP3   OH279219   1.420   5.382   3.226  0.8360  0.3890 -0.3140
19243TIP3    H179220   1.496   5.387   3.284  0.9829 -0.6038 -0.4137
19243TIP3    H279221   1.364   5.315   3.265 -1.3502  2.9541  1.3258
19244TIP3   OH279222   0.124   2.784  13.453 -0.0524 -0.2547 -0.2188
19244TIP3    H179223   0.075   2.708  13.486  0.6983 -1.4386 -1.6925
19244TIP3    H279224   0.192   2.746  13.397  0.5433  1.5125 -0.7558
19245TIP3   OH279225   4.283   3.826  13.336  0.4325 -0.9755 -0.4486
19245TIP3    H179226   4.341   3.798  13.264 -0.7604 -2.9593 -0.7251
19245TIP3    H279227   4.287   3.754  13.399 -0.1186 -0.1786  0.5265
19246TIP3   OH279228   3.657   6.308  11.301  0.4587  0.4691  0.0344
19246TIP3    H179229   3.732   6.318  11.359  0.5425 -2.3090  0.5334
19246TIP3    H279230   3.641   6.213  11.298 -3.4826  0.9515  0.5754
19247TIP3   OH279231   2.196   3.823  15.565 -0.5272 -0.1602  0.9487
19247TIP3    H179232   2.126   3.856  15.509 -0.4920  0.1928  1.1108
19247TIP3    H279233   2.183   3.728  15.565  1.3480 -0.5454 -2.1581
19248TIP3   OH279234   5.432   5.478   5.557  0.4047  0.3260  0.1259
19248TIP3    H179235   5.411   5.568   5.531  0.9122  0.7200  1.0409
19248TIP3    H279236   5.402   5.472   5.648 -1.0508 -0.9252 -0.3873
19249TIP3   OH279237   3.039   0.485  15.046  0.4512 -0.7506 -0.4209
19249TIP3    H179238   2.979   0.498  14.972 -0.5148  2.3314  0.7500
19249TIP3    H279239   3.123   0.465  15.005 -0.1044  0.6490 -2.3957
19250TIP3   OH279240   1.206   0.761   6.279 -0.1487  0.1680  0.0373
19250TIP3    H179241   1.268   0.827   6.310  0.6959 -0.5541 -0.0443
19250TIP3    H279242   1.250   0.720   6.204  0.3883 -1.9891  1.4236
19251TIP3   OH279243   2.600   5.820  12.924  0.3777 -0.0582 -0.1811
19251TIP3    H179244   2.627   5.823  12.832  2.1919  1.2168  0.3310
19251TIP3    H279245   2.553   5.902  12.938  2.0876  0.8559  0.5302
19252TIP3   OH279246   0.884   3.387  15.711 -0.4621  0.4733  0.2420
19252TIP3    H179247   0.973   3.422  15.713  0.0206 -0.5642 -1.3993
19252TIP3    H279248   0.892   3.301  15.672 -2.3849  1.0407 -1.5986
19253TIP3   OH279249   1.719   2.523   4.561 -0.1133  0.6773 -0.5667
19253TIP3    H179250   1.717   2.434   4.596  2.1997  0.1922 -1.5331
19253TIP3    H279251   1.714   2.579   4.639 -1.6569 -0.2261  0.0537
19254TIP3   OH279252   2.401   1.316  12.882 -0.0134  0.4631 -0.3254
19254TIP3    H179253   2.346   1.391  12.906  0.9609  0.9649  0.4171
19254TIP3    H279254   2.357   1.277  12.806  0.6702  3.1581 -2.2292
19255TIP3   OH279255   0.204   1.919  15.722  0.6812 -0.2956 -0.1731
19255TIP3    H179256   0.183   1.934  15.630  1.6215  1.5128 -0.1251
19255TIP3    H279257   0.120   1.900  15.763  0.1144 -0.1025 -1.2160
19256TIP3   OH279258   1.421   3.162   1.854 -0.3007 -0.4332  0.7519
19256TIP3    H179259   1.386   3.193   1.937  1.2925  0.8672  0.9888
19256TIP3    H279260   1.479   3.232   1.824 -2.0887 -0.0758 -2.3244
19257TIP3   OH279261   2.935   1.486  15.872 -0.3930  0.3216 -0.2390
19257TIP3    H179262   2.944   1.571  15.915  0.7539 -0.6914  1.6575
19257TIP3    H279263   2.992   1.492  15.795  0.8452  0.7809  0.6894
19258TIP3   OH279264   4.504   3.177   1.689 -0.4781 -0.1737  0.5237
19258TIP3    H179265   4.447   3.215   1.622 -0.5530 -0.8830  0.1714
19258TIP3    H279266   4.515   3.086   1.661  1.0784  0.0232  0.4023
19259TIP3   OH279267   4.124   6.298  15.693  0.3408 -0.1966  0.0431
19259TIP3    H179268   4.095   6.214  15.729 -0.1512 -1.3340 -2.7023
19259TIP3    H279269   4.127   6.283  15.598 -0.4337  3.1009 -0.6318
19260TIP3   OH279270   3.340   0.787  13.971 -0.9185  0.0671  0.5106
19260TIP3    H179271   3.357   0.704  14.014  2.5417  0.7144  0.6941
19260TIP3    H279272   3.272   0.768  13.906  0.4840 -3.1844 -0.1912
19261TIP3   OH279273   1.295   0.995  14.869  0.1068  0.0977 -0.4321
19261TIP3    H179274   1.251   0.919  14.908  0.4781 -0.0008 -0.1991
19261TIP3    H279275   1.365   1.016  14.930 -0.2098  0.8517 -0.3150
19262TIP3   OH279276   5.514   6.261  13.391 -0.3949 -0.1995  0.2788
19262TIP3    H179277   5.522   6.223  13.479 -0.9064 -0.4153  0.2299
19262TIP3    H279278   5.576   6.335  13.393  2.2292 -2.2329 -0.3283
19263TIP3   OH279279   1.458   2.842   4.094  0.4515  0.4633 -0.1919
19263TIP3    H179280   1.430   2.806   4.010  0.0862 -1.0085  0.5181
19263TIP3    H279281   1.442   2.771   4.156  3.1037  0.5794  0.7317
19264TIP3   OH279282   2.808   0.075  12.905 -0.3463  0.3559 -0.3978
19264TIP3    H179283   2.721   0.110  12.891  0.7159  2.5866 -1.9894
19264TIP3    H279284   2.840   0.053  12.817  0.7270 -0.3919  0.1450
19265TIP3   OH279285   2.910   3.228   0.430  0.5110  0.2425  0.3196
19265TIP3    H179286   2.976   3.281   0.386 -1.1633  1.0036 -1.4447
19265TIP3    H279287   2.899   3.152   0.373  0.6251 -0.4282  1.1735
19266TIP3   OH279288   6.732   4.533   1.493  0.5203  0.4012 -0.4786
19266TIP3    H179289   6.700   4.485   1.417  0.0049 -0.5253  0.3006
19266TIP3    H279290   6.659   4.530   1.555  1.6352 -0.6405  0.8482
19267TIP3   OH279291   1.125   1.031   4.007  0.3007  0.6416 -0.4266
19267TIP3    H179292   1.182   1.086   4.062  0.0554  0.5689 -0.0917
19267TIP3    H279293   1.055   1.090   3.980  0.4611  0.6959 -0.7244
19268TIP3   OH279294   2.909   2.362  17.254 -0.0094 -0.4270  0.0377
19268TIP3    H179295   2.967   2.324  17.188 -0.2403 -0.7745  0.0303
19268TIP3    H279296   2.893   2.451  17.224  0.8694 -0.1759  0.2635
19269TIP3   OH279297   2.640   2.312  16.089 -0.5163  0.0667  0.1070
19269TIP3    H179298   2.639   2.407  16.101  1.5534  0.3116 -1.0967
19269TIP3    H279299   2.672   2.278  16.173  2.7824  0.8374 -0.6965
19270TIP3   OH279300   4.559   5.580  16.121 -0.3411  0.3586 -0.0169
19270TIP3    H179301   4.555   5.513  16.189  0.9077  0.7719  0.4994
19270TIP3    H279302   4.479   5.630  16.131  0.2199  0.9580  1.7473
19271TIP3   OH279303   6.714   5.303  10.759  0.6576 -0.2496  0.2573
19271TIP3    H179304   6.689   5.386  10.720  1.8928 -0.1315 -0.3514
19271TIP3    H279305   6.689   5.237  10.694 -1.1467 -0.4678  1.1249
19272TIP3   OH279306   6.317   1.072   0.132 -0.1830 -0.5031 -0.4053
19272TIP3    H179307   6.247   1.115   0.083 -0.6802 -1.3460 -0.4591
19272TIP3    H279308   6.308   1.105   0.221 -2.7917 -2.9933  0.4120
19273TIP3   OH279309   4.807   4.217  12.615 -0.2324 -0.3228 -0.1934
19273TIP3    H179310   4.785   4.185  12.703  0.2673  1.2232  0.5270
19273TIP3    H279311   4.774   4.149  12.556 -3.4837  0.0867  0.9859
19274TIP3   OH279312   3.530   0.648   5.548  0.3121 -0.1519 -0.8748
19274TIP3    H179313   3.577   0.637   5.465 -1.7968 -2.7774 -1.8887
19274TIP3    H279314   3.546   0.566   5.595 -1.6352 -0.3603 -0.4756
19275TIP3   OH279315   0.654   0.161   1.587 -0.2584  0.2833 -0.6419
19275TIP3    H179316   0.748   0.150   1.574  0.1607  2.9871 -0.4504
19275TIP3    H279317   0.618   0.073   1.578  2.1999 -0.7257 -1.3864
19276TIP3   OH279318   0.653   3.400   3.551 -0.3962 -0.1918  0.6607
19276TIP3    H179319   0.598   3.347   3.608 -0.9003  1.7515  2.1012
19276TIP3    H279320   0.593   3.438   3.487 -0.1593 -0.7184  0.1140
19277TIP3   OH279321   6.606   6.378  15.530 -0.6655  0.0395  0.1010
19277TIP3    H179322   6.530   6.389  15.473 -0.0544  0.4470 -0.6439
19277TIP3    H279323   6.623   6.465  15.565 -0.2655  0.0392 -0.0867
19278TIP3   OH279324   4.050   5.364   0.030 -0.2368 -0.2938 -0.3535
19278TIP3    H179325   3.996   5.285   0.031  0.1223 -0.5431 -0.4176
19278TIP3    H279326   3.988   5.436   0.045 -0.7721 -0.4607 -1.6209
19279TIP3   OH279327   6.022   6.287   0.069  0.3375  0.2491  0.0530
19279TIP3    H179328   5.968   6.366   0.057  0.5227  0.6839  1.8584
19279TIP3    H279329   6.111   6.320   0.082  0.7638 -0.3829 -1.0887
19280TIP3   OH279330   2.216   5.785  13.946  0.0187  0.6211 -0.2761
19280TIP3    H179331   2.206   5.812  14.037 -2.2029  0.4395 -0.4054
19280TIP3    H279332   2.224   5.867  13.897 -1.1344  0.8509 -0.1172
19281TIP3   OH279333   6.175   5.233  11.792  0.0142 -0.4850  0.1527
19281TIP3    H179334   6.144   5.205  11.878 -0.2829  1.8499  0.8685
19281TIP3    H279335   6.154   5.326  11.787  0.6975 -0.3703 -2.1651
19282TIP3   OH279336   6.263   0.257   1.014 -0.0558  0.3892 -0.0984
19282TIP3    H179337   6.183   0.215   1.045  0.2515  0.9315  1.5077
19282TIP3    H279338   6.283   0.211   0.932 -1.5681 -0.2765 -0.1380
19283TIP3   OH279339   6.578   6.477  15.912  0.4568 -0.5410 -0.3906
19283TIP3    H179340   6.531   6.508  15.990 -0.2317  0.4992 -1.1885
19283TIP3    H279341   6.667   6.461  15.943  0.8165  2.0502  0.1818
19284TIP3   OH279342   2.958   4.605  12.451 -0.0243  0.3327  0.4527
19284TIP3    H179343   2.909   4.531  12.487  1.5214 -1.1264 -0.3373
19284TIP3    H279344   2.890   4.670  12.428 -1.3080 -0.1960  2.4796
19285TIP3   OH279345   1.502   4.983  16.104  0.4731  0.8450 -0.0442
19285TIP3    H179346   1.453   5.065  16.093  2.5820  1.9526 -2.4687
19285TIP3    H279347   1.557   4.978  16.026  0.7330 -2.7536  0.2150
19286TIP3   OH279348   3.663   4.186   2.695  0.0835  0.1664 -0.3898
19286TIP3    H179349   3.673   4.259   2.756 -0.5605 -0.1530  0.1065
19286TIP3    H279350   3.746   4.184   2.647  1.1968 -0.4746  1.4630
19287TIP3   OH279351   3.982   2.284  15.973 -0.1694  0.2985 -0.1465
19287TIP3    H179352   4.040   2.299  16.047  0.5879  4.0418 -1.2639
19287TIP3    H279353   4.026   2.217  15.921  2.8911  2.3376 -0.4921
19288TIP3   OH279354   4.092   0.565   2.856 -0.4296 -0.8106 -0.0185
19288TIP3    H179355   4.056   0.541   2.941 -2.0803  0.5139 -0.2784
19288TIP3    H279356   4.178   0.602   2.875 -1.3511  0.8173  1.2849
19289TIP3   OH279357   5.687   6.099  13.782  0.2257 -0.4035 -0.0057
19289TIP3    H179358   5.743   6.168  13.817  0.6477 -1.8344  2.3967
19289TIP3    H279359   5.738   6.058  13.712  0.9598  0.1722  0.1844
19290TIP3   OH279360   6.678   4.288   4.126  0.3362 -0.1609  0.5669
19290TIP3    H179361   6.605   4.230   4.148  0.0478 -0.0689 -0.1225
19290TIP3    H279362   6.721   4.304   4.210 -1.6347  1.4071  1.3835
19291TIP3   OH279363   1.270   6.598   4.576 -0.0118 -0.3775  0.3982
19291TIP3    H179364   1.349   6.647   4.552  0.5541 -2.0102 -1.2623
19291TIP3    H279365   1.300   6.531   4.637  0.1005 -1.6003 -0.9557
19292TIP3   OH279366   0.018   3.324  16.975 -0.3237 -0.0709  1.1294
19292TIP3    H179367   0.077   3.249  16.982  0.3731 -0.3340 -4.1276
19292TIP3    H279368  -0.059   3.290  16.929 -0.4847  2.1542 -0.3646
19293TIP3   OH279369   3.795   0.578  15.154  0.3060  0.0552  0.1373
19293TIP3    H179370   3.851   0.507  15.121 -0.0121 -0.3655  0.4879
19293TIP3    H279371   3.850   0.625  15.216  0.5688  0.2128 -0.2123
19294TIP3   OH279372   6.045   5.085   0.475 -0.3417  0.6417 -0.6180
19294TIP3    H179373   6.041   5.058   0.383  1.9433  2.4336 -1.3758
19294TIP3    H279374   6.104   5.022   0.516 -2.2365 -0.8312 -0.0220
19295TIP3   OH279375   2.930   1.136   5.321 -0.1497  0.3708 -0.1335
19295TIP3    H179376   2.994   1.155   5.389 -1.9341  0.7171  1.5333
19295TIP3    H279377   2.982   1.105   5.247  1.8441 -0.5782  1.5590
19296TIP3   OH279378   5.713   5.052   4.953 -0.4920  0.4984 -0.1269
19296TIP3    H179379   5.791   5.004   4.924 -2.1581 -1.1890 -2.1342
19296TIP3    H279380   5.748   5.128   5.001  2.3229 -1.0125  0.4453
19297TIP3   OH279381   1.044   1.359   2.466 -0.1789 -0.4892 -0.8809
19297TIP3    H179382   0.991   1.391   2.394 -0.1069 -0.4232 -0.9042
19297TIP3    H279383   1.098   1.290   2.427 -1.0406 -1.3439 -0.6245
19298TIP3   OH279384   4.168   4.532  16.345  0.0798  0.2431 -0.1289
19298TIP3    H179385   4.206   4.614  16.376 -0.6844  0.6171 -0.1561
19298TIP3    H279386   4.160   4.478  16.424  1.1365 -0.0440 -0.2033
19299TIP3   OH279387   1.541   2.573  14.766 -0.2890 -0.6996 -0.4513
19299TIP3    H179388   1.463   2.576  14.822  1.5090  0.7213  2.1582
19299TIP3    H279389   1.587   2.655  14.784  0.9964 -0.6760 -3.2573
19300TIP3   OH279390   5.299   6.376   1.135 -0.3673  0.4004  0.1336
19300TIP3    H179391   5.226   6.319   1.159 -0.7916  0.4635 -0.9293
19300TIP3    H279392   5.260   6.439   1.074  0.4881  0.7026 -0.1146
19301TIP3   OH279393   1.824   1.181   2.045  0.5394 -0.2607  0.3239
19301TIP3    H179394   1.834   1.197   1.951  0.8797 -1.0984  0.2072
19301TIP3    H279395   1.867   1.097   2.059  0.7720  0.0140  1.2897
19302TIP3   OH279396   3.451   1.757   0.423  0.1472 -0.0549  0.0605
19302TIP3    H179397   3.446   1.816   0.348  2.3970 -0.6298 -0.6182
19302TIP3    H279398   3.415   1.674   0.393 -0.5114  0.1936  0.1591
19303TIP3   OH279399   2.195   2.909   0.611 -0.9223 -0.0849 -0.1314
19303TIP3    H179400   2.140   2.899   0.533 -1.0864  1.0412 -0.1694
19303TIP3    H279401   2.133   2.916   0.683 -0.8075  0.4249 -0.0829
19304TIP3   OH279402   3.670   4.414  11.824  0.5200 -0.2418  0.2015
19304TIP3    H179403   3.609   4.339  11.831  1.0102 -0.6630  0.0216
19304TIP3    H279404   3.718   4.398  11.743 -0.6837  1.2776 -0.8499
19305TIP3   OH279405   0.819   0.060   2.844  0.2749  0.1458  0.2901
19305TIP3    H179406   0.832  -0.029   2.877 -1.0919  0.1986  1.0805
19305TIP3    H279407   0.847   0.117   2.916 -2.3157  0.2688  1.3052
19306TIP3   OH279408   1.237   2.245  11.704 -0.2443  0.4489 -0.1689
19306TIP3    H179409   1.150   2.256  11.665 -0.2236  0.8342 -0.1092
19306TIP3    H279410   1.256   2.329  11.745  0.8103  0.8963 -1.4978
19307TIP3   OH279411   5.644   2.630  16.200 -0.3423 -0.1066  0.6022
19307TIP3    H179412   5.668   2.556  16.255 -0.4930 -0.0510  0.7438
19307TIP3    H279413   5.673   2.606  16.112 -0.1847 -0.2350  0.6891
19308TIP3   OH279414   2.005   6.583   3.479  0.1900 -0.0849 -0.8265
19308TIP3    H179415   2.094   6.605   3.507  0.0466 -0.1599 -0.3135
19308TIP3    H279416   1.951   6.594   3.557 -0.2051 -0.3395 -1.0596
19309TIP3   OH279417   3.736   5.658   4.718 -0.6756  0.0292  1.0645
19309TIP3    H179418   3.690   5.657   4.802  0.5355  0.1724  1.7566
19309TIP3    H279419   3.829   5.657   4.742 -0.2892  1.6280 -0.2474
19310TIP3   OH279420   6.286   4.568  13.809 -0.1396 -0.5116  0.5818
19310TIP3    H179421   6.254   4.650  13.770 -1.0555 -1.2021 -0.1701
19310TIP3    H279422   6.283   4.584  13.903 -1.2674 -0.0145  0.4799
19311TIP3   OH279423   6.352   1.850  13.567 -0.2435 -0.6145 -0.2402
19311TIP3    H179424   6.383   1.777  13.621  0.0300  0.7209  1.4924
19311TIP3    H279425   6.265   1.822  13.536 -0.4136 -1.4056  0.9087
19312TIP3   OH279426   6.490   1.041  17.238 -0.3006 -0.8575 -0.1208
19312TIP3    H179427   6.545   1.118  17.251 -0.2090 -1.1388  1.2928
19312TIP3    H279428   6.440   1.032  17.319 -2.1664 -0.8459 -1.2178
19313TIP3   OH279429   3.261   2.698   1.828  0.2317 -0.1258 -0.0509
19313TIP3    H179430   3.219   2.710   1.742  1.1154 -0.2511 -0.5152
19313TIP3    H279431   3.291   2.786   1.851  1.1553 -0.3108 -0.4999
19314TIP3   OH279432   1.308   1.571  12.471 -0.2299 -0.2021 -0.2183
19314TIP3    H179433   1.396   1.585  12.505  0.6582 -0.8227 -2.1276
19314TIP3    H279434   1.266   1.514  12.536 -0.0007  1.7445  1.7700
19315TIP3   OH279435   5.828   5.585   2.515  0.3327  0.4584  0.7021
19315TIP3    H179436   5.833   5.502   2.468  0.7478  0.1065  1.3413
19315TIP3    H279437   5.883   5.645   2.464 -0.0160  0.3635  0.2068
19316TIP3   OH279438   6.227   6.421  16.089 -0.6340 -0.1417 -0.5371
19316TIP3    H179439   6.296   6.485  16.104  1.6511 -1.8952 -2.6554
19316TIP3    H279440   6.184   6.450  16.008  0.4080 -1.1639 -1.5021
19317TIP3   OH279441   1.338   6.362   4.958  0.1138 -0.8177 -0.0154
19317TIP3    H179442   1.408   6.338   5.018 -0.6272  0.9080  1.6472
19317TIP3    H279443   1.261   6.316   4.992  0.0928 -1.4142 -0.8545
19318TIP3   OH279444   4.177   4.353  11.914  0.3921  0.1320  0.3957
19318TIP3    H179445   4.083   4.367  11.911  0.1794 -1.0518  1.0047
19318TIP3    H279446   4.206   4.403  11.991  0.8514  3.3796 -1.7005
19319TIP3   OH279447   3.260   0.021  14.774  0.3194 -0.6425 -0.5641
19319TIP3    H179448   3.194  -0.041  14.746 -1.2137  0.5715  0.2096
19319TIP3    H279449   3.231   0.050  14.861  0.4622  1.7616 -1.2364
19320TIP3   OH279450   2.197   1.879  12.756 -0.4964 -0.2017 -0.3556
19320TIP3    H179451   2.253   1.873  12.678 -0.6257  1.5862 -0.6233
19320TIP3    H279452   2.112   1.909  12.722 -0.0843  2.2759  0.5987
19321TIP3   OH279453   5.129   5.549  15.185 -0.5046 -0.1847 -0.3719
19321TIP3    H179454   5.140   5.583  15.096 -2.7331  3.3916  0.5292
19321TIP3    H279455   5.052   5.492  15.179 -0.2782 -0.4621 -0.7909
19322TIP3   OH279456   5.782   1.444   1.084 -0.1285 -0.2818 -0.2978
19322TIP3    H179457   5.774   1.516   1.022  0.0027  0.1658  0.1940
19322TIP3    H279458   5.850   1.388   1.048 -0.1913 -0.1272 -0.6541
19323TIP3   OH279459   6.324   3.497   6.477  0.3218  0.1252 -0.0544
19323TIP3    H179460   6.295   3.489   6.568 -0.8504  2.4373 -0.1492
19323TIP3    H279461   6.272   3.433   6.429  1.1031 -1.2625  0.8996
19324TIP3   OH279462   0.090   6.112   4.313  0.3786 -0.5623 -0.4576
19324TIP3    H179463   0.101   6.086   4.405  0.9961  0.9093 -0.0770
19324TIP3    H279464   0.033   6.188   4.317 -0.5213 -1.1699 -1.4181
19325TIP3   OH279465   3.590   4.083   3.520  0.3655  0.2249 -0.1303
19325TIP3    H179466   3.613   4.106   3.610  0.1003 -0.2831  0.0671
19325TIP3    H279467   3.673   4.057   3.480  0.4633  0.3317  0.0007
19326TIP3   OH279468   4.212   2.259  14.998 -0.0666  0.0015  0.5118
19326TIP3    H179469   4.250   2.185  14.950 -1.3263  0.1858 -0.8543
19326TIP3    H279470   4.168   2.219  15.073 -1.4441 -0.7730 -0.6553
19327TIP3   OH279471   4.540   1.751  14.727 -0.1869 -0.3755 -0.3584
19327TIP3    H179472   4.546   1.732  14.633  1.4963  3.1654 -1.1239
19327TIP3    H279473   4.627   1.729  14.760  0.8184  2.6871 -0.6963
19328TIP3   OH279474   2.030   4.487   3.095 -0.0293 -0.5454 -0.2247
19328TIP3    H179475   2.112   4.457   3.134 -0.0031 -1.0725 -0.6848
19328TIP3    H279476   1.999   4.413   3.043 -0.3531 -0.0441 -0.7599
19329TIP3   OH279477   4.021   4.055   5.199  0.2955  0.5136  0.1866
19329TIP3    H179478   4.100   4.012   5.167  0.8003  1.0769  0.6500
19329TIP3    H279479   4.028   4.049   5.294 -0.3284  0.3834  0.2262
19330TIP3   OH279480   5.555   4.673  11.306  0.4238 -0.2194 -0.5585
19330TIP3    H179481   5.519   4.584  11.309 -0.6795  0.1702 -1.4298
19330TIP3    H279482   5.619   4.670  11.234  0.6178 -0.3767 -0.3836
19331TIP3   OH279483   0.203   6.232  16.010  0.1360 -0.7950  0.2946
19331TIP3    H179484   0.120   6.195  16.039 -0.2438  0.2650  0.6341
19331TIP3    H279485   0.206   6.214  15.916 -0.2967 -1.1738  0.3492
19332TIP3   OH279486   4.543   5.026   3.817  0.1950 -0.0571 -0.2196
19332TIP3    H179487   4.470   5.059   3.764 -0.7783 -0.2117  0.9841
19332TIP3    H279488   4.604   4.990   3.753 -0.7265  0.1772 -1.2675
19333TIP3   OH279489   3.645   1.432   0.716  0.1120 -0.1284  0.2606
19333TIP3    H179490   3.739   1.432   0.698  0.0117 -1.5244 -0.4175
19333TIP3    H279491   3.613   1.513   0.676  0.9710  0.2055  0.2216
19334TIP3   OH279492   1.201   4.655   3.238  0.0683 -0.2841 -0.3123
19334TIP3    H179493   1.199   4.709   3.160  2.3917 -1.1678 -1.0456
19334TIP3    H279494   1.139   4.584   3.219  2.2865 -1.7991 -2.4350
19335TIP3   OH279495   0.436   5.616   4.982  0.6006  0.0357  0.4098
19335TIP3    H179496   0.352   5.585   4.949  0.5106 -0.9842  1.5072
19335TIP3    H279497   0.483   5.648   4.905 -0.9379  0.9909 -0.1596
19336TIP3   OH279498   5.390   5.607  12.616  0.0144  0.4234 -0.2703
19336TIP3    H179499   5.440   5.611  12.535  1.0655  1.7133  0.4100
19336TIP3    H279500   5.304   5.573  12.590  0.9099 -0.9471 -1.6106
19337TIP3   OH279501   3.999   6.044  16.925 -0.0352  0.0837 -0.1424
19337TIP3    H179502   3.959   5.975  16.871 -1.6030  0.1469  0.8548
19337TIP3    H279503   3.929   6.069  16.986  1.3207  0.7877  1.1698
19338TIP3   OH279504   0.581   1.172   0.675 -0.3657  0.7058  0.2342
19338TIP3    H179505   0.511   1.145   0.614  0.3991 -0.7081 -0.0564
19338TIP3    H279506   0.662   1.145   0.632  0.1803 -0.9699  2.1543
19339TIP3   OH279507   5.549   0.127   5.571 -0.0836  0.2868  0.1850
19339TIP3    H179508   5.462   0.093   5.550 -0.0495 -0.3686  1.0510
19339TIP3    H279509   5.600   0.111   5.492  0.2682 -2.8930  0.9345
19340TIP3   OH279510   1.069   2.948  16.714  0.1130 -0.7005 -0.5528
19340TIP3    H179511   1.139   2.941  16.649  0.3113 -0.3941 -0.3791
19340TIP3    H279512   0.995   2.986  16.667  0.6616  0.7397 -0.3297
19341TIP3   OH279513   1.910   1.765  13.604  0.0344 -0.0466 -0.3439
19341TIP3    H179514   1.851   1.839  13.615 -0.7734 -0.7128 -0.1033
19341TIP3    H279515   1.928   1.762  13.510  1.4121  1.4455 -0.1760
19342TIP3   OH279516   3.365   5.889  12.390 -0.1388 -0.1965 -0.2029
19342TIP3    H179517   3.371   5.979  12.358  0.7874 -0.1610  0.0426
19342TIP3    H279518   3.455   5.855  12.383 -0.8527 -1.8220 -2.3402
19343TIP3   OH279519   1.654   6.183   3.115 -0.2434 -0.2903  0.4726
19343TIP3    H179520   1.645   6.088   3.107 -1.9496 -0.0890 -0.4397
19343TIP3    H279521   1.749   6.198   3.108 -0.0360 -1.8186 -0.7075
19344TIP3   OH279522   4.879   3.774   2.155 -0.1712 -0.2580 -0.2007
19344TIP3    H179523   4.876   3.748   2.247  2.6717 -1.0276 -0.2416
19344TIP3    H279524   4.868   3.692   2.107 -0.1354 -0.0752 -0.5218
19345TIP3   OH279525   2.059   5.140   5.743  0.2207 -0.5951 -0.2028
19345TIP3    H179526   2.127   5.203   5.719 -0.2875 -0.1661 -0.5475
19345TIP3    H279527   2.097   5.055   5.726  0.2122 -0.3345 -1.6698
19346TIP3   OH279528   5.909   5.205  13.485  0.4167  0.4936  0.2947
19346TIP3    H179529   5.818   5.237  13.484  1.1878  2.9678 -1.7476
19346TIP3    H279530   5.955   5.269  13.540  1.2398  0.3858 -0.2589
19347TIP3   OH279531   2.312   2.410   1.728 -0.1762 -0.2254 -0.1070
19347TIP3    H179532   2.256   2.408   1.806 -2.0678  3.0251 -1.2172
19347TIP3    H279533   2.395   2.446   1.759 -1.6204  3.1677  0.1886
19348TIP3   OH279534   6.804   6.269   1.314  0.0039  0.2184 -0.1356
19348TIP3    H179535   6.738   6.201   1.328  0.0206  0.1559 -0.3656
19348TIP3    H279536   6.827   6.298   1.403 -0.6793  0.5776 -0.0650
19349TIP3   OH279537   2.206   2.798   4.301  0.0481 -0.5478  0.4161
19349TIP3    H179538   2.264   2.816   4.374  0.2143  0.9211 -0.0422
19349TIP3    H279539   2.257   2.820   4.223 -1.5544  2.4773  0.0432
19350TIP3   OH279540   5.557   3.953   3.089  0.2441  0.2490  0.2870
19350TIP3    H179541   5.498   3.877   3.087 -0.0181  0.4569 -1.1045
19350TIP3    H279542   5.645   3.915   3.093  0.1220 -0.1513 -0.5795
19351TIP3   OH279543   4.951   4.990   2.396 -0.3641 -0.3046 -0.1952
19351TIP3    H179544   4.974   4.975   2.487 -0.8219 -3.1777 -0.4735
19351TIP3    H279545   5.024   4.952   2.346 -0.9811 -0.4182 -1.0410
19352TIP3   OH279546   6.510   3.401   5.108 -0.0812  0.1483 -0.4063
19352TIP3    H179547   6.514   3.310   5.078  0.1507 -1.0662  2.8890
19352TIP3    H279548   6.416   3.421   5.107 -0.0761  0.2863 -2.0390
19353TIP3   OH279549   0.238   2.265   6.392  0.0615  0.2257  0.0153
19353TIP3    H179550   0.188   2.298   6.467 -1.1909 -1.7597  0.1419
19353TIP3    H279551   0.307   2.211   6.431  0.3217  0.3815 -0.2296
19354TIP3   OH279552   1.919   2.706  17.156 -0.0841 -0.3366 -0.2133
19354TIP3    H179553   2.001   2.735  17.116  0.7716 -0.9400  1.0337
19354TIP3    H279554   1.945   2.637  17.216 -1.5274 -0.5659  0.1824
19355TIP3   OH279555   5.691   5.655   1.849  0.5576 -0.6360  0.1338
19355TIP3    H179556   5.774   5.622   1.883  1.2282  0.1176 -0.7335
19355TIP3    H279557   5.631   5.581   1.857  1.1126 -0.9803  1.4226
19356TIP3   OH279558   2.803   2.954  15.893 -0.7217  0.0782 -0.9745
19356TIP3    H179559   2.763   2.946  15.807  1.1553  0.1931 -1.8986
19356TIP3    H279560   2.798   3.048  15.914 -0.4481  0.1753 -1.3376
19357TIP3   OH279561   5.613   5.584  17.195  0.4768 -0.2772  0.6144
19357TIP3    H179562   5.539   5.530  17.222  0.2814  0.2818  1.2288
19357TIP3    H279563   5.688   5.525  17.198 -0.4186 -2.0004 -3.8503
19358TIP3   OH279564   1.897   3.579   4.878 -0.3181 -0.4984  0.3086
19358TIP3    H179565   1.866   3.562   4.789 -0.5030  2.0149 -0.1672
19358TIP3    H279566   1.874   3.499   4.926 -0.4147 -1.8378 -1.8133
19359TIP3   OH279567   2.737   3.773   2.164  0.1409 -0.8484  0.2920
19359TIP3    H179568   2.782   3.817   2.092 -0.2044  0.2758  0.7505
19359TIP3    H279569   2.660   3.827   2.181 -0.0310 -1.3608  1.1915
19360TIP3   OH279570   1.218   2.602   4.261 -0.2890 -0.2589 -0.2400
19360TIP3    H179571   1.197   2.524   4.313 -2.2701 -1.3593 -2.5129
19360TIP3    H279572   1.263   2.567   4.184 -0.4430  0.9588 -0.8958
19361TIP3   OH279573   2.058   4.986  16.560 -0.2470  0.3205  0.7971
19361TIP3    H179574   2.059   5.067  16.509  0.2494 -0.3606 -0.2978
19361TIP3    H279575   1.972   4.985  16.602  0.1485  1.9690  1.7571
19362TIP3   OH279576   5.061   2.176  14.923 -0.2726  0.7060  0.1877
19362TIP3    H179577   5.001   2.109  14.891 -0.6813  1.7341 -1.3197
19362TIP3    H279578   5.056   2.246  14.857 -0.3800  2.5150  2.0075
19363TIP3   OH279579   4.301   6.075   1.441 -0.0888  0.1238  0.3904
19363TIP3    H179580   4.382   6.052   1.485  2.1170  3.3838 -1.5470
19363TIP3    H279581   4.305   6.029   1.357 -0.5368 -0.1516  0.5155
19364TIP3   OH279582   3.086   5.808  16.805 -0.0300  0.3650  0.1092
19364TIP3    H179583   3.091   5.898  16.774 -1.3797  0.4066 -0.0525
19364TIP3    H279584   3.173   5.790  16.840  0.1560  1.8615  0.4930
19365TIP3   OH279585   0.552   2.089  12.148 -0.0056 -0.5275  0.5137
19365TIP3    H179586   0.644   2.116  12.150 -0.1897  0.6721 -2.6069
19365TIP3    H279587   0.505   2.161  12.189  0.2554 -0.0361 -0.0400
19366TIP3   OH279588   3.396   0.436   1.399  1.0394 -0.2420 -0.4033
19366TIP3    H179589   3.478   0.474   1.430  1.5873  0.2729 -2.3155
19366TIP3    H279590   3.330   0.503   1.416  1.3714  0.1412 -0.6210
19367TIP3   OH279591   5.894   2.239   5.911  0.2993  0.2256 -0.3982
19367TIP3    H179592   5.951   2.223   5.836  1.5661  0.6756  0.4521
19367TIP3    H279593   5.931   2.315   5.954 -1.5062  1.1485 -0.3515
19368TIP3   OH279594   5.624   5.556   3.265 -0.1999  0.7607  0.0271
19368TIP3    H179595   5.608   5.508   3.346 -0.2677  0.4179 -0.1884
19368TIP3    H279596   5.678   5.497   3.212  0.3132  1.2095  0.0464
19369TIP3   OH279597   0.909   1.212  11.942  0.4037  0.2311 -0.0281
19369TIP3    H179598   0.992   1.243  11.978  0.5133  1.9109 -1.5536
19369TIP3    H279599   0.934   1.165  11.862  0.0051 -1.1186  0.6176
19370TIP3   OH279600   5.050   4.425   3.424 -0.6850 -0.2789 -0.4943
19370TIP3    H179601   5.084   4.401   3.511 -0.0237  1.1338 -0.3407
19370TIP3    H279602   4.974   4.368   3.413 -0.0562 -1.3779  0.4646
19371TIP3   OH279603   2.060   0.058   3.744 -0.3445  0.7640  0.4197
19371TIP3    H179604   2.042   0.120   3.674 -0.8488 -0.7380 -0.8553
19371TIP3    H279605   2.122  -0.004   3.705  0.1564  0.4698  1.6434
19372TIP3   OH279606   5.228   1.994  10.809  0.4352 -0.4573 -0.1433
19372TIP3    H179607   5.194   2.075  10.770 -2.1562 -1.7098 -0.6447
19372TIP3    H279608   5.168   1.975  10.880  0.2963 -2.5387 -0.7667
19373TIP3   OH279609   0.082   5.923  15.166 -0.3215 -0.1068 -0.4725
19373TIP3    H179610   0.010   5.965  15.119 -0.3344  1.2659  0.6827
19373TIP3    H279611   0.078   5.961  15.254  1.5556 -0.2986 -0.2594
19374TIP3   OH279612   3.948   4.279   2.658 -0.0333  0.3548  0.4894
19374TIP3    H179613   3.963   4.371   2.634  1.5797  0.2404  0.9631
19374TIP3    H279614   3.963   4.231   2.577 -2.3854  0.5773 -0.1603
19375TIP3   OH279615   0.333   1.041  15.397  0.1150  0.1349  0.1263
19375TIP3    H179616   0.333   1.044  15.493 -0.4521 -0.8728  0.1767
19375TIP3    H279617   0.376   0.958  15.376 -0.4244 -0.0012 -0.4640
19376TIP3   OH279618   2.158   3.926   1.727 -0.0731  0.6759 -0.5608
19376TIP3    H179619   2.141   3.917   1.821 -3.4917 -0.9436 -1.1728
19376TIP3    H279620   2.148   4.019   1.709 -3.3263  0.6207  0.2363
19377TIP3   OH279621   5.264   6.717  15.976 -0.1722 -0.5486  0.3560
19377TIP3    H179622   5.239   6.781  16.042 -0.2754  1.2978 -1.3588
19377TIP3    H279623   5.321   6.655  16.022  0.0805  0.8804  2.0680
19378TIP3   OH279624   3.079   0.753   3.549  0.1703 -0.2246 -0.1732
19378TIP3    H179625   2.990   0.727   3.524  0.3464 -1.0907  0.0594
19378TIP3    H279626   3.136   0.698   3.495  0.5679 -0.0084  0.0194
19379TIP3   OH279627   0.001   4.590  16.088 -0.0414  0.4497 -0.4390
19379TIP3    H179628   0.072   4.534  16.118 -2.0723 -1.0098  1.9833
19379TIP3    H279629  -0.022   4.644  16.164 -0.5626  2.0069 -1.6248
19380TIP3   OH279630   2.424   0.576  15.595  0.6750 -0.3510  0.3885
19380TIP3    H179631   2.466   0.662  15.584 -0.9239  0.5655  1.1802
19380TIP3    H279632   2.493   0.521  15.631  1.4642  0.8660  0.8042
19381TIP3   OH279633   3.800   6.743  14.707 -0.2370  0.2628  0.5723
19381TIP3    H179634   3.838   6.746  14.619  0.3504 -0.2263  0.8056
19381TIP3    H279635   3.705   6.743  14.692 -0.1807  1.9677  0.0023
19382TIP3   OH279636   4.304   0.262  14.612 -0.3641 -0.0296 -0.2106
19382TIP3    H179637   4.321   0.356  14.615 -0.9439  0.2728 -3.2207
19382TIP3    H279638   4.375   0.223  14.662 -0.6268  2.0032  1.9293
19383TIP3   OH279639   2.818   0.070  14.191  0.4041 -0.3851  0.0194
19383TIP3    H179640   2.895   0.021  14.163  0.1018 -0.2727 -1.0573
19383TIP3    H279641   2.850   0.130  14.258  0.7159 -2.2963  1.7096
19384TIP3   OH279642   1.781   4.910  14.796 -0.4677 -0.3275  0.9120
19384TIP3    H179643   1.803   4.936  14.885 -1.7761  0.6312  1.0011
19384TIP3    H279644   1.687   4.889  14.800 -0.3085 -1.2779 -0.0216
19385TIP3   OH279645   0.052   2.258   4.557 -0.0120  0.3837 -0.9208
19385TIP3    H179646  -0.022   2.272   4.616 -0.3997  0.7528 -1.4893
19385TIP3    H279647   0.101   2.340   4.561 -0.1048  0.4535 -1.2005
19386TIP3   OH279648   6.751   4.790  16.287 -0.4434  0.6325  0.5090
19386TIP3    H179649   6.772   4.732  16.360  2.4822  0.6271 -0.1955
19386TIP3    H279650   6.755   4.878  16.325 -0.9309  0.5463  0.7632
19387TIP3   OH279651   1.470   1.195   3.092  0.0178 -0.2572  0.3740
19387TIP3    H179652   1.487   1.254   3.166 -1.5094 -1.5738  1.8480
19387TIP3    H279653   1.430   1.251   3.025 -0.8088  0.5368  1.4891
19388TIP3   OH279654   2.949   4.109   1.381  0.3525 -0.4054 -0.0341
19388TIP3    H179655   2.955   4.205   1.385  1.6054 -0.3978 -1.3142
19388TIP3    H279656   2.967   4.088   1.290 -0.0759 -1.8704  0.1975
19389TIP3   OH279657   0.750   0.330   0.324 -0.3441 -0.4266 -0.2238
19389TIP3    H179658   0.782   0.283   0.401 -0.3492 -0.6999 -0.3862
19389TIP3    H279659   0.808   0.406   0.316 -0.2642 -0.4656 -0.0256
19390TIP3   OH279660   6.739   3.125  15.084  0.3617 -0.1369 -0.4496
19390TIP3    H179661   6.680   3.082  15.022  1.8878  2.0626 -3.6910
19390TIP3    H279662   6.820   3.075  15.079  0.9725  0.9138 -1.4494
19391TIP3   OH279663   5.669   0.495  16.501 -0.1891  0.8386 -0.7591
19391TIP3    H179664   5.727   0.461  16.433  0.2298  0.0554 -0.0328
19391TIP3    H279665   5.589   0.443  16.493  0.2565 -0.0011  0.0122
19392TIP3   OH279666   0.990   0.536  11.724  0.0219  0.1275  0.3272
19392TIP3    H179667   1.040   0.592  11.665  0.7058 -1.7819 -1.0090
19392TIP3    H279668   1.050   0.519  11.797 -0.0210  0.7459  0.5109
19393TIP3   OH279669   4.210   4.141   4.016 -0.2821 -0.1091 -0.1043
19393TIP3    H179670   4.224   4.049   3.993 -1.6783 -0.8991  1.9062
19393TIP3    H279671   4.289   4.185   3.986  0.7418 -2.0845 -0.5194
19394TIP3   OH279672   3.963   3.364  15.658 -0.1861 -0.1811 -0.4414
19394TIP3    H179673   4.010   3.291  15.700 -0.6694 -1.2141 -1.6427
19394TIP3    H279674   3.873   3.333  15.649 -0.0349 -0.1360 -2.5052
19395TIP3   OH279675   2.344   5.680   6.196 -0.8945  0.1733  0.2494
19395TIP3    H179676   2.345   5.648   6.286 -0.8844 -0.4682  0.0261
19395TIP3    H279677   2.252   5.679   6.172 -0.7849 -0.9454 -0.1887
19396TIP3   OH279678   3.934   5.642  16.050  0.0261 -0.3583  0.1768
19396TIP3    H179679   3.868   5.666  15.984 -2.5131 -2.2045  1.8678
19396TIP3    H279680   3.950   5.722  16.098  0.7935  0.6626 -1.6744
19397TIP3   OH279681   4.565   3.280  11.783 -0.2083  0.6708  0.4315
19397TIP3    H179682   4.572   3.303  11.876 -0.0568 -0.5899  0.7530
19397TIP3    H279683   4.490   3.331  11.751 -0.5923  0.7177  1.3722
19398TIP3   OH279684   5.819   4.247   3.960  0.5258 -0.3146 -0.1788
19398TIP3    H179685   5.844   4.157   3.981 -0.9748 -0.7837 -0.2976
19398TIP3    H279686   5.889   4.279   3.902  1.9713 -0.7936  1.2266
19399TIP3   OH279687   0.032   2.386  11.655  0.0402  0.2342 -0.6604
19399TIP3    H179688   0.075   2.312  11.699 -2.5770  0.3086  2.4488
19399TIP3    H279689  -0.047   2.347  11.615 -0.4279  1.0447 -0.5435
19400TIP3   OH279690   0.146   4.780   1.116  0.4762  0.4900 -0.1951
19400TIP3    H179691   0.142   4.850   1.182 -0.3861 -2.3479  3.0294
19400TIP3    H279692   0.072   4.798   1.058 -1.3503  0.9251  2.1241
19401TIP3   OH279693   1.515   6.453  10.825  0.3557 -0.2142  0.2363
19401TIP3    H179694   1.563   6.439  10.744 -2.7973  0.6094 -1.9528
19401TIP3    H279695   1.482   6.367  10.849 -1.9844  0.0355 -1.7096
19402TIP3   OH279696   4.765   6.441  15.459 -0.7448 -0.8213  0.0865
19402TIP3    H179697   4.678   6.406  15.438 -0.6717  0.0358 -1.7845
19402TIP3    H279698   4.766   6.444  15.555 -2.6273 -1.2256  0.1668
19403TIP3   OH279699   5.926   1.728  17.192 -0.8352 -0.0258 -0.0902
19403TIP3    H179700   6.015   1.749  17.221 -1.6864  0.6798  2.1992
19403TIP3    H279701   5.939   1.688  17.106  1.7642 -0.7255  0.5094
19404TIP3   OH279702   3.326   3.478  10.422 -0.2962  0.5694 -0.3054
19404TIP3    H179703   3.416   3.455  10.399 -0.4660  0.7163 -1.1484
19404TIP3    H279704   3.273   3.407  10.385 -0.7150  1.6314 -1.8487
19405TIP3   OH279705   6.283   0.208  14.183 -0.0958 -0.3465  0.4574
19405TIP3    H179706   6.215   0.274  14.180 -1.4668 -1.5064  3.0751
19405TIP3    H279707   6.236   0.124  14.180  1.5328 -1.2958 -1.9261
19406TIP3   OH279708   4.983   1.844   4.230  0.4833  0.6414 -0.6290
19406TIP3    H179709   5.008   1.860   4.139  2.2028  2.3380  0.0644
19406TIP3    H279710   5.040   1.774   4.260  0.7140  0.8589 -0.5534
19407TIP3   OH279711   5.569   3.569  11.325 -0.5093  0.2392 -0.5547
19407TIP3    H179712   5.620   3.650  11.321  1.4032 -0.9680 -2.6841
19407TIP3    H279713   5.502   3.580  11.258 -1.6874  0.9053  0.6891
19408TIP3   OH279714   2.781   5.271   0.248  0.1178 -0.1990  0.0910
19408TIP3    H179715   2.854   5.235   0.198 -0.5048 -0.9831 -0.2763
19408TIP3    H279716   2.812   5.273   0.338  0.9402  0.4064 -0.1852
19409TIP3   OH279717   2.338   5.281  15.168  0.5797 -0.3569 -0.2471
19409TIP3    H179718   2.431   5.272  15.146  0.8209  1.9351 -0.3990
19409TIP3    H279719   2.306   5.350  15.110 -0.4706  0.9608  1.7668
19410TIP3   OH279720   3.731   1.360   4.386  0.1087  0.1567 -0.4220
19410TIP3    H179721   3.766   1.318   4.307 -1.5099 -0.7235 -0.7292
19410TIP3    H279722   3.636   1.356   4.374 -0.1303  1.3600  0.9018
19411TIP3   OH279723   5.342   0.304  15.758  0.4497 -0.3393  0.6283
19411TIP3    H179724   5.332   0.226  15.704 -3.5212 -0.1520  0.7947
19411TIP3    H279725   5.339   0.377  15.696  3.3455 -0.1553  0.5547
19412TIP3   OH279726   0.002   5.310   0.471  0.3248 -0.0427 -0.2196
19412TIP3    H179727   0.015   5.242   0.405  0.2188  0.0176 -0.3024
19412TIP3    H279728  -0.047   5.266   0.540  0.5279 -0.1340 -0.1327
19413TIP3   OH279729   5.116   4.976  12.269  0.4477  0.1896  0.0628
19413TIP3    H179730   5.108   5.058  12.318  0.0670 -1.1436  2.3857
19413TIP3    H279731   5.063   4.990  12.191 -0.2328  1.8989  0.7750
19414TIP3   OH279732   4.985   3.763  15.391 -0.1299  0.3958 -0.1204
19414TIP3    H179733   5.007   3.744  15.300  0.0995  0.1509 -0.0150
19414TIP3    H279734   4.964   3.856  15.392 -2.0620  0.0133 -0.8076
19415TIP3   OH279735   2.220   4.763   4.511  0.0180 -0.1360  0.5096
19415TIP3    H179736   2.198   4.851   4.484 -0.2807 -0.3714 -0.0272
19415TIP3    H279737   2.292   4.774   4.574  0.3336  0.4530  0.0483
19416TIP3   OH279738   5.159   0.391  11.026  0.8026  0.3253 -0.2110
19416TIP3    H179739   5.184   0.466  11.080  1.6023  0.3560 -0.6060
19416TIP3    H279740   5.200   0.408  10.941 -0.4259  0.2713 -0.8328
19417TIP3   OH279741   0.174   2.030   5.878 -0.1223  0.0695  0.7631
19417TIP3    H179742   0.136   2.095   5.819 -1.8976 -1.4243  0.1946
19417TIP3    H279743   0.152   2.063   5.966  1.4880  1.6684  0.6223
19418TIP3   OH279744   0.220   2.719  16.367  0.8116 -0.2341 -0.2926
19418TIP3    H179745   0.212   2.814  16.353 -0.9903 -0.3170 -0.0464
19418TIP3    H279746   0.239   2.711  16.460  0.9666 -0.1132 -0.3126
19419TIP3   OH279747   4.077   6.491  14.298  0.0255 -0.4443  0.1127
19419TIP3    H179748   4.038   6.406  14.319  0.7975 -1.1570 -1.2005
19419TIP3    H279749   4.081   6.492  14.202 -0.0233  1.1088  0.1114
19420TIP3   OH279750   6.084   1.940   3.945  0.4732  0.0427  0.1088
19420TIP3    H179751   6.128   2.015   3.905  3.1421 -1.4935 -0.1271
19420TIP3    H279752   6.100   1.950   4.039 -0.4012  0.4692  0.2195
19421TIP3   OH279753   2.343   5.110  15.910  0.2535  0.5295 -0.2546
19421TIP3    H179754   2.376   5.040  15.853 -0.5649  0.8357 -1.1285
19421TIP3    H279755   2.253   5.125  15.880  0.0929  1.2838  0.5698
19422TIP3   OH279756   3.199   3.717  14.075 -0.6790 -0.4999 -0.6056
19422TIP3    H179757   3.265   3.678  14.018 -1.5192 -0.3155 -1.7351
19422TIP3    H279758   3.177   3.648  14.137  1.4344 -0.1901  0.6020
19423TIP3   OH279759   2.529   2.931   1.279  0.4694  0.3863  0.2799
19423TIP3    H179760   2.612   2.965   1.312  2.4920 -0.4200 -3.4643
19423TIP3    H279761   2.527   2.839   1.308  0.4832  0.5917  0.9604
19424TIP3   OH279762   3.184   1.510  13.041  0.4067 -0.0270  0.2265
19424TIP3    H179763   3.266   1.558  13.049  0.9461 -0.4140 -2.1286
19424TIP3    H279764   3.134   1.559  12.975 -2.3655  1.5468  3.1797
19425TIP3   OH279765   0.235   5.877   5.105 -0.0181 -0.1088 -0.0106
19425TIP3    H179766   0.307   5.864   5.044 -0.9727  1.5424 -1.5912
19425TIP3    H279767   0.270   5.935   5.172  0.0337  1.1003 -1.0477
19426TIP3   OH279768   5.481   1.927   4.431 -0.3306 -0.3166 -0.0099
19426TIP3    H179769   5.561   1.975   4.452 -0.6559  0.9035 -1.3825
19426TIP3    H279770   5.413   1.994   4.425 -1.0771 -1.1035 -0.6912
19427TIP3   OH279771   3.609   2.098   2.622  0.7483 -0.1818  0.0679
19427TIP3    H179772   3.694   2.140   2.638  0.5153 -0.0434  0.9759
19427TIP3    H279773   3.545   2.160   2.657  0.2557 -0.2463 -0.6909
19428TIP3   OH279774   3.964   3.567  12.175 -0.4331 -0.5606  0.4307
19428TIP3    H179775   4.058   3.577  12.161 -0.6642  1.0010 -0.3294
19428TIP3    H279776   3.945   3.476  12.154  0.8410 -0.7605  0.0999
19429TIP3   OH279777   2.605   3.696   0.533  0.2089  0.4396  0.1853
19429TIP3    H179778   2.550   3.696   0.612  1.1392 -0.4606  0.8629
19429TIP3    H279779   2.552   3.651   0.467 -0.3917  0.7839  0.4255
19430TIP3   OH279780   3.346   4.884   1.232  0.0850  0.3619 -0.1262
19430TIP3    H179781   3.304   4.961   1.270 -1.4929 -0.1850 -0.6767
19430TIP3    H279782   3.315   4.811   1.285  1.7892  0.0922  0.5617
19431TIP3   OH279783   5.672   3.602   0.756  0.0855  0.5108 -0.3460
19431TIP3    H179784   5.592   3.636   0.715 -0.4975 -0.9398 -0.4784
19431TIP3    H279785   5.702   3.673   0.812 -1.4453  1.0082 -0.0940
19432TIP3   OH279786   2.294   4.860   1.411 -0.5877  0.2109  0.1826
19432TIP3    H179787   2.264   4.821   1.329  0.0755 -0.5670  0.3068
19432TIP3    H279788   2.216   4.904   1.446 -0.8347  0.7113 -0.9411
19433TIP3   OH279789   6.565   6.412  12.028  0.1067 -0.0984  0.1388
19433TIP3    H179790   6.575   6.403  11.934  0.0497  1.2383 -0.0133
19433TIP3    H279791   6.535   6.502  12.041 -0.5048 -0.4527  1.3887
19434TIP3   OH279792   6.580   2.741  14.150 -0.3441 -0.4571 -0.2456
19434TIP3    H179793   6.516   2.802  14.114 -0.6238  0.0284  0.9957
19434TIP3    H279794   6.658   2.752  14.096 -1.1694 -0.7702 -1.5307
19435TIP3   OH279795   2.407   6.058  14.220 -0.1381  0.3315 -0.0959
19435TIP3    H179796   2.319   6.022  14.231 -1.4255  2.6900 -1.6719
19435TIP3    H279797   2.461   5.983  14.193 -2.0749 -0.8797 -0.8132
19436TIP3   OH279798   0.271   5.356  15.308 -0.0885  0.0038 -0.3825
19436TIP3    H179799   0.283   5.265  15.281  0.6683  0.7057 -2.6571
19436TIP3    H279800   0.295   5.407  15.231 -0.9871  2.1327  0.6667
19437TIP3   OH279801   4.236   5.479   5.901 -0.2007 -0.1246 -0.2975
19437TIP3    H179802   4.172   5.549   5.891 -1.7272 -1.5570 -1.0612
19437TIP3    H279803   4.242   5.466   5.996  0.8873  1.6798 -0.0748
19438TIP3   OH279804   2.849   5.198  12.343 -0.6340 -0.3856 -0.3509
19438TIP3    H179805   2.927   5.154  12.308  0.1313  0.6910 -0.0669
19438TIP3    H279806   2.806   5.236  12.266 -0.1643  0.1068 -0.3763
19439TIP3   OH279807   0.858   3.690   3.664 -0.1456 -0.1543  0.6235
19439TIP3    H179808   0.931   3.746   3.694 -1.9705  1.0335  3.2865
19439TIP3    H279809   0.867   3.610   3.715 -0.3888 -0.2340  0.5410
19440TIP3   OH279810   3.549   2.985   5.369  0.6386 -0.6504  0.4996
19440TIP3    H179811   3.535   3.073   5.332  0.4540 -0.3657  1.2155
19440TIP3    H279812   3.460   2.954   5.388  0.7356 -0.7440  0.7979
19441TIP3   OH279813   1.614   5.580   1.813  0.2133  0.0478  0.0023
19441TIP3    H179814   1.568   5.548   1.891  0.0203 -1.0466 -0.5522
19441TIP3    H279815   1.585   5.671   1.804  0.5961  0.3396  1.4651
19442TIP3   OH279816   4.279   2.047   2.964  0.5038 -0.2186 -0.1265
19442TIP3    H179817   4.248   2.101   3.037  0.7625  0.5875 -0.5983
19442TIP3    H279818   4.374   2.049   2.972  0.5012 -1.1433  0.2209
19443TIP3   OH279819   0.622   2.311  14.061 -0.2943  0.4247 -0.1920
19443TIP3    H179820   0.707   2.290  14.099 -0.9596 -1.6097  0.2865
19443TIP3    H279821   0.617   2.407  14.064  1.0379  0.4820  1.8328
19444TIP3   OH279822   4.581   2.741  12.360  0.3413  0.2142  0.2805
19444TIP3    H179823   4.491   2.711  12.347 -0.0910  1.1464  0.9782
19444TIP3    H279824   4.633   2.661  12.366 -0.3844 -0.3307 -0.4822
19445TIP3   OH279825   5.631   0.317  14.031  0.2219  0.0177 -0.6400
19445TIP3    H179826   5.618   0.411  14.024  1.4722  0.3796  1.0610
19445TIP3    H279827   5.721   0.303  14.004  0.3565 -0.5216  0.0449
19446TIP3   OH279828   3.306   6.087   3.985 -0.5449  0.0836  0.4300
19446TIP3    H179829   3.345   6.028   4.050  0.9469 -0.2232 -0.6780
19446TIP3    H279830   3.222   6.046   3.964 -0.3204 -0.6898  0.9726
19447TIP3   OH279831   4.660   1.418   2.955  0.0129 -0.4738  0.8721
19447TIP3    H179832   4.600   1.421   3.029 -1.2002 -2.6419  0.0643
19447TIP3    H279833   4.745   1.399   2.994 -0.6765 -2.0111  1.7167
19448TIP3   OH279834   4.593   3.725   1.074 -0.3241  0.1324  0.0225
19448TIP3    H179835   4.629   3.776   1.146  0.3234 -0.6640  0.2678
19448TIP3    H279836   4.536   3.787   1.027  0.0678  0.9374  0.5962
19449TIP3   OH279837   6.064   5.547  15.130 -0.0994 -0.2536 -0.5803
19449TIP3    H179838   6.072   5.496  15.050  1.7386 -0.7696 -0.1092
19449TIP3    H279839   6.099   5.633  15.108  0.4051 -0.3950 -0.3488
19450TIP3   OH279840   3.570   1.514   5.391 -0.0112 -0.2145  0.2680
19450TIP3    H179841   3.572   1.610   5.401  1.5412 -0.2905  0.9836
19450TIP3    H279842   3.477   1.492   5.397 -0.4141  1.2452  0.0197
19451TIP3   OH279843   1.338   2.677  13.014  0.5454  0.0291 -0.5437
19451TIP3    H179844   1.342   2.773  13.015 -0.1943  0.0587 -0.1306
19451TIP3    H279845   1.280   2.655  13.086  1.7723 -0.7983  0.2251
19452TIP3   OH279846   2.576   1.695   2.280 -0.1793 -0.5183 -0.2841
19452TIP3    H179847   2.568   1.608   2.320  1.2064  0.4505  2.3233
19452TIP3    H279848   2.606   1.751   2.351  3.0246  1.2842 -2.7937
19453TIP3   OH279849   4.810   0.908   5.601  0.4561  0.3102  0.3981
19453TIP3    H179850   4.871   0.967   5.645 -0.1417  2.0199 -0.9232
19453TIP3    H279851   4.815   0.934   5.509 -0.5979 -1.0330 -0.0668
19454TIP3   OH279852   0.921   6.756   3.186  0.2449  0.4957 -0.3049
19454TIP3    H179853   0.960   6.810   3.117 -0.2953  1.3239  0.0080
19454TIP3    H279854   0.995   6.727   3.239  0.5178  1.3148 -0.2207
19455TIP3   OH279855   5.953   5.219  17.089 -0.3727 -0.2585 -0.3826
19455TIP3    H179856   5.909   5.253  17.167 -0.9817 -1.3350 -0.2291
19455TIP3    H279857   5.960   5.125  17.105  0.2047 -0.3806 -1.2898
19456TIP3   OH279858   2.477   3.617   2.994 -0.4464 -0.6256 -0.2834
19456TIP3    H179859   2.413   3.616   3.065 -1.1069 -0.6741 -0.8677
19456TIP3    H279860   2.464   3.534   2.948  0.2311 -0.7626 -0.2462
19457TIP3   OH279861   6.232   5.252   3.404  0.6005 -0.1368  0.3508
19457TIP3    H179862   6.290   5.178   3.383 -0.2253 -0.0064 -2.9273
19457TIP3    H279863   6.287   5.329   3.392  0.2500 -0.0837 -1.1381
19458TIP3   OH279864   4.923   0.917   1.294  0.2614 -0.0665  0.1722
19458TIP3    H179865   4.918   0.838   1.348  1.3753 -0.5324 -0.3627
19458TIP3    H279866   4.894   0.889   1.207 -1.9861  0.7942  0.5785
19459TIP3   OH279867   1.279   2.418   0.549  0.2063 -0.1864 -0.5948
19459TIP3    H179868   1.183   2.417   0.544  0.2192 -0.5732 -0.8044
19459TIP3    H279869   1.297   2.417   0.643  0.0039 -1.3917 -0.5480
19460TIP3   OH279870   1.379   5.839   2.589  0.6564  0.0872 -0.8806
19460TIP3    H179871   1.337   5.882   2.514 -0.9824 -0.5555 -0.3737
19460TIP3    H279872   1.359   5.896   2.663  1.5155  0.2605 -0.7760
19461TIP3   OH279873   2.685   1.948  11.164 -0.6572  0.2503  1.0344
19461TIP3    H179874   2.601   1.915  11.131 -0.0195  0.2245 -0.6330
19461TIP3    H279875   2.722   1.875  11.213 -0.6766 -0.4545  0.0215
19462TIP3   OH279876   2.084   5.488   1.235  0.7397  0.2537  0.6410
19462TIP3    H179877   2.084   5.569   1.184  0.5817  0.6606  1.2698
19462TIP3    H279878   2.138   5.508   1.311 -0.3226  0.1922  1.4320
19463TIP3   OH279879   2.309   1.017   3.209  0.0019 -0.2155  0.1844
19463TIP3    H179880   2.269   1.095   3.170  2.2928  1.1153  0.3213
19463TIP3    H279881   2.251   0.993   3.281 -1.4334  0.5681 -0.6834
19464TIP3   OH279882   6.318   2.382  15.269  0.3458  0.3273  0.5108
19464TIP3    H179883   6.251   2.379  15.337 -0.9366 -0.0987 -0.7141
19464TIP3    H279884   6.308   2.468  15.228  0.9710  0.5046  0.7169
19465TIP3   OH279885   2.745   0.787  11.548  0.7243 -0.3541 -0.0858
19465TIP3    H179886   2.722   0.733  11.623 -0.7445  0.3702  0.0242
19465TIP3    H279887   2.704   0.744  11.473  1.0904 -0.3667 -0.2831
19466TIP3   OH279888   6.337   5.970   2.855  0.1017  0.1946  0.6628
19466TIP3    H179889   6.310   5.912   2.926 -1.5503  0.7175  0.5072
19466TIP3    H279890   6.400   6.030   2.896  1.1893 -1.1263  1.0206
19467TIP3   OH279891   4.031   6.337  12.656 -0.3318  0.2198 -0.2851
19467TIP3    H179892   3.991   6.251  12.641 -2.2121  0.8711  0.6397
19467TIP3    H279893   4.031   6.347  12.751  3.4356 -0.2804 -0.0792
19468TIP3   OH279894   4.097   0.545   5.836  0.1084  0.3475  0.2218
19468TIP3    H179895   4.177   0.584   5.873  0.1437 -0.5625  1.1397
19468TIP3    H279896   4.037   0.538   5.911 -0.3523 -0.1966 -0.1901
19469TIP3   OH279897   6.380   3.451   4.413 -0.2697 -0.2338  0.2440
19469TIP3    H179898   6.358   3.436   4.321 -2.9425 -2.8060  1.1289
19469TIP3    H279899   6.425   3.371   4.440 -0.3416  0.0921  1.3815
19470TIP3   OH279900   0.007   4.904  12.236  0.2055  0.2491  0.0062
19470TIP3    H179901   0.027   4.907  12.329  1.8384  1.8515 -0.3124
19470TIP3    H279902  -0.039   4.987  12.219 -0.9471 -0.4678 -0.4599
19471TIP3   OH279903   3.858   4.949  13.686 -0.0488  0.2369  0.1855
19471TIP3    H179904   3.873   5.001  13.765  0.3774 -0.2341  0.4236
19471TIP3    H279905   3.905   4.867  13.703 -1.1335 -0.4328  0.0484
19472TIP3   OH279906   6.438   1.045   3.935  0.1860  0.1974 -0.3232
19472TIP3    H179907   6.423   0.999   4.017 -0.5350  1.9508  0.5770
19472TIP3    H279908   6.533   1.044   3.924  0.4330  1.1882  1.3418
19473TIP3   OH279909   1.109   1.911   3.680  0.4951  0.2905  0.2073
19473TIP3    H179910   1.157   1.928   3.761 -1.3842  0.5865  1.3153
19473TIP3    H279911   1.098   1.816   3.678  0.1702  0.3213  0.5255
19474TIP3   OH279912   1.996   4.286   5.492  0.3600 -0.2562  0.0266
19474TIP3    H179913   1.948   4.367   5.473  0.7084  0.6087  2.5149
19474TIP3    H279914   2.086   4.304   5.464  0.8357  0.9371  2.1621
19475TIP3   OH279915   5.623   0.387   4.534 -0.1422  0.2868  0.2312
19475TIP3    H179916   5.561   0.357   4.467  0.5386  0.3193 -0.4279
19475TIP3    H279917   5.685   0.315   4.544 -1.2535 -0.4644  2.1515
19476TIP3   OH279918   3.468   4.539   3.182  0.0058 -0.1712 -0.1622
19476TIP3    H179919   3.394   4.552   3.123  0.1067 -2.3789 -0.8796
19476TIP3    H279920   3.438   4.571   3.267 -1.4383 -0.2098 -0.6400
19477TIP3   OH279921   3.448   5.591  16.503  0.1398  0.2567 -0.0511
19477TIP3    H179922   3.392   5.514  16.512 -0.3549  0.7558  1.5987
19477TIP3    H279923   3.525   5.570  16.556  0.6533  0.3472 -0.7502
19478TIP3   OH279924   2.259   5.062  12.273  0.1856 -0.5522  0.0040
19478TIP3    H179925   2.208   5.083  12.351 -3.0703 -1.4014 -1.6859
19478TIP3    H279926   2.282   4.970  12.284  1.5246 -0.1434  0.8156
19479TIP3   OH279927   1.948   6.332   5.920  0.4531  0.0517  0.0194
19479TIP3    H179928   1.860   6.360   5.893  0.6540  0.4922 -0.1947
19479TIP3    H279929   1.935   6.290   6.005 -0.0619 -0.5419 -0.3445
19480TIP3   OH279930   1.369   2.657  16.482 -0.3564  0.3900  0.0949
19480TIP3    H179931   1.347   2.646  16.389 -1.8935 -0.4072  0.5266
19480TIP3    H279932   1.423   2.736  16.483 -2.1339  1.7344 -1.2529
19481TIP3   OH279933   5.893   3.077  13.857 -0.0851  0.4254 -0.0177
19481TIP3    H179934   5.973   3.067  13.910  0.2237  1.7198 -0.2075
19481TIP3    H279935   5.834   3.128  13.912 -0.3096  0.5423 -0.3656
19482TIP3   OH279936   0.484   6.210   0.601  0.4025  0.1123  0.1163
19482TIP3    H179937   0.419   6.280   0.592 -0.2831 -0.3807  1.0190
19482TIP3    H279938   0.544   6.241   0.670  0.5607  0.1520 -0.0387
19483TIP3   OH279939   0.355   5.790  17.285 -0.1255 -0.0365  0.1473
19483TIP3    H179940   0.312   5.870  17.257 -0.3136 -0.3023 -0.3303
19483TIP3    H279941   0.290   5.747  17.341 -0.6168 -0.5951 -0.8345
19484TIP3   OH279942   6.038   0.012  13.872  0.3588 -0.2220  0.0590
19484TIP3    H179943   6.064  -0.022  13.787 -0.1104  1.2821 -0.7096
19484TIP3    H279944   5.954   0.055  13.857 -0.3389 -0.9671  1.5441
19485TIP3   OH279945   6.075   4.105   1.549 -0.2009  0.0229 -0.5817
19485TIP3    H179946   6.014   4.054   1.602  0.0609 -2.5301 -2.5516
19485TIP3    H279947   6.038   4.104   1.461  1.6066  0.1923 -1.3924
19486TIP3   OH279948   2.130   5.431   0.209  0.2281  0.4519 -0.1420
19486TIP3    H179949   2.070   5.494   0.169  2.1878  2.2501 -0.3876
19486TIP3    H279950   2.170   5.386   0.135 -0.2506 -0.2246  0.0010
19487TIP3   OH279951   2.013   6.281   1.927 -0.3100  0.0728 -0.0081
19487TIP3    H179952   2.047   6.325   1.849 -0.2080 -0.2444 -0.1457
19487TIP3    H279953   2.033   6.189   1.912  3.5382  0.3014  2.2221
19488TIP3   OH279954   3.181   3.184   1.087  0.2479 -0.5496  0.1595
19488TIP3    H179955   3.215   3.095   1.099  0.6261 -0.6605 -1.5137
19488TIP3    H279956   3.197   3.227   1.170  1.5185 -1.5807  0.4855
19489TIP3   OH279957   0.652   3.166  15.783  0.3456  0.2436  0.5487
19489TIP3    H179958   0.597   3.128  15.714  1.2673 -1.9155  0.9353
19489TIP3    H279959   0.599   3.238  15.818 -2.0803 -1.4805  0.6322
19490TIP3   OH279960   1.748   2.254   2.991 -0.2004  1.0390 -0.3351
19490TIP3    H179961   1.769   2.302   3.072  2.6397  1.1638 -1.0346
19490TIP3    H279962   1.753   2.162   3.017  3.0648  0.9949 -0.7279
19491TIP3   OH279963   1.489   2.390  14.350  0.0369  0.0164 -0.0486
19491TIP3    H179964   1.552   2.406  14.421 -1.1515 -1.4357  1.4419
19491TIP3    H279965   1.516   2.306  14.313  0.0013  0.2359 -0.5711
19492TIP3   OH279966   0.181   4.545  11.156  0.2943 -0.1700  0.3984
19492TIP3    H179967   0.165   4.638  11.174  1.2857 -0.0302  0.6335
19492TIP3    H279968   0.103   4.516  11.109 -0.0620  0.7646  0.3821
19493TIP3   OH279969   0.191   5.189   1.641 -0.4459 -0.2859 -0.2070
19493TIP3    H179970   0.248   5.225   1.573 -2.0927  0.7077 -1.1335
19493TIP3    H279971   0.196   5.253   1.712  0.3509 -0.7156  0.1331
19494TIP3   OH279972   3.987   5.391   0.371  0.0672  0.0444  0.0753
19494TIP3    H179973   3.931   5.323   0.409  0.8265 -0.4822  0.2814
19494TIP3    H279974   3.943   5.473   0.392 -0.0906 -0.2989  1.1682
19495TIP3   OH279975   4.655   4.101  11.915  0.3577  0.6399  0.6575
19495TIP3    H179976   4.560   4.112  11.922  0.1680  0.2217 -0.8511
19495TIP3    H279977   4.680   4.161  11.845  0.9472 -0.4451 -0.0872
19496TIP3   OH279978   3.120   6.099   2.269 -0.4105 -0.1520  0.0917
19496TIP3    H179979   3.064   6.145   2.207  0.4339  0.8208  0.0251
19496TIP3    H279980   3.170   6.168   2.313  1.5999 -1.0115 -0.6783
19497TIP3   OH279981   0.682   2.636   5.274 -0.5384 -0.2856  0.1357
19497TIP3    H179982   0.655   2.613   5.185  0.9525 -0.4993 -0.2886
19497TIP3    H279983   0.689   2.732   5.272  1.8308 -0.4079 -0.7464
19498TIP3   OH279984   4.560   1.584   1.259  0.0969 -0.3927 -0.0539
19498TIP3    H179985   4.508   1.661   1.281 -0.0334 -0.6890  0.7066
19498TIP3    H279986   4.573   1.539   1.343 -0.3842 -1.5462 -0.5800
19499TIP3   OH279987   4.863   5.054  15.628  0.5752 -0.2001 -0.1977
19499TIP3    H179988   4.894   5.102  15.705  0.1728 -2.1543  1.2654
19499TIP3    H279989   4.770   5.037  15.646  0.1182  0.3973 -1.7536
19500TIP3   OH279990   4.419   5.375   6.511  0.0424 -0.4351 -0.1540
19500TIP3    H179991   4.327   5.349   6.520  0.0290 -0.0458  1.0409
19500TIP3    H279992   4.468   5.308   6.558  0.1335  0.7737  1.5674
19501TIP3   OH279993   1.042   3.205   4.247  0.5437 -0.9268  0.1758
19501TIP3    H179994   1.064   3.288   4.204 -1.8394 -0.1454  0.3085
19501TIP3    H279995   1.104   3.142   4.210  1.3330  0.5777 -1.2086
19502TIP3   OH279996   5.055   2.405   4.919  0.8175 -0.2938  0.3686
19502TIP3    H179997   5.023   2.326   4.876 -0.1894  1.0079 -1.4255
19502TIP3    H279998   4.983   2.432   4.976  1.2135 -0.7307  1.0825
19503TIP3   OH279999   0.457   3.150   4.894 -0.5000 -0.1606 -0.7323
19503TIP3    H180000   0.433   3.213   4.962 -0.6709  1.8479 -2.5527
19503TIP3    H280001   0.420   3.067   4.925  0.0870  0.4933  1.9445
19504TIP3   OH280002   6.036   3.499  14.151 -1.0818  0.5369 -0.0677
19504TIP3    H180003   6.103   3.442  14.187 -1.8528  0.2621  0.9751
19504TIP3    H280004   6.049   3.495  14.056  0.5620  0.7503  0.1315
19505TIP3   OH280005   1.605   3.796   6.424 -0.0179 -0.0894  0.2453
19505TIP3    H180006   1.528   3.849   6.403  0.8897  1.2598  0.1552
19505TIP3    H280007   1.679   3.853   6.403  0.9903 -0.6876  1.9851
19506TIP3   OH280008   4.432   6.609  11.302  0.2394 -0.0922  0.2548
19506TIP3    H180009   4.439   6.703  11.286  3.4099 -0.2220  0.3012
19506TIP3    H280010   4.368   6.601  11.373  1.8457  2.2972  2.1195
19507TIP3   OH280011   5.675   6.271  16.092 -0.1380  0.2730 -0.0109
19507TIP3    H180012   5.708   6.242  16.007 -0.9980 -1.0768  0.0738
19507TIP3    H280013   5.750   6.312  16.134  1.1277 -1.5820 -0.3113
19508TIP3   OH280014   4.830   4.606   5.601  0.2662 -0.6019 -0.3050
19508TIP3    H180015   4.923   4.626   5.592 -0.0743  0.5163 -1.8318
19508TIP3    H280016   4.795   4.678   5.653  0.0567 -0.3087 -0.8350
19509TIP3   OH280017   2.243   5.224  14.358 -0.2283 -0.5941  0.1437
19509TIP3    H180018   2.222   5.133  14.337  0.1833 -1.1278  1.8532
19509TIP3    H280019   2.303   5.218  14.432 -1.5069  1.0853  1.4143
19510TIP3   OH280020   6.639   5.023   6.135 -0.0973 -0.3394  0.6590
19510TIP3    H180021   6.550   5.057   6.127  0.5111  0.9378 -1.5723
19510TIP3    H280022   6.670   5.057   6.219 -0.0769  3.5818 -0.7161
19511TIP3   OH280023   3.236   1.476   4.221 -0.0834  0.4362  0.0945
19511TIP3    H180024   3.157   1.479   4.276  0.0806 -1.4530  0.5093
19511TIP3    H280025   3.226   1.549   4.161 -1.0120  1.6568  1.6501
19512TIP3   OH280026   0.516   3.017  17.130 -0.4577  0.1579 -0.0803
19512TIP3    H180027   0.605   3.021  17.096 -0.0528  0.3258  0.9683
19512TIP3    H280028   0.499   3.104  17.165 -0.9611  0.0752 -0.1105
19513TIP3   OH280029   0.743   4.432   5.825  0.3205 -0.1567  0.3009
19513TIP3    H180030   0.709   4.446   5.913  1.8752  0.3284  0.8669
19513TIP3    H280031   0.772   4.341   5.824  1.0442  0.0661  0.5714
19514TIP3   OH280032   0.263   1.561  14.247 -0.1594 -0.1578  0.2068
19514TIP3    H180033   0.344   1.563  14.298  0.3857 -0.4196 -0.6509
19514TIP3    H280034   0.280   1.501  14.175 -1.5838 -1.3133  0.7816
19515TIP3   OH280035   2.528   4.554   3.920 -0.2340 -0.4799 -0.1572
19515TIP3    H180036   2.600   4.558   3.984 -0.3960  0.6367 -0.0226
19515TIP3    H280037   2.568   4.515   3.843  0.4841 -0.0554 -0.0170
19516TIP3   OH280038   2.913   2.082   3.126  0.0649 -0.1770  0.4480
19516TIP3    H180039   2.849   2.027   3.080 -0.1823 -1.2388  1.9842
19516TIP3    H280040   2.980   2.021   3.155  0.7891  0.6404  0.5329
19517TIP3   OH280041   6.197   4.945  10.587  0.2923  0.2201  0.1159
19517TIP3    H180042   6.115   4.937  10.636  0.1924 -0.1462 -0.1132
19517TIP3    H280043   6.173   4.995  10.509  0.5515  1.2448  0.6681
19518TIP3   OH280044   5.619   1.792   1.166 -0.5493  0.8469  0.2032
19518TIP3    H180045   5.651   1.813   1.078  1.0523 -0.6471  0.3756
19518TIP3    H280046   5.535   1.837   1.172  0.0849  2.3863 -1.4576
19519TIP3   OH280047   2.923   5.566   3.198  0.1968  0.0039  0.5170
19519TIP3    H180048   2.980   5.540   3.126 -0.6306  0.1124 -0.2035
19519TIP3    H280049   2.842   5.516   3.183 -0.1623  0.4055  1.0833
19520TIP3   OH280050   5.943   3.026  11.244  0.2930  0.3482  0.3218
19520TIP3    H180051   5.925   2.944  11.198  0.0841  0.5278  0.0789
19520TIP3    H280052   5.856   3.064  11.261  0.3321  0.0129  1.3668
19521TIP3   OH280053   2.788   4.462  11.718  0.0367  0.1859 -0.5561
19521TIP3    H180054   2.855   4.449  11.651  0.3677 -0.2533 -0.1529
19521TIP3    H280055   2.814   4.403  11.789 -2.5142 -2.4517 -1.6274
19522TIP3   OH280056   3.236   1.137   2.810  0.3940  0.5029 -0.1248
19522TIP3    H180057   3.153   1.182   2.798  0.3980  1.4192  2.6623
19522TIP3    H280058   3.302   1.200   2.782  0.2279  0.0068 -1.7352
19523TIP3   OH280059   3.341   5.841  11.094  0.5156 -0.2984  0.3905
19523TIP3    H180060   3.255   5.842  11.051  0.2427 -1.3869  0.8782
19523TIP3    H280061   3.403   5.824  11.023  0.0666 -2.1002  0.3841
19524TIP3   OH280062   2.797   2.989   2.437  0.3150 -0.8484  0.2852
19524TIP3    H180063   2.717   2.975   2.487  0.3579 -0.9354  0.3293
19524TIP3    H280064   2.775   3.058   2.375 -0.6573 -2.7401 -1.6133
19525TIP3   OH280065   1.437   4.117  11.353  0.1228  0.4650  0.3232
19525TIP3    H180066   1.528   4.120  11.382  0.3215  0.1976 -0.2516
19525TIP3    H280067   1.386   4.134  11.432  0.6588  0.0270  0.7741
19526TIP3   OH280068   3.730   0.529   4.846  0.3232  0.0582  0.5320
19526TIP3    H180069   3.782   0.608   4.857  0.9505  0.0335 -1.7544
19526TIP3    H280070   3.742   0.481   4.928  1.6977  1.3098  1.1146
19527TIP3   OH280071   0.089   1.201   3.750 -0.5204  0.1932 -0.2435
19527TIP3    H180072   0.123   1.215   3.662 -1.8988 -0.4986 -0.9084
19527TIP3    H280073   0.039   1.280   3.769 -1.6183 -0.3633 -0.7690
19528TIP3   OH280074   4.038   3.619  15.619 -0.2461  0.3361  0.3126
19528TIP3    H180075   4.126   3.622  15.656  0.8166  1.5374 -2.0412
19528TIP3    H280076   4.003   3.534  15.646  1.4374  0.0287  1.7104
19529TIP3   OH280077   5.267   4.364  16.601  0.0495  0.2015  0.2558
19529TIP3    H180078   5.302   4.278  16.580 -0.0676  0.3307 -0.4983
19529TIP3    H280079   5.329   4.401  16.664  0.1307 -0.4035  0.5337
19530TIP3   OH280080   4.984   2.869   0.773 -0.2231  0.3244 -0.4485
19530TIP3    H180081   5.036   2.946   0.753  0.4463 -0.3364 -1.3430
19530TIP3    H280082   4.958   2.880   0.864  3.6192 -0.5281  0.9069
19531TIP3   OH280083   3.292   4.609   2.011  0.8506  0.3497 -0.3918
19531TIP3    H180084   3.383   4.594   2.038  0.7663  0.0374 -0.2861
19531TIP3    H280085   3.296   4.618   1.916  0.9568  0.0906 -0.4111
19532TIP3   OH280086   3.842   0.904  13.177  0.5695  0.0182 -0.1474
19532TIP3    H180087   3.816   0.989  13.140  1.3395  0.1590 -0.3918
19532TIP3    H280088   3.912   0.926  13.238  0.9897 -0.4671 -0.4490
19533TIP3   OH280089   3.242   3.228   2.580  0.3529 -0.1798  0.2452
19533TIP3    H180090   3.178   3.297   2.600  1.2824  0.9976 -0.6587
19533TIP3    H280091   3.313   3.274   2.534  1.3078 -1.6436  0.1862
19534TIP3   OH280092   5.927   2.649   3.908  0.1740 -0.3527 -0.3903
19534TIP3    H180093   5.977   2.601   3.843  0.4533 -1.4646  0.6197
19534TIP3    H280094   5.888   2.721   3.859  0.3055 -1.2016 -1.8021
19535TIP3   OH280095   2.201   0.203   0.333  0.0265 -0.1214  0.1744
19535TIP3    H180096   2.161   0.121   0.305  0.8775 -0.1889 -0.9190
19535TIP3    H280097   2.294   0.182   0.344  0.2487  0.6851 -0.0840
19536TIP3   OH280098   2.799   2.295  14.886 -0.0768  0.1276 -0.3563
19536TIP3    H180099   2.718   2.341  14.910  0.7915  1.3604  0.3111
19536TIP3    H280100   2.770   2.227  14.825 -1.5916  0.6516 -0.2763
19537TIP3   OH280101   3.139   6.753  17.219  0.5749 -0.8042  0.3953
19537TIP3    H180102   3.204   6.818  17.248 -1.4648  0.6539  2.0138
19537TIP3    H280103   3.103   6.717  17.300  0.0103 -2.2858 -0.4746
19538TIP3   OH280104   5.564   4.650   2.204 -0.1791  0.0466 -0.1488
19538TIP3    H180105   5.523   4.581   2.256  0.5764  0.2005  0.6778
19538TIP3    H280106   5.549   4.624   2.114 -2.1925  0.1595  0.1039
19539TIP3   OH280107   5.940   6.053   0.911  0.0109  0.0892  0.4993
19539TIP3    H180108   5.971   5.964   0.895 -0.0249 -0.0550  1.2177
19539TIP3    H280109   5.845   6.044   0.916 -0.2052  0.5295 -1.7061
19540TIP3   OH280110   5.744   1.841  14.606 -0.4494  0.0885  0.1806
19540TIP3    H180111   5.751   1.789  14.687 -1.1997  1.4364  1.1405
19540TIP3    H280112   5.833   1.871  14.589 -0.4075  0.4215  0.9470
19541TIP3   OH280113   3.939   0.780   2.769  0.0265 -0.2700  0.0545
19541TIP3    H180114   3.972   0.698   2.806 -0.1000 -0.8697 -1.1119
19541TIP3    H280115   3.881   0.752   2.698 -1.6237  0.7881  0.9268
19542TIP3   OH280116   4.900   3.512  13.659 -0.4503  0.1596 -0.1165
19542TIP3    H180117   4.847   3.561  13.596 -0.8485  1.5350  1.2267
19542TIP3    H280118   4.984   3.500  13.615 -1.2688 -0.5060 -1.5927
19543TIP3   OH280119   5.014   3.230   1.242  0.1275  0.1032 -0.1137
19543TIP3    H180120   5.103   3.246   1.211  0.1419  0.4318  0.0991
19543TIP3    H280121   5.022   3.152   1.297  0.0498 -0.6676 -1.1663
19544TIP3   OH280122   0.709   4.656   3.843 -0.6129 -0.1725 -0.1103
19544TIP3    H180123   0.794   4.613   3.836 -0.3750  0.5489 -2.4781
19544TIP3    H280124   0.646   4.587   3.822 -0.5764 -0.5028  0.8273
19545TIP3   OH280125   5.136   0.683  12.571 -0.1716  0.2176  0.0789
19545TIP3    H180126   5.084   0.685  12.652  0.0139  0.4734  0.1938
19545TIP3    H280127   5.154   0.590  12.557  1.3931  0.2827  1.3788
19546TIP3   OH280128   2.239   1.366   3.932 -0.0790  0.2068  0.6181
19546TIP3    H180129   2.279   1.298   3.987 -1.1493 -1.5609 -0.6914
19546TIP3    H280130   2.147   1.366   3.958 -0.0621  1.3486  0.7381
19547TIP3   OH280131   6.212   1.622   3.749  0.1837 -0.2614 -0.2092
19547TIP3    H180132   6.230   1.708   3.711  1.6732  0.3202  1.6307
19547TIP3    H280133   6.273   1.563   3.705  1.3347  0.2485  0.6508
19548TIP3   OH280134   0.153   1.630  15.028  0.5014 -0.4396  0.4814
19548TIP3    H180135   0.153   1.719  15.062 -0.7307  0.3454 -1.4171
19548TIP3    H280136   0.193   1.577  15.098 -0.6658  1.2407  2.5197
19549TIP3   OH280137   0.827   2.577   2.951  0.3463  0.0259  0.7959
19549TIP3    H180138   0.837   2.612   2.863  0.2970  0.3029  0.8987
19549TIP3    H280139   0.733   2.578   2.966  0.0692 -2.8059 -0.2641
19550TIP3   OH280140   2.935   3.368  12.174  0.0123  0.3439 -0.0383
19550TIP3    H180141   2.963   3.277  12.191 -1.4672 -0.0465  0.4315
19550TIP3    H280142   3.017   3.416  12.165  0.9245 -1.4608 -2.8419
19551TIP3   OH280143   0.596   6.242   2.184  0.0180 -0.2410  0.2815
19551TIP3    H180144   0.551   6.255   2.100  1.2204 -0.0153 -0.3543
19551TIP3    H280145   0.617   6.331   2.214 -0.0285 -0.3372  0.5953
19552TIP3   OH280146   0.565   5.207   1.959 -0.3579  0.2370  0.5380
19552TIP3    H180147   0.562   5.296   1.923  2.3364  0.3957  0.4742
19552TIP3    H280148   0.638   5.209   2.020  1.4253 -2.5003 -1.2736
19553TIP3   OH280149   6.104   4.119  10.734  0.4208 -0.2917 -0.4385
19553TIP3    H180150   6.197   4.121  10.754  0.5822 -0.3166 -1.1745
19553TIP3    H280151   6.092   4.045  10.675 -0.0015 -0.0784 -0.6324
19554TIP3   OH280152   4.684   6.194   5.228 -0.1665  0.3948  0.0433
19554TIP3    H180153   4.606   6.249   5.222  0.7515  1.7038 -0.0330
19554TIP3    H280154   4.740   6.237   5.292  1.1988  0.3562 -1.0710
19555TIP3   OH280155   1.356   3.507  12.843  0.3474  0.2217  0.1433
19555TIP3    H180156   1.439   3.465  12.866  0.3633 -0.1706 -0.5937
19555TIP3    H280157   1.377   3.563  12.768 -0.1438 -0.2685 -0.3750
19556TIP3   OH280158   1.491   4.963   5.930 -0.6711 -0.7328  0.5108
19556TIP3    H180159   1.410   4.986   5.885 -1.1373 -0.0122  1.7000
19556TIP3    H280160   1.464   4.936   6.017  0.3371 -0.9740  0.7670
19557TIP3   OH280161   1.063   4.000   4.029 -0.0365 -0.0747 -0.4984
19557TIP3    H180162   1.079   4.071   3.966  0.3923  0.7965  0.5488
19557TIP3    H280163   1.143   3.998   4.083 -0.4340 -0.7217  0.0854
19558TIP3   OH280164   1.452   3.527  11.044  0.2283 -0.3265  0.1028
19558TIP3    H180165   1.485   3.462  10.983  1.5949  1.3417 -1.0394
19558TIP3    H280166   1.382   3.571  10.995 -0.6657 -0.8795  0.8525
19559TIP3   OH280167   6.702   5.312  15.402  0.3351 -0.3624 -0.0452
19559TIP3    H180168   6.750   5.387  15.367  1.2886 -0.7523  0.4223
19559TIP3    H280169   6.673   5.340  15.489 -2.2087  0.6821 -1.1328
19560TIP3   OH280170   5.473   2.323   0.367 -0.1305  0.0631 -0.2568
19560TIP3    H180171   5.441   2.234   0.381  0.6334  0.0432  1.7256
19560TIP3    H280172   5.475   2.333   0.272 -2.2552 -1.2687 -0.5285
19561TIP3   OH280173   3.975   1.031  11.690 -0.0604 -0.4205  0.0323
19561TIP3    H180174   3.929   0.948  11.705 -2.1206  0.7304  0.4179
19561TIP3    H280175   3.979   1.040  11.595  0.1509 -0.9334 -0.0115
19562TIP3   OH280176   6.811   0.420  16.746 -0.1470  0.0050  0.0888
19562TIP3    H180177   6.838   0.375  16.666 -0.0710 -1.2777  0.8065
19562TIP3    H280178   6.808   0.351  16.813 -0.9084  0.9139  1.0331
19563TIP3   OH280179   4.312   2.688   3.534 -0.0714 -0.0606  0.8419
19563TIP3    H180180   4.305   2.783   3.533 -1.4597 -0.1386 -0.4324
19563TIP3    H280181   4.403   2.671   3.560  1.3521  1.6943 -2.4010
19564TIP3   OH280182   0.505   5.492  12.898 -0.0521 -0.0364  0.4174
19564TIP3    H180183   0.414   5.505  12.872 -0.2748  0.4851  1.4093
19564TIP3    H280184   0.526   5.569  12.952  1.4636  0.6164 -1.0399
19565TIP3   OH280185   4.939   5.478  14.513  0.7007 -0.4764  0.3636
19565TIP3    H180186   5.033   5.490  14.501  0.6243 -0.3913 -0.1710
19565TIP3    H280187   4.919   5.396  14.468  0.5794 -0.7016  0.8122
19566TIP3   OH280188   2.387   3.522  15.375  0.4649  0.2355 -0.7913
19566TIP3    H180189   2.344   3.512  15.290  0.5095  0.4599 -0.8406
19566TIP3    H280190   2.478   3.540  15.353 -0.1791  4.2919 -0.8518
19567TIP3   OH280191   2.806   0.251  13.454 -0.5629  0.8854  0.5746
19567TIP3    H180192   2.760   0.316  13.401 -0.9311 -0.0537 -0.2826
19567TIP3    H280193   2.740   0.184  13.472  0.4752 -0.5747 -0.8074
19568TIP3   OH280194   2.880   5.096   0.853 -0.3066 -0.0123  0.3499
19568TIP3    H180195   2.946   5.040   0.892  0.4628 -0.8908 -2.0242
19568TIP3    H280196   2.832   5.038   0.793 -1.1927  1.3047 -0.2650
19569TIP3   OH280197   0.364   5.033  13.631 -1.1786  0.1611 -0.2244
19569TIP3    H180198   0.313   4.971  13.684 -0.7464 -0.0069  0.0023
19569TIP3    H280199   0.439   5.055  13.686 -1.3528  0.9337 -0.2851
19570TIP3   OH280200   4.775   6.185   3.551  0.4044 -0.0081  0.1381
19570TIP3    H180201   4.763   6.154   3.461 -2.3587  0.6251  0.1894
19570TIP3    H280202   4.702   6.145   3.600  2.2023 -0.8689  2.2882
19571TIP3   OH280203   6.246   0.843   1.512  0.1974  0.5015 -0.3350
19571TIP3    H180204   6.216   0.933   1.496  0.2500  0.3960 -1.0576
19571TIP3    H280205   6.333   0.840   1.472 -0.3454 -0.2455 -1.5189
19572TIP3   OH280206   2.650   0.719   3.266  0.2702 -0.6301 -0.3953
19572TIP3    H180207   2.647   0.674   3.182 -2.1274  1.7504 -1.7492
19572TIP3    H280208   2.616   0.807   3.247  0.1514  0.1855  2.9706
19573TIP3   OH280209   3.048   1.216  11.545 -0.3754  0.4905  0.1781
19573TIP3    H180210   2.978   1.255  11.491 -0.8218  1.0152  1.1135
19573TIP3    H280211   3.007   1.202  11.630  0.4368  0.0311  0.5005
19574TIP3   OH280212   3.179   5.051   1.563  0.7938 -0.4235  0.4443
19574TIP3    H180213   3.223   4.996   1.629  2.0860  1.6019  1.3656
19574TIP3    H280214   3.184   5.139   1.599  0.7325  0.6247 -1.9847
19575TIP3   OH280215   3.251   2.768  13.626  0.1598 -0.0403 -0.2865
19575TIP3    H180216   3.300   2.843  13.591 -1.1444  0.5181 -0.9676
19575TIP3    H280217   3.313   2.725  13.685  0.4070  2.6550  1.6261
19576TIP3   OH280218   6.304   2.571   3.683  0.4246  0.1820 -0.0123
19576TIP3    H180219   6.365   2.505   3.650  1.9704  1.6176 -0.1482
19576TIP3    H280220   6.276   2.538   3.768  1.8761 -0.2244  0.3294
19577TIP3   OH280221   6.525   5.232  13.390  0.0618  0.9216  0.2010
19577TIP3    H180222   6.509   5.250  13.297  0.2749  0.1970  0.0164
19577TIP3    H280223   6.516   5.137  13.398  0.8242  0.8863  0.7704
19578TIP3   OH280224   4.399   1.197   6.531  0.6251 -0.3296 -0.5775
19578TIP3    H180225   4.335   1.204   6.461  0.5656  1.8388 -0.3581
19578TIP3    H280226   4.478   1.237   6.496  0.2101  2.0065  0.9764
19579TIP3   OH280227   0.414   2.733   1.243 -0.4150 -0.1912 -0.6682
19579TIP3    H180228   0.434   2.666   1.177 -1.3356 -1.0335 -0.1153
19579TIP3    H280229   0.374   2.685   1.315 -0.2648  0.8431  0.1324
19580TIP3   OH280230   1.486   4.866  12.941  0.1363  0.2810 -0.3290
19580TIP3    H180231   1.430   4.941  12.918 -0.0340  0.0391 -0.7189
19580TIP3    H280232   1.500   4.874  13.035 -3.2593 -1.4268  0.4937
19581TIP3   OH280233   6.553   1.091  13.338  0.1056  0.5046  0.1183
19581TIP3    H180234   6.549   1.000  13.310 -1.4533  0.9025 -1.0791
19581TIP3    H280235   6.529   1.088  13.431  0.9436 -0.3751  0.3230
19582TIP3   OH280236   4.755   1.512  14.608 -0.1476 -0.3600 -0.0308
19582TIP3    H180237   4.682   1.561  14.568 -0.2036  0.1786  0.7122
19582TIP3    H280238   4.832   1.542  14.560 -0.1388  0.7260  0.6357
19583TIP3   OH280239   2.368   6.762  13.742 -0.0754 -0.4130 -0.0468
19583TIP3    H180240   2.444   6.809  13.777  0.4417 -1.9630  1.0285
19583TIP3    H280241   2.384   6.754  13.648 -0.0299  1.2380 -0.2002
19584TIP3   OH280242   2.135   2.973  17.159  0.0376 -0.3839 -0.0613
19584TIP3    H180243   2.149   2.914  17.233 -1.1382 -1.1564 -0.4229
19584TIP3    H280244   2.155   2.921  17.081 -0.2694 -0.0705 -0.3541
19585TIP3   OH280245   6.310   0.863   1.212  0.6271  0.3040  0.0308
19585TIP3    H180246   6.330   0.783   1.261 -0.5986  0.6157  1.0960
19585TIP3    H280247   6.361   0.931   1.255  0.5496  0.3480  0.0539
19586TIP3   OH280248   5.111   2.345  14.710  0.8093  0.1410 -0.1352
19586TIP3    H180249   5.091   2.438  14.696 -1.5624 -0.0813  1.2540
19586TIP3    H280250   5.107   2.306  14.622 -1.8191  0.7734 -0.3905
19587TIP3   OH280251   2.760   3.443  13.983  0.3134 -0.2720  0.0860
19587TIP3    H180252   2.732   3.356  13.953  1.5375  0.0162 -2.1176
19587TIP3    H280253   2.680   3.497  13.976  0.2473 -0.5304 -1.5950
19588TIP3   OH280254   5.281   4.326   3.300 -0.6071 -0.2643 -0.3599
19588TIP3    H180255   5.294   4.311   3.393 -2.5492 -3.0887 -0.4079
19588TIP3    H280256   5.193   4.364   3.295 -0.5345 -0.1787 -1.0403
19589TIP3   OH280257   0.945   1.114   0.883 -0.4244  0.7134  0.0167
19589TIP3    H180258   1.013   1.076   0.939 -1.6048 -0.8237  0.4893
19589TIP3    H280259   0.976   1.098   0.794  1.0472  2.3827  0.1883
19590TIP3   OH280260   2.729   0.196  12.187  0.6303  0.2364  0.4340
19590TIP3    H180261   2.713   0.136  12.114  1.3841 -0.6203  0.9632
19590TIP3    H280262   2.788   0.263  12.151 -0.8563  1.1672 -0.3926
19591TIP3   OH280263   5.479   0.436  16.750 -0.0814  0.4006  0.2619
19591TIP3    H180264   5.541   0.410  16.818 -1.0274  0.6060  1.2152
19591TIP3    H280265   5.465   0.357  16.698  0.9071  0.3308  0.0664
19592TIP3   OH280266   4.839   2.462   4.571  0.3671 -0.0403 -0.1750
19592TIP3    H180267   4.863   2.370   4.559 -0.8297 -0.1466 -2.2483
19592TIP3    H280268   4.890   2.509   4.505  1.2086  0.8671  1.0772
19593TIP3   OH280269   4.845   2.350   2.908  0.1267  0.3470 -0.1427
19593TIP3    H180270   4.897   2.304   2.974 -0.3731  0.3246  0.2413
19593TIP3    H280271   4.857   2.442   2.927  1.0283  0.3830 -0.8350
19594TIP3   OH280272   3.336   4.203   1.456  0.3952 -0.6504  0.9796
19594TIP3    H180273   3.408   4.214   1.394 -1.6244  0.0496 -1.4019
19594TIP3    H280274   3.324   4.290   1.495  0.5661 -0.6623  1.0587
19595TIP3   OH280275   2.441   5.693  16.641 -0.2117  0.8567 -0.1395
19595TIP3    H180276   2.352   5.726  16.654 -1.0146 -1.8223  2.2185
19595TIP3    H280277   2.442   5.662  16.551 -2.8346 -1.8167  0.5753
19596TIP3   OH280278   3.012   0.074  13.449 -0.3837  0.0266  0.1011
19596TIP3    H180279   3.064   0.099  13.373 -0.7049 -0.4384 -0.2801
19596TIP3    H280280   2.939   0.136  13.449 -1.9982 -1.7262 -1.7165
19597TIP3   OH280281   0.988   1.739   2.474  0.1129 -0.7093  0.4147
19597TIP3    H180282   0.963   1.820   2.429 -0.2531 -1.2784 -0.4529
19597TIP3    H280283   1.065   1.707   2.426 -0.1808 -1.2380  0.2788
19598TIP3   OH280284   6.652   3.174  14.552 -0.4321 -0.0260 -0.5136
19598TIP3    H180285   6.570   3.125  14.564 -0.6151  0.1594 -1.0019
19598TIP3    H280286   6.711   3.112  14.510 -1.2366  0.6827 -2.8352
19599TIP3   OH280287   3.459   5.888  17.152  0.5054 -0.1719  0.0288
19599TIP3    H180288   3.366   5.869  17.166  0.9110 -1.4633  1.1989
19599TIP3    H280289   3.459   5.958  17.087 -1.2780 -0.2977 -0.1744
19600TIP3   OH280290   3.248   5.764  13.987  0.3291  0.6352  0.4335
19600TIP3    H180291   3.216   5.825  13.922  1.0206  1.1961  0.6141
19600TIP3    H280292   3.342   5.756  13.971  0.5246  0.8212  1.3778
19601TIP3   OH280293   0.596   6.656  13.072  0.8817 -0.3647  0.0688
19601TIP3    H180294   0.544   6.727  13.110  0.4848 -0.8879  0.5157
19601TIP3    H280295   0.649   6.623  13.145 -0.8996 -2.3016  0.5600
19602TIP3   OH280296   6.080   0.325  11.862  0.3624 -0.3721 -0.4485
19602TIP3    H180297   6.163   0.368  11.881  0.6445 -0.9260 -0.3959
19602TIP3    H280298   6.099   0.268  11.787 -0.1742  0.1023 -0.9521
19603TIP3   OH280299   0.575   1.041  14.401  0.9693  0.3929 -0.3559
19603TIP3    H180300   0.519   0.965  14.382  1.2149  0.4752 -1.4381
19603TIP3    H280301   0.652   1.003  14.445  0.5924  0.1515  0.1126
19604TIP3   OH280302   2.868   4.585  12.828  0.1454 -0.2380 -0.7433
19604TIP3    H180303   2.848   4.491  12.824 -0.9075 -0.0090 -1.2995
19604TIP3    H280304   2.782   4.627  12.822  0.3535  0.7357  1.7723
19605TIP3   OH280305   1.252   1.921   4.699  0.5842  0.0788  0.1801
19605TIP3    H180306   1.319   1.853   4.688  0.6551 -0.3811  2.6964
19605TIP3    H280307   1.274   1.962   4.783 -1.4064  0.9509  0.3190
19606TIP3   OH280308   3.438   0.245   1.173 -0.1602 -0.6767 -0.7962
19606TIP3    H180309   3.481   0.168   1.212  0.1283 -0.4584 -0.6747
19606TIP3    H280310   3.423   0.303   1.247  2.3260  0.6763 -1.2318
19607TIP3   OH280311   0.982   2.348   5.480  0.4101  0.5878 -0.6739
19607TIP3    H180312   0.890   2.356   5.504  0.5871  1.0688 -0.1098
19607TIP3    H280313   0.994   2.410   5.408 -0.6468 -2.4833 -3.7325
19608TIP3   OH280314   6.320   4.918   4.057 -0.0620  0.4974  0.1015
19608TIP3    H180315   6.343   4.840   4.006  0.1269  0.2304  0.5772
19608TIP3    H280316   6.242   4.953   4.015  0.7907  0.9979 -1.1077
19609TIP3   OH280317   0.756   4.995   5.205  0.2826  0.2625 -0.7518
19609TIP3    H180318   0.692   4.926   5.223  1.5473 -0.9035 -0.5180
19609TIP3    H280319   0.830   4.974   5.262  0.4173  2.2687 -0.1305
19610TIP3   OH280320   4.866   2.545  15.466 -0.2327  0.9574  0.1449
19610TIP3    H180321   4.803   2.511  15.402  0.0142 -0.6510  0.6937
19610TIP3    H280322   4.813   2.592  15.530 -0.9720 -0.6150  0.7518
19611TIP3   OH280323   6.043   0.866   5.779 -0.6658 -0.3596 -0.1438
19611TIP3    H180324   6.074   0.797   5.721  1.8121  0.2501  0.3614
19611TIP3    H280325   6.014   0.936   5.720 -0.3468 -0.6538 -0.6533
19612TIP3   OH280326   5.386   6.550  12.311  0.3654 -0.1583 -0.1996
19612TIP3    H180327   5.406   6.484  12.244 -0.9035 -0.7189 -0.0600
19612TIP3    H280328   5.297   6.528  12.340  1.0494 -0.1996  2.0123
19613TIP3   OH280329   4.396   6.417   6.042  0.2354 -0.7871 -0.3553
19613TIP3    H180330   4.313   6.433   6.087 -0.3681 -1.1737 -1.2898
19613TIP3    H280331   4.416   6.325   6.059  0.5926 -0.6346  0.0558
19614TIP3   OH280332   1.114   6.639   4.207  0.3417  0.4966  0.5804
19614TIP3    H180333   1.032   6.670   4.168  1.1598 -1.0764 -2.7015
19614TIP3    H280334   1.089   6.561   4.256 -0.1794  0.1063 -0.2840
19615TIP3   OH280335   3.239   4.024  16.166 -0.1978  0.1448 -0.1018
19615TIP3    H180336   3.294   4.056  16.094 -2.5972  1.6878 -1.3709
19615TIP3    H280337   3.152   4.014  16.127 -1.1919 -0.7749  2.1790
19616TIP3   OH280338   5.289   1.707  12.114 -0.0042  0.0751  0.2521
19616TIP3    H180339   5.276   1.794  12.153  0.3069 -0.2547  1.1179
19616TIP3    H280340   5.206   1.662  12.129 -0.2424  0.2920 -0.3938
19617TIP3   OH280341   6.264   4.619   1.930  0.3591 -0.0550 -0.0871
19617TIP3    H180342   6.171   4.640   1.920  0.8323  1.0242 -2.8744
19617TIP3    H280343   6.267   4.524   1.929 -0.6237 -0.1000 -1.4089
19618TIP3   OH280344   0.704   0.743  15.524 -0.1033  0.5095  0.6084
19618TIP3    H180345   0.690   0.668  15.466 -1.7411  1.8291 -0.7931
19618TIP3    H280346   0.798   0.743  15.541 -0.0239 -1.7181  0.5084
19619TIP3   OH280347   4.196   6.573   4.855  0.1219  0.4374  0.2480
19619TIP3    H180348   4.252   6.622   4.794  0.0312  1.3943  0.9058
19619TIP3    H280349   4.121   6.631   4.870 -1.1843 -0.9126 -0.7828
19620TIP3   OH280350   1.269   3.917   2.859 -0.0327  0.0957 -0.0477
19620TIP3    H180351   1.325   3.911   2.781  0.8462  1.7959  0.3835
19620TIP3    H280352   1.245   3.827   2.879  2.9803 -0.8052 -0.0095
19621TIP3   OH280353   5.284   2.445   3.157 -0.4336 -0.5478  0.2420
19621TIP3    H180354   5.368   2.454   3.202  0.0164  2.0551 -0.9456
19621TIP3    H280355   5.227   2.510   3.199 -1.3606 -1.1301 -0.0671
19622TIP3   OH280356   6.706   3.457  15.934 -0.3455 -0.1214 -0.8034
19622TIP3    H180357   6.624   3.424  15.972 -1.0390 -0.0959 -2.2230
19622TIP3    H280358   6.705   3.551  15.953 -0.1839 -0.2736 -0.0104
19623TIP3   OH280359   4.936   1.934  13.935 -0.3981 -0.3886 -0.1364
19623TIP3    H180360   4.968   2.024  13.934  1.8800 -1.1476  0.2001
19623TIP3    H280361   4.892   1.924  13.850  0.2806  0.7096 -0.6425
19624TIP3   OH280362   0.242   6.273   3.058 -0.0927  0.1385 -0.5978
19624TIP3    H180363   0.308   6.212   3.025 -1.5243 -1.1290 -1.2504
19624TIP3    H280364   0.238   6.342   2.991  1.4543  0.9355  0.0881
19625TIP3   OH280365   5.998   5.667   5.063  0.1195  0.5276  0.1804
19625TIP3    H180366   5.978   5.605   4.993  1.3812 -1.2905  1.3327
19625TIP3    H280367   6.077   5.712   5.033 -0.7600  1.5970 -0.6291
19626TIP3   OH280368   6.005   5.609   0.115  0.3674 -0.3303  0.0083
19626TIP3    H180369   6.059   5.638   0.188  0.3303  0.7071 -0.3574
19626TIP3    H280370   6.064   5.612   0.039 -0.0557  0.3616 -0.3109
19627TIP3   OH280371   1.294   4.829   1.030  0.4185  0.7484 -0.2136
19627TIP3    H180372   1.302   4.749   1.082 -1.8725 -0.6257 -1.7693
19627TIP3    H280373   1.384   4.853   1.009  1.1884 -1.3707  0.3894
19628TIP3   OH280374   6.739   5.531   0.953 -0.1422  0.0494 -0.5238
19628TIP3    H180375   6.761   5.535   0.860  1.6486 -1.2904 -0.2100
19628TIP3    H280376   6.822   5.512   0.997 -0.5543  2.4792  1.5707
19629TIP3   OH280377   0.751   5.602  15.326  0.5995  0.0937 -0.3724
19629TIP3    H180378   0.835   5.555  15.325  0.6550  0.1910 -1.2480
19629TIP3    H280379   0.704   5.566  15.401  1.0616 -0.6224 -0.4144
19630TIP3   OH280380   4.500   3.912  12.799 -0.2273  0.0518  0.3092
19630TIP3    H180381   4.470   3.849  12.865  0.4897 -2.4933 -1.6319
19630TIP3    H280382   4.492   3.997  12.842 -0.9067 -1.3545  3.2301
19631TIP3   OH280383   4.741   0.118   1.438 -0.4603 -0.2643  0.4094
19631TIP3    H180384   4.673   0.094   1.375  0.6747 -1.1103 -0.5321
19631TIP3    H280385   4.767   0.207   1.412 -0.5827 -0.2805  0.2279
19632TIP3   OH280386   4.456   5.153   2.413  0.4093  0.4433  0.8453
19632TIP3    H180387   4.464   5.135   2.319  1.3314  1.2027  0.7649
19632TIP3    H280388   4.444   5.067   2.453  2.2199 -0.1372  0.2397
19633TIP3   OH280389   6.340   1.322  14.467 -0.5921 -0.2196 -0.3400
19633TIP3    H180390   6.431   1.345  14.486  0.2175 -0.7319 -3.0591
19633TIP3    H280391   6.344   1.230  14.441 -1.4545  0.2858 -2.5555
19634TIP3   OH280392   6.336   4.103  11.084 -0.0076  0.2039 -0.1414
19634TIP3    H180393   6.331   4.081  10.991  0.6438 -0.5839 -0.0027
19634TIP3    H280394   6.402   4.173  11.088  0.2188 -0.0012 -0.2386
19635TIP3   OH280395   5.986   4.041   5.275  0.3727 -0.4380  0.4176
19635TIP3    H180396   6.017   4.126   5.306  0.0932  0.3698 -1.3936
19635TIP3    H280397   5.918   4.016   5.337  0.8736  0.3682  1.3110
19636TIP3   OH280398   2.928   2.344  12.233 -0.4974 -0.1135  0.5561
19636TIP3    H180399   2.872   2.296  12.172 -0.0907  0.3728 -0.2173
19636TIP3    H280400   2.931   2.289  12.311 -1.1877 -0.6537  0.2195
19637TIP3   OH280401   2.632   0.354   1.890 -0.1920  0.2471 -0.2067
19637TIP3    H180402   2.545   0.351   1.851 -0.4236  2.2443  0.0772
19637TIP3    H280403   2.629   0.290   1.961 -0.7153 -1.2415 -1.4844
19638TIP3   OH280404   6.187   4.496   1.639  0.2305  0.2361  0.4054
19638TIP3    H180405   6.128   4.566   1.665 -2.2405 -1.2611 -0.8105
19638TIP3    H280406   6.155   4.468   1.553  2.3400 -1.0932 -0.0307
19639TIP3   OH280407   3.991   4.656  11.259 -0.8265 -0.1717 -0.0385
19639TIP3    H180408   3.996   4.622  11.348 -0.7267  1.0132  0.4331
19639TIP3    H280409   4.083   4.668  11.233 -0.8349 -1.2437 -0.6086
19640TIP3   OH280410   1.364   2.307   2.156  0.3117  1.3720  0.4532
19640TIP3    H180411   1.375   2.400   2.137  0.4900  1.3537  0.4718
19640TIP3    H280412   1.294   2.305   2.222  0.1466  1.4769  0.2809
19641TIP3   OH280413   2.726   0.904   5.023  0.0982 -0.0999  0.1169
19641TIP3    H180414   2.721   0.813   5.053  1.2276 -0.2158  0.0002
19641TIP3    H280415   2.650   0.946   5.063  0.1863 -0.8304  1.1154
19642TIP3   OH280416   1.654   1.383  11.177  0.1756 -0.1592  0.0275
19642TIP3    H180417   1.609   1.346  11.102  2.6249  1.0003 -2.1887
19642TIP3    H280418   1.708   1.312  11.211 -1.0475 -0.7273  0.8425
19643TIP3   OH280419   1.486   2.591   1.080  0.1860  0.2403  0.6635
19643TIP3    H180420   1.561   2.602   1.137 -0.9837  0.7702  2.1769
19643TIP3    H280421   1.491   2.663   1.018 -0.2645  1.6649  2.1970
19644TIP3   OH280422   6.762   3.328   3.653 -0.2959 -0.0591 -0.3783
19644TIP3    H180423   6.666   3.321   3.651 -0.3609  0.3493  0.5690
19644TIP3    H280424   6.786   3.300   3.741  0.3114  1.3012 -0.0771
19645TIP3   OH280425   2.358   3.806   0.362  0.2207  1.0396  0.8262
19645TIP3    H180426   2.322   3.744   0.299 -0.1373  2.9515 -0.9811
19645TIP3    H280427   2.292   3.812   0.431  1.7198 -3.0006  2.9289
19646TIP3   OH280428   1.546   5.846  12.505  0.1064  0.1362  0.5915
19646TIP3    H180429   1.578   5.902  12.576  1.1565 -1.5590  1.5057
19646TIP3    H280430   1.466   5.889  12.475  0.7353  1.9808  1.4061
19647TIP3   OH280431   1.655   4.847   1.800  0.2653 -0.3322 -0.7650
19647TIP3    H180432   1.745   4.874   1.817 -0.0835  0.5094 -0.1810
19647TIP3    H280433   1.653   4.823   1.707  0.9053  0.3963 -0.9681
19648TIP3   OH280434   2.120   0.505   1.880 -0.5558  0.6216 -0.1379
19648TIP3    H180435   2.105   0.424   1.831 -0.2690  0.4942 -0.0113
19648TIP3    H280436   2.077   0.490   1.964  1.1703 -0.1640  0.6482
19649TIP3   OH280437   1.121   0.329  16.745  0.3706  0.3000 -0.1455
19649TIP3    H180438   1.121   0.241  16.707 -0.5750  0.7423 -1.2197
19649TIP3    H280439   1.183   0.378  16.693 -0.0898  0.6129 -0.4095
19650TIP3   OH280440   5.803   6.800   6.167  0.1993 -0.2240 -0.1001
19650TIP3    H180441   5.790   6.747   6.246  1.3730  0.7329  0.7696
19650TIP3    H280442   5.856   6.874   6.196 -0.0420  0.5908 -1.6272
19651TIP3   OH280443   4.714   4.783  15.396  0.0096 -0.5003 -0.1934
19651TIP3    H180444   4.778   4.751  15.459 -1.6251 -1.4897  1.0685
19651TIP3    H280445   4.674   4.859  15.439 -0.7998 -0.9143 -0.1753
19652TIP3   OH280446   0.982   5.972   4.385  0.1403 -0.5878  0.2098
19652TIP3    H180447   0.896   5.966   4.428 -0.8067  0.4698 -1.4202
19652TIP3    H280448   0.993   5.888   4.341  1.0272 -1.6043  2.2504
19653TIP3   OH280449   4.433   1.841  15.887  0.4777  0.0952  0.5037
19653TIP3    H180450   4.513   1.847  15.940 -0.1775  0.9597  1.4359
19653TIP3    H280451   4.390   1.761  15.916 -0.9442  1.6102  2.9117
19654TIP3   OH280452   4.761   0.242   6.133 -0.2253 -0.2957 -0.3408
19654TIP3    H180453   4.758   0.270   6.225 -0.0736  0.5851 -0.5883
19654TIP3    H280454   4.845   0.197   6.124  0.6935  1.3367 -0.4854
19655TIP3   OH280455   0.416   0.099  13.115 -0.0675  0.8395 -0.3348
19655TIP3    H180456   0.386   0.190  13.123 -0.8418  0.5141  0.6059
19655TIP3    H280457   0.337   0.046  13.124  0.5653  0.0137  0.7128
19656TIP3   OH280458   6.022   1.194   4.833 -0.4449 -0.2165  0.1639
19656TIP3    H180459   6.106   1.235   4.812 -1.2958  0.6820 -1.6860
19656TIP3    H280460   6.045   1.103   4.854  1.1706  0.4777  1.6400
19657TIP3   OH280461   5.797   5.028   3.470 -0.8271 -0.6474 -0.0183
19657TIP3    H180462   5.877   5.077   3.489 -1.2214  0.7878 -1.7558
19657TIP3    H280463   5.727   5.081   3.508 -1.2746  0.3082 -2.0620
19658TIP3   OH280464   3.551   6.027   6.117  0.1233  0.5132  0.2937
19658TIP3    H180465   3.457   6.044   6.110  0.1571  0.2978 -0.7656
19658TIP3    H280466   3.557   5.948   6.170 -0.2500  0.9117  0.9573
19659TIP3   OH280467   5.033   0.944   4.989  0.2844  0.1642 -0.0893
19659TIP3    H180468   5.066   0.981   5.071 -0.1799  2.2814 -0.8184
19659TIP3    H280469   4.949   0.904   5.013 -0.0066  1.0620  0.4143
19660TIP3   OH280470   0.047   6.624  13.509 -0.4974  0.5518 -0.0389
19660TIP3    H180471   0.043   6.546  13.564 -1.0084 -0.0097 -0.8540
19660TIP3    H280472  -0.023   6.681  13.543 -0.5497  0.3827  0.1405
19661TIP3   OH280473   6.673   5.399   3.129  0.2345  0.5632 -0.1134
19661TIP3    H180474   6.695   5.338   3.058 -1.2216  0.0608 -0.1502
19661TIP3    H280475   6.580   5.386   3.145  0.6350  0.2597  2.2974
19662TIP3   OH280476   1.035   3.047  13.360  0.9424  0.3408  0.1330
19662TIP3    H180477   1.025   3.042  13.456 -0.2400 -0.8301 -0.0255
19662TIP3    H280478   1.066   2.961  13.334 -0.0787  0.1982 -0.6709
19663TIP3   OH280479   3.518   3.817  16.144 -0.0302  0.0125  0.2597
19663TIP3    H180480   3.470   3.781  16.069  0.2497  0.1902 -0.0102
19663TIP3    H280481   3.593   3.862  16.104 -0.5966  1.2551  0.5490
19664TIP3   OH280482   6.110   5.516  11.714 -0.1441  0.0877 -0.2221
19664TIP3    H180483   6.017   5.498  11.723 -0.2937 -0.2311 -2.0336
19664TIP3    H280484   6.124   5.523  11.619  1.8051 -0.5969 -0.0303
19665TIP3   OH280485   0.956   4.250  12.946 -0.1223  0.1924 -0.9344
19665TIP3    H180486   0.882   4.293  12.989 -0.6796  0.2003 -1.8814
19665TIP3    H280487   0.995   4.196  13.015 -1.7544 -0.7684 -0.7067
19666TIP3   OH280488   3.488   0.864   4.546 -0.3450 -0.1623  0.5993
19666TIP3    H180489   3.410   0.830   4.503  0.7361  0.2167 -1.7971
19666TIP3    H280490   3.466   0.955   4.568 -1.0492 -0.4820  1.2506
19667TIP3   OH280491   3.594   6.346   2.907 -0.3599  0.0442  0.2597
19667TIP3    H180492   3.651   6.270   2.912  0.3016  0.4761 -0.4511
19667TIP3    H280493   3.595   6.383   2.996  2.4681  1.4463 -0.2604
19668TIP3   OH280494   5.627   6.417   2.367 -0.2980 -0.2533  0.0823
19668TIP3    H180495   5.684   6.493   2.374 -1.3543  0.6530 -0.8551
19668TIP3    H280496   5.555   6.445   2.311 -0.0387 -2.3664 -1.4384
19669TIP3   OH280497   1.294   0.423  11.672  0.4602  0.1886  0.1470
19669TIP3    H180498   1.207   0.385  11.684  1.0005 -1.3626 -0.5546
19669TIP3    H280499   1.292   0.461  11.584  0.3237  0.6797  0.3566
19670TIP3   OH280500   6.521   5.721   1.500 -0.4439  0.4796 -0.6573
19670TIP3    H180501   6.480   5.767   1.573  1.1580  0.2224  0.4679
19670TIP3    H280502   6.508   5.629   1.519 -1.6166  0.4034 -1.6948
19671TIP3   OH280503   0.825   1.461  10.310 -0.1415 -0.9795  0.1777
19671TIP3    H180504   0.737   1.499  10.308  0.2503  0.0621  1.6101
19671TIP3    H280505   0.810   1.367  10.298 -1.3168 -0.6778 -1.0442
19672TIP3   OH280506   1.377   2.172   2.524  0.3730 -0.1185 -0.1891
19672TIP3    H180507   1.366   2.088   2.478  2.1852 -0.3146 -0.3371
19672TIP3    H280508   1.382   2.148   2.617  3.8978 -0.6463 -0.3657
19673TIP3   OH280509   6.017   5.639  16.523  0.1593  0.6786 -0.5871
19673TIP3    H180510   5.999   5.725  16.487  2.1207  1.1519 -0.5480
19673TIP3    H280511   6.083   5.601  16.465 -1.1596 -1.0999 -0.9958
19674TIP3   OH280512   4.015   5.070   5.733 -0.5298 -0.6813  0.5288
19674TIP3    H180513   4.096   5.042   5.775 -0.5801 -2.1063 -0.2572
19674TIP3    H280514   3.959   4.992   5.735 -0.9740 -0.4391 -1.0564
19675TIP3   OH280515   5.685   0.164   5.826  0.0491  0.2023 -0.1059
19675TIP3    H180516   5.639   0.165   5.742  0.8426  0.7705 -0.5545
19675TIP3    H280517   5.644   0.234   5.876 -0.4640 -0.1745  0.0003
19676TIP3   OH280518   6.616   0.955  13.607  0.0910 -0.5871 -0.2583
19676TIP3    H180519   6.675   0.914  13.670  0.4658  1.0957  0.5461
19676TIP3    H280520   6.562   0.883  13.574  0.6390 -1.6913  1.1516
19677TIP3   OH280521   1.830   5.560  16.089 -0.0625 -0.3424  0.3471
19677TIP3    H180522   1.859   5.602  16.008  0.3517  0.8860  1.1115
19677TIP3    H280523   1.740   5.589  16.100  0.2385  0.4209  0.8999
19678TIP3   OH280524   5.471   2.855   5.006 -0.3170 -0.6157  0.1559
19678TIP3    H180525   5.565   2.873   5.004 -0.3447 -0.2885  1.1991
19678TIP3    H280526   5.431   2.939   5.027 -0.8726 -0.6963 -0.5478
19679TIP3   OH280527   4.739   0.877  14.472  0.1641  0.1156  0.4326
19679TIP3    H180528   4.704   0.788  14.473 -1.0331  0.5677  0.5676
19679TIP3    H280529   4.815   0.872  14.414 -1.0622 -0.5932 -1.2136
19680TIP3   OH280530   1.759   5.399  11.588 -0.9187 -0.0567 -0.4119
19680TIP3    H180531   1.819   5.413  11.515 -0.5975 -0.1212 -0.1684
19680TIP3    H280532   1.816   5.402  11.666 -1.3858  0.9284 -0.0961
19681TIP3   OH280533   6.446   1.040   0.669  0.1197 -0.0691 -0.1608
19681TIP3    H180534   6.421   0.948   0.659  1.7140 -0.4131 -1.4628
19681TIP3    H280535   6.389   1.073   0.738 -1.8343 -1.5026 -0.9985
19682TIP3   OH280536   2.118   1.666   0.979  0.2493  0.0349  0.2543
19682TIP3    H180537   2.167   1.744   0.951  0.0683  0.1610  0.2842
19682TIP3    H280538   2.185   1.605   1.008  0.4667 -0.1667 -0.6199
19683TIP3   OH280539   2.925   3.669  12.661 -0.4344 -0.2360 -0.3938
19683TIP3    H180540   2.881   3.679  12.577 -1.2171 -0.2574  0.0023
19683TIP3    H280541   2.939   3.575  12.671  2.8909 -0.0711 -2.0889
19684TIP3   OH280542   5.978   0.744  12.014  0.3963 -0.1724  0.2475
19684TIP3    H180543   6.003   0.693  12.091 -1.9347 -0.7759  0.6885
19684TIP3    H280544   5.884   0.731  12.007  0.6106 -0.6609 -3.1046
19685TIP3   OH280545   3.159   3.521   2.953 -0.7325 -0.4403  0.3763
19685TIP3    H180546   3.191   3.568   2.876 -0.3325 -2.7769 -0.9403
19685TIP3    H280547   3.173   3.429   2.934 -2.1825 -1.2022  2.5638
19686TIP3   OH280548   3.447   0.308   2.203 -0.3626  0.1327 -0.0474
19686TIP3    H180549   3.360   0.334   2.172 -0.6907 -0.2552  0.5233
19686TIP3    H280550   3.470   0.374   2.268 -0.1689  0.3124 -0.2983
19687TIP3   OH280551   4.619   1.771  16.569  0.2430 -0.4481  0.3927
19687TIP3    H180552   4.557   1.709  16.530 -0.3674 -0.3377  1.1585
19687TIP3    H280553   4.630   1.838  16.502 -0.0777 -0.7290  0.0518
19688TIP3   OH280554   3.724   1.982  16.565  0.2597  0.3131 -0.1657
19688TIP3    H180555   3.672   2.023  16.633  1.1828  1.8368 -0.3440
19688TIP3    H280556   3.702   1.889  16.571  0.2598  0.4066  2.1479
19689TIP3   OH280557   6.490   6.644  15.298 -0.2588 -0.0530 -0.0609
19689TIP3    H180558   6.442   6.596  15.366 -0.6660  0.9060  0.3517
19689TIP3    H280559   6.453   6.611  15.216 -1.6979  0.7041  0.2496
19690TIP3   OH280560   1.943   5.841   6.341  0.0567 -0.3803 -0.1096
19690TIP3    H180561   1.875   5.895   6.382 -0.0567 -0.9974  0.5319
19690TIP3    H280562   1.953   5.767   6.400  3.4199  1.1061  1.4723
19691TIP3   OH280563   3.614   6.660  11.571 -0.2194 -0.5653 -0.1687
19691TIP3    H180564   3.585   6.657  11.480  1.6321  1.0858 -0.8778
19691TIP3    H280565   3.609   6.569  11.601  1.1749 -1.5297 -2.5947
19692TIP3   OH280566   3.144   2.021  10.514  0.3296  0.0539  0.5860
19692TIP3    H180567   3.113   1.959  10.580 -0.2530 -0.7737 -0.4313
19692TIP3    H280568   3.232   1.989  10.493 -0.4988 -1.3635 -0.9783
19693TIP3   OH280569   3.949   2.090  11.488 -0.7897  0.2213  0.3960
19693TIP3    H180570   3.987   2.002  11.482 -0.6635  0.2283  0.9890
19693TIP3    H280571   3.863   2.075  11.528 -0.5538  0.4175  0.9885
19694TIP3   OH280572   3.406   4.518   0.025  0.0971 -0.3227 -0.5046
19694TIP3    H180573   3.445   4.559   0.102  1.6691  2.2765 -2.5289
19694TIP3    H280574   3.312   4.531   0.035  0.3957  1.6483  0.1484
19695TIP3   OH280575   0.758   2.866   5.470 -0.1398  0.2812  0.0665
19695TIP3    H180576   0.744   2.786   5.520 -0.8870  0.1810 -0.2872
19695TIP3    H280577   0.852   2.868   5.454 -0.2140 -1.0001 -0.6845
19696TIP3   OH280578   2.044   6.787   6.244  0.0965  0.0453  0.4463
19696TIP3    H180579   2.010   6.868   6.282 -0.1536  0.3221 -0.3601
19696TIP3    H280580   1.974   6.755   6.188  0.4406 -0.3889  0.2582
19697TIP3   OH280581   0.537   0.012  14.097  0.6032  0.6518  0.2202
19697TIP3    H180582   0.580   0.064  14.029 -0.4646  1.9122  0.4538
19697TIP3    H280583   0.520   0.075  14.168 -2.5113  0.5459 -0.2754
19698TIP3   OH280584   3.245   2.686  15.485 -0.6000 -0.4154  0.1622
19698TIP3    H180585   3.183   2.619  15.514 -0.2302 -0.1863  1.5717
19698TIP3    H280586   3.331   2.652  15.512 -0.2737  0.0153 -0.3187
19699TIP3   OH280587   6.615   6.739  14.368  0.1374  0.0501  0.4256
19699TIP3    H180588   6.597   6.766  14.277 -1.8987 -3.1916 -0.3219
19699TIP3    H280589   6.540   6.685  14.391 -0.3406  2.1778  4.8172
19700TIP3   OH280590   3.951   1.416  15.311  0.1218  0.0170 -0.2814
19700TIP3    H180591   3.979   1.330  15.279  2.2280  0.8300 -0.7639
19700TIP3    H280592   3.928   1.465  15.232  2.8898  1.1913 -0.4564
19701TIP3   OH280593   1.308   4.221   0.834 -1.0828  0.5346  0.8906
19701TIP3    H180594   1.227   4.246   0.878 -2.6186 -1.6161 -0.5079
19701TIP3    H280595   1.323   4.130   0.860  0.2303  0.5226  0.1883
19702TIP3   OH280596   2.396   3.852   4.686 -0.2407 -0.3684 -0.0950
19702TIP3    H180597   2.308   3.842   4.651 -0.2476 -0.1485 -0.1437
19702TIP3    H280598   2.386   3.913   4.760  0.2094  1.6507 -1.5909
19703TIP3   OH280599   5.399   3.854  10.800  0.2202  0.5266  0.0811
19703TIP3    H180600   5.410   3.760  10.781 -1.8444  0.1125  0.6847
19703TIP3    H280601   5.331   3.883  10.739  1.3480  1.8402 -0.5994
19704TIP3   OH280602   6.110   1.803   2.372  0.0933 -0.1920  0.0766
19704TIP3    H180603   6.107   1.835   2.281  3.1950 -2.9615 -1.2097
19704TIP3    H280604   6.049   1.730   2.373 -0.0046 -0.1079  0.2554
19705TIP3   OH280605   0.841   1.182  13.715  0.4196 -0.0195  0.0285
19705TIP3    H180606   0.907   1.250  13.728 -0.0744  0.5471 -0.3567
19705TIP3    H280607   0.886   1.100  13.735  0.3687  0.5670  2.9925
19706TIP3   OH280608   4.021   2.681   3.947  0.5294 -0.5565  0.2010
19706TIP3    H180609   3.966   2.676   3.869  0.4516 -1.6205  0.3099
19706TIP3    H280610   4.001   2.766   3.985  0.9035  0.1687 -1.1772
19707TIP3   OH280611   0.592   2.730   3.221 -0.2019 -0.9919 -0.4194
19707TIP3    H180612   0.501   2.718   3.246 -0.4469 -2.6516 -1.9409
19707TIP3    H280613   0.641   2.669   3.276 -0.1380 -0.9278 -0.4043
19708TIP3   OH280614   0.059   2.300   5.186  0.0383  0.3096 -0.2537
19708TIP3    H180615   0.012   2.382   5.177 -0.3379  0.3717  1.8237
19708TIP3    H280616  -0.008   2.232   5.173 -0.3733  0.3915  1.2264
19709TIP3   OH280617   1.503   2.788  14.139  0.9512  0.3657  0.2181
19709TIP3    H180618   1.417   2.827  14.155  1.1459  1.0960 -0.4513
19709TIP3    H280619   1.489   2.694  14.151 -0.2854  0.3251 -1.1588
19710TIP3   OH280620   2.806   6.397  15.843 -0.5704 -0.8987 -0.5684
19710TIP3    H180621   2.844   6.424  15.759  1.1722  0.2433  0.5459
19710TIP3    H280622   2.715   6.377  15.821 -0.4354  0.3207 -2.5640
19711TIP3   OH280623   6.410   5.544  15.270 -0.0315  0.4699  0.1308
19711TIP3    H180624   6.403   5.464  15.218  1.6696  0.1471  0.3191
19711TIP3    H280625   6.454   5.515  15.351 -4.5804  0.4602  2.9406
19712TIP3   OH280626   5.703   3.966   4.676  0.8039  0.4035 -0.0402
19712TIP3    H180627   5.709   3.924   4.762 -0.5298  1.1256  0.4495
19712TIP3    H280628   5.639   4.036   4.689  0.9601  0.8470 -1.5097
19713TIP3   OH280629   4.528   4.495  14.396 -0.2926 -0.1209  0.0379
19713TIP3    H180630   4.514   4.403  14.372 -0.5080  0.4650 -2.3510
19713TIP3    H280631   4.458   4.542  14.351 -0.9644  1.1441  2.2546
19714TIP3   OH280632   3.692   2.568   4.217 -0.5142 -0.0376 -0.3372
19714TIP3    H180633   3.729   2.646   4.258  0.4310 -0.1310 -0.9926
19714TIP3    H280634   3.600   2.591   4.202 -0.1961  1.0397 -0.7318
19715TIP3   OH280635   2.832   3.152  13.272  0.2249  0.2240  0.0663
19715TIP3    H180636   2.889   3.156  13.195 -1.5438 -0.0407 -1.3324
19715TIP3    H280637   2.798   3.241  13.282 -0.2572  0.0595 -0.0513
19716TIP3   OH280638   1.170   2.986   0.748  0.7958 -0.2374 -0.1624
19716TIP3    H180639   1.180   3.063   0.804  0.2128  2.0112 -2.9190
19716TIP3    H280640   1.216   2.917   0.795  1.0484  1.6539  2.6508
19717TIP3   OH280641   3.350   6.465   5.404 -0.0766 -0.5430  0.1332
19717TIP3    H180642   3.321   6.514   5.328 -2.5389 -1.5436  0.3442
19717TIP3    H280643   3.410   6.525   5.450 -0.1715  0.8436 -1.4706
19718TIP3   OH280644   6.069   3.564   5.696 -0.1250  0.5293 -0.2126
19718TIP3    H180645   6.051   3.657   5.685 -3.0436 -0.0696 -1.3622
19718TIP3    H280646   6.005   3.520   5.640  0.3777 -2.2281  1.1926
19719TIP3   OH280647   3.770   5.611  11.550  0.0501 -0.4778 -0.2236
19719TIP3    H180648   3.759   5.518  11.533  2.2093 -0.6718 -0.7770
19719TIP3    H280649   3.714   5.628  11.626 -1.4206 -1.9019 -0.9209
19720TIP3   OH280650   1.349   2.810   3.102 -0.1268  0.2428 -0.1131
19720TIP3    H180651   1.353   2.885   3.042 -0.0158  0.9474  0.7479
19720TIP3    H280652   1.429   2.818   3.155 -1.9406  1.8672  2.6719
19721TIP3   OH280653   6.162   4.567   5.408  0.9291 -0.1532 -0.2453
19721TIP3    H180654   6.236   4.623   5.386  1.2649  0.1835  1.5532
19721TIP3    H280655   6.092   4.628   5.434  1.1377 -0.5117  1.2588
19722TIP3   OH280656   1.472   2.683   0.824 -0.1850  0.4104  0.3780
19722TIP3    H180657   1.448   2.591   0.815 -0.5921  0.5109  0.4043
19722TIP3    H280658   1.511   2.706   0.739 -0.0740  0.2133  0.3752
19723TIP3   OH280659   6.656   1.785   2.585 -0.0261 -0.8069 -0.2735
19723TIP3    H180660   6.578   1.795   2.531  0.1652 -0.4268 -0.4862
19723TIP3    H280661   6.658   1.693   2.608 -0.4423 -0.8516 -0.4154
19724TIP3   OH280662   6.326   2.324  14.004 -0.0885 -0.4028 -0.0255
19724TIP3    H180663   6.236   2.295  13.990 -0.3276  0.3798 -0.1389
19724TIP3    H280664   6.371   2.305  13.922 -0.2335 -0.4822 -0.0854
19725TIP3   OH280665   6.330   2.840   1.284  0.6317  0.0560 -0.4561
19725TIP3    H180666   6.329   2.832   1.188  1.3760 -0.3771 -0.4352
19725TIP3    H280667   6.257   2.786   1.313  1.8025 -1.7177 -0.6729
19726TIP3   OH280668   5.117   5.150   1.847  0.5297 -0.3072 -0.6469
19726TIP3    H180669   5.165   5.232   1.850 -0.7534  0.4461  1.1476
19726TIP3    H280670   5.087   5.142   1.756  0.8994  1.0644 -0.8974
19727TIP3   OH280671   1.338   5.793   0.618  0.0599  0.2044  0.0149
19727TIP3    H180672   1.416   5.846   0.608  0.5692 -0.3642  0.8596
19727TIP3    H280673   1.370   5.703   0.622 -0.4957  0.0361  1.5836
19728TIP3   OH280674   5.477   6.315  16.313 -0.3512 -0.1175  0.1984
19728TIP3    H180675   5.537   6.298  16.240 -0.9636 -0.1944 -0.2918
19728TIP3    H280676   5.461   6.229  16.351 -1.1624 -0.2887 -0.4834
19729TIP3   OH280677   5.953   5.018  13.736  0.3066 -0.4463 -0.1008
19729TIP3    H180678   5.886   5.087  13.728 -0.9868 -1.6482  0.0135
19729TIP3    H280679   6.008   5.046  13.809 -0.6241  0.1275  0.3947
19730TIP3   OH280680   6.116   6.002  17.091  0.8523  0.1107  0.4414
19730TIP3    H180681   6.130   5.916  17.050  2.8937  1.0751 -1.0300
19730TIP3    H280682   6.118   5.984  17.185  0.9011 -1.4936  0.1592
19731TIP3   OH280683   5.933   6.064  13.396 -0.1432 -0.0815  0.5537
19731TIP3    H180684   5.931   5.981  13.349 -0.5997  0.2813 -0.0737
19731TIP3    H280685   5.874   6.121  13.348  1.3390  1.1000  0.0404
19732TIP3   OH280686   5.908   5.006  12.398 -0.5488 -0.1951  0.2960
19732TIP3    H180687   5.873   4.930  12.353 -0.0656 -0.0033 -0.4097
19732TIP3    H280688   5.998   5.015  12.366 -1.0421  1.5185 -0.7517
19733TIP3   OH280689   5.762   5.724  16.118 -0.3916 -0.0705 -0.3536
19733TIP3    H180690   5.815   5.803  16.110  0.8282 -0.5738  1.9174
19733TIP3    H280691   5.674   5.752  16.094  0.4998  1.2171 -2.4592
19734TIP3   OH280692   3.895   3.283   3.657 -0.1812 -0.1787  0.1822
19734TIP3    H180693   3.991   3.280   3.653 -0.2348 -2.2485 -1.6120
19734TIP3    H280694   3.872   3.208   3.712 -0.7848  0.0256  0.2056
19735TIP3   OH280695   0.650   2.955   2.067 -0.0234 -0.1956 -0.2336
19735TIP3    H180696   0.741   2.936   2.045 -0.6708 -2.6328 -1.0644
19735TIP3    H280697   0.600   2.936   1.987 -1.3048  1.1226  0.1870
19736TIP3   OH280698   3.222   0.402  11.452  0.5130 -0.1393 -0.0873
19736TIP3    H180699   3.134   0.396  11.488  0.9989 -0.6721  1.0418
19736TIP3    H280700   3.237   0.317  11.411  0.7771 -0.3155  0.3731
19737TIP3   OH280701   4.583   5.214  12.635  0.3955 -0.2274  0.3563
19737TIP3    H180702   4.490   5.218  12.658  0.5528  0.7050  0.8747
19737TIP3    H280703   4.613   5.132  12.673 -0.3035 -0.7582 -0.1919
19738TIP3   OH280704   3.517   0.328  16.177 -0.4833  0.1650  0.0427
19738TIP3    H180705   3.535   0.329  16.271  0.4809 -0.9001 -0.1182
19738TIP3    H280706   3.423   0.346  16.171 -0.6136 -0.0419  1.2147
19739TIP3   OH280707   6.119   3.298  10.593 -0.0878 -0.7812 -0.1900
19739TIP3    H180708   6.114   3.203  10.602  0.8566 -0.7130  1.6444
19739TIP3    H280709   6.213   3.316  10.594 -0.2655  0.2784  1.5532
19740TIP3   OH280710   3.637   1.025   2.481 -0.4819  0.4466  0.2530
19740TIP3    H180711   3.604   0.974   2.555 -1.3096  0.6613  0.0389
19740TIP3    H280712   3.730   1.037   2.500  0.1274 -2.4246 -0.3990
19741TIP3   OH280713   6.772   1.765  15.781 -0.1860  0.6089 -0.0457
19741TIP3    H180714   6.735   1.805  15.859 -1.9931 -1.4864  0.2385
19741TIP3    H280715   6.704   1.775  15.714  1.1029  1.8614 -1.2500
19742TIP3   OH280716   1.689   5.869  13.710  0.2920  0.1638  0.4128
19742TIP3    H180717   1.649   5.783  13.723  1.8826 -1.0425 -1.9359
19742TIP3    H280718   1.729   5.890  13.794 -1.4865 -0.5820  1.5213
19743TIP3   OH280719   3.726   0.481   5.874  0.0986  0.1283  0.1116
19743TIP3    H180720   3.694   0.471   5.964 -0.9308 -1.3214 -0.3780
19743TIP3    H280721   3.766   0.568   5.873  0.6565 -0.0360  2.1175
19744TIP3   OH280722   0.648   6.501  16.997 -0.7299 -0.3532  0.3297
19744TIP3    H180723   0.715   6.549  16.949 -2.1127  0.7621 -0.5413
19744TIP3    H280724   0.635   6.421  16.946 -1.1840  0.1738 -0.4040
19745TIP3   OH280725   1.857   5.000  12.100  0.0981  0.2732  0.7172
19745TIP3    H180726   1.789   4.934  12.110 -0.6234  0.9810  0.5426
19745TIP3    H280727   1.938   4.954  12.123 -0.1161 -1.2402 -1.2974
19746TIP3   OH280728   6.103   6.569   4.559 -0.1118  0.1073  0.6347
19746TIP3    H180729   6.094   6.510   4.633 -1.0837 -1.4751 -0.6612
19746TIP3    H280730   6.042   6.534   4.494  0.6438  1.4739 -0.8696
19747TIP3   OH280731   6.440   5.277  14.236 -0.8403  0.1953  0.2882
19747TIP3    H180732   6.392   5.206  14.279 -1.8822  1.0040  0.4668
19747TIP3    H280733   6.375   5.344  14.218 -0.2359  0.3406 -1.6050
19748TIP3   OH280734   4.597   3.450   4.465 -0.0158 -0.3088  0.6976
19748TIP3    H180735   4.611   3.392   4.390  2.2244  0.7617  0.2132
19748TIP3    H280736   4.685   3.476   4.493 -0.6903 -1.2097  4.1908
19749TIP3   OH280737   5.157   6.208   1.761  0.6032 -0.2353  0.1826
19749TIP3    H180738   5.215   6.133   1.768 -0.8807 -1.5590 -0.9288
19749TIP3    H280739   5.107   6.192   1.681  0.1534  1.8870 -0.0196
19750TIP3   OH280740   2.925   5.046  12.848  0.0375 -0.0129 -0.4490
19750TIP3    H180741   2.973   5.128  12.834 -1.3350  0.6296 -1.6031
19750TIP3    H280742   2.911   5.011  12.760 -2.1840  0.2012 -0.2479
19751TIP3   OH280743   1.131   6.809  11.885  0.0093 -0.5414 -0.4195
19751TIP3    H180744   1.150   6.856  11.804  0.9300  1.2025  0.7297
19751TIP3    H280745   1.113   6.879  11.949 -0.0503 -1.8321  1.0328
19752TIP3   OH280746   0.078   3.656  10.510  0.2474 -0.1093  0.1799
19752TIP3    H180747   0.045   3.566  10.504  0.4490 -0.1344 -0.6506
19752TIP3    H280748   0.129   3.657  10.591 -0.6883 -0.4272  0.7931
19753TIP3   OH280749   3.094   1.933   0.701  0.6922 -0.1676 -0.0904
19753TIP3    H180750   3.053   1.928   0.788 -1.2148  1.1061 -0.8615
19753TIP3    H280751   3.045   2.001   0.655  2.3049 -0.1263 -1.8530
19754TIP3   OH280752   4.814   5.303   0.157 -0.1147 -0.1686 -0.0017
19754TIP3    H180753   4.744   5.336   0.214  1.0566 -0.0101  1.4171
19754TIP3    H280754   4.793   5.211   0.144  0.4354 -0.6487  2.1055
19755TIP3   OH280755   5.542   4.809   2.442 -0.5782  0.0361  0.0828
19755TIP3    H180756   5.588   4.768   2.368 -1.3070  1.8313 -1.4357
19755TIP3    H280757   5.458   4.763   2.446 -0.8945  0.4898 -0.8221
19756TIP3   OH280758   2.906   2.066  11.064  0.4838 -0.3934  0.1558
19756TIP3    H180759   2.824   2.033  11.101  0.1293  1.0697  0.7533
19756TIP3    H280760   2.914   2.021  10.980 -0.8691 -0.6732  0.1484
19757TIP3   OH280761   4.391   5.651   2.862  0.4372  0.4137  0.3876
19757TIP3    H180762   4.445   5.667   2.939 -1.2919 -0.3217  1.8429
19757TIP3    H280763   4.302   5.642   2.897 -0.6118  1.3823 -1.8701
19758TIP3   OH280764   0.543   5.874   1.147 -0.2926  0.1253 -0.2787
19758TIP3    H180765   0.563   5.901   1.057  0.0208  1.9714  0.3116
19758TIP3    H280766   0.606   5.920   1.201 -1.7496  0.6342  1.0642
19759TIP3   OH280767   0.676   2.904   3.044 -0.1604 -0.0569  0.3759
19759TIP3    H180768   0.618   2.830   3.061  0.2726 -0.2358  1.0869
19759TIP3    H280769   0.616   2.977   3.025 -0.5977 -0.8396 -1.5803
19760TIP3   OH280770   4.948   5.565  15.969 -0.0002  0.0086 -0.2544
19760TIP3    H180771   5.023   5.603  16.017  0.7961 -0.5587 -1.0276
19760TIP3    H280772   4.984   5.539  15.885 -1.0568 -0.3938 -0.5945
19761TIP3   OH280773   4.121   5.810  16.584 -0.0220  0.1704 -0.2752
19761TIP3    H180774   4.050   5.746  16.575  0.9155 -0.7216 -1.9233
19761TIP3    H280775   4.167   5.784  16.664  0.7213 -1.6970 -1.2423
19762TIP3   OH280776   5.292   3.100  16.567  0.2779 -0.2114 -0.3083
19762TIP3    H180777   5.348   3.156  16.623  0.1085 -0.2947 -0.0537
19762TIP3    H280778   5.298   3.140  16.480  0.2377  0.1498 -0.1497
19763TIP3   OH280779   2.681   4.439  11.447  0.3210  0.2615  0.8675
19763TIP3    H180780   2.678   4.352  11.408 -0.1997  0.6638 -0.0533
19763TIP3    H280781   2.773   4.463  11.445  0.2771  0.4415 -0.6004
19764TIP3   OH280782   5.463   2.877   0.742  0.1371 -0.0890 -0.0755
19764TIP3    H180783   5.384   2.906   0.696 -0.0683 -1.5792 -0.7263
19764TIP3    H280784   5.522   2.847   0.673  0.8459 -0.0036  0.4772
19765TIP3   OH280785   2.025   5.894  15.146 -0.3883 -0.4572  0.3426
19765TIP3    H180786   2.044   5.829  15.078 -1.0153 -0.6346  0.3338
19765TIP3    H280787   2.092   5.961  15.134 -1.1726  0.0914 -1.2078
19766TIP3   OH280788   1.524   3.883   5.705 -0.3594 -0.1603  0.5958
19766TIP3    H180789   1.483   3.955   5.656  0.2171  0.5619  1.1368
19766TIP3    H280790   1.561   3.826   5.638  1.4066  1.4001  0.1422
19767TIP3   OH280791   2.001   6.213   0.023 -0.0337  0.1671 -0.1178
19767TIP3    H180792   2.038   6.127   0.040  0.3048  0.1440 -0.9333
19767TIP3    H280793   2.076   6.267  -0.002 -0.3090  0.5860 -0.0536
19768TIP3   OH280794   3.701   0.855  15.130  0.0715  0.5719 -0.2797
19768TIP3    H180795   3.708   0.789  15.060  1.1629  2.6344 -2.2567
19768TIP3    H280796   3.608   0.877  15.132 -0.0898 -0.0520 -0.5641
19769TIP3   OH280797   3.326   4.445   4.903 -0.3000 -0.5072 -0.2216
19769TIP3    H180798   3.337   4.536   4.878  0.5978 -0.8832 -1.2699
19769TIP3    H280799   3.361   4.440   4.992  2.1915 -0.3140 -1.0871
19770TIP3   OH280800   0.511   4.300   3.928  0.6755  0.1514 -0.0125
19770TIP3    H180801   0.469   4.234   3.983  0.1517  0.8952  0.4995
19770TIP3    H280802   0.600   4.267   3.915  0.0860 -1.2404 -0.7594
19771TIP3   OH280803   3.507   0.844   4.866 -0.0589  0.0046 -0.0155
19771TIP3    H180804   3.586   0.822   4.916 -1.0535  2.1172  2.7794
19771TIP3    H280805   3.446   0.772   4.885 -0.8771  1.3541  3.1947
19772TIP3   OH280806   2.765   5.831  12.711 -0.5848 -0.4276 -0.0738
19772TIP3    H180807   2.809   5.900  12.761  0.0889 -0.7447 -0.2167
19772TIP3    H280808   2.833   5.765  12.697 -0.6680 -0.1917 -1.7165
19773TIP3   OH280809   3.887   1.211   2.337  0.3198  0.2870  0.0082
19773TIP3    H180810   3.799   1.239   2.360  0.5329  0.3101  0.8352
19773TIP3    H280811   3.905   1.138   2.397  0.3268 -0.6610 -1.1205
19774TIP3   OH280812   4.961   4.269   0.341  0.3853 -0.2949 -0.2089
19774TIP3    H180813   4.933   4.191   0.389 -0.1618 -0.7631 -1.2499
19774TIP3    H280814   5.046   4.292   0.379  1.8231 -2.9419 -1.5558
19775TIP3   OH280815   2.633   1.482  12.057 -0.2270  0.5109  0.2450
19775TIP3    H180816   2.711   1.528  12.088 -1.4212  2.1490  0.9571
19775TIP3    H280817   2.653   1.460  11.965  1.2337  0.4557  0.5469
19776TIP3   OH280818   3.743   3.617   5.942 -0.2423 -0.4101 -0.0042
19776TIP3    H180819   3.692   3.650   6.016  0.3457  0.0092  0.2253
19776TIP3    H280820   3.830   3.599   5.979 -0.0748 -0.6317 -0.4934
19777TIP3   OH280821   5.349   1.672  11.086  0.0717  0.1666  0.0495
19777TIP3    H180822   5.269   1.723  11.073  0.8841  1.2409 -1.0267
19777TIP3    H280823   5.321   1.581  11.085 -1.0452  0.5004 -1.1298
19778TIP3   OH280824   5.526   1.469  13.731 -0.3011 -0.0197  0.0821
19778TIP3    H180825   5.561   1.548  13.772  1.7907 -0.5981 -0.4343
19778TIP3    H280826   5.508   1.494  13.640 -0.3746  0.0599  0.1192
19779TIP3   OH280827   5.825   1.548   4.537  0.6036 -0.0770  0.2108
19779TIP3    H180828   5.741   1.565   4.495  1.4384  0.1822 -1.4009
19779TIP3    H280829   5.802   1.534   4.630 -0.9970  1.8227  0.1683
19780TIP3   OH280830   6.799   2.626  12.197  0.5664 -0.3279  0.3489
19780TIP3    H180831   6.783   2.537  12.230 -0.7787 -0.3370 -0.2365
19780TIP3    H280832   6.737   2.636  12.125 -0.7777  1.7994  1.6781
19781TIP3   OH280833   3.298   4.854   2.623  0.0233 -0.8212 -0.0513
19781TIP3    H180834   3.325   4.807   2.543  0.3910 -0.9914  0.1680
19781TIP3    H280835   3.356   4.819   2.691 -1.7898 -2.3663  0.7813
19782TIP3   OH280836   6.504   3.590   6.013  0.1643  0.5609  0.1426
19782TIP3    H180837   6.565   3.582   6.085  0.1303 -0.8934  0.0493
19782TIP3    H280838   6.419   3.566   6.050  0.0145  0.5464 -0.1993
19783TIP3   OH280839   0.810   3.448   0.076  0.3719  0.4925  0.4203
19783TIP3    H180840   0.715   3.432   0.076  0.2694  0.4489  3.5029
19783TIP3    H280841   0.848   3.361   0.072  0.2183  0.3975  0.9319
19784TIP3   OH280842   4.503   2.009  14.821 -0.4675  0.4240  0.6128
19784TIP3    H180843   4.418   2.008  14.865 -1.1683  0.6843 -0.6802
19784TIP3    H280844   4.515   1.920  14.789  1.6738 -0.7836  4.1903
19785TIP3   OH280845   2.079   0.200  13.893 -0.3538  0.3642  0.3030
19785TIP3    H180846   2.055   0.124  13.839 -1.2387  1.9136 -1.6249
19785TIP3    H280847   2.169   0.220  13.867 -0.9811  1.4781 -1.1572
19786TIP3   OH280848   4.100   4.812   1.349 -0.3799 -0.2542 -0.4458
19786TIP3    H180849   4.010   4.784   1.332  0.5788 -1.4648 -4.6451
19786TIP3    H280850   4.105   4.901   1.315 -0.2289  0.2602  0.8702
19787TIP3   OH280851   5.584   2.773  14.498  0.9274  0.6567  0.4916
19787TIP3    H180852   5.647   2.843  14.482  0.0415  1.2291 -0.5777
19787TIP3    H280853   5.553   2.789  14.587  1.3972  1.0753  0.5843
19788TIP3   OH280854   0.516   3.185   2.636 -0.0828  0.5556  0.1223
19788TIP3    H180855   0.425   3.214   2.626 -0.2611 -0.6874 -2.5961
19788TIP3    H280856   0.510   3.105   2.688 -0.4249  0.9001  0.6319
19789TIP3   OH280857   1.172   5.703   3.423 -0.0253 -0.0038 -0.4547
19789TIP3    H180858   1.098   5.763   3.411  0.3288  0.4132 -0.5981
19789TIP3    H280859   1.181   5.695   3.518 -1.0952 -1.1201 -0.4394
19790TIP3   OH280860   2.685   3.859  12.007  0.3982 -0.0947  0.1302
19790TIP3    H180861   2.722   3.772  12.020 -0.2781 -0.8716 -2.5530
19790TIP3    H280862   2.681   3.869  11.912  0.5818  2.9496  0.3484
19791TIP3   OH280863   1.320   0.198  13.628  0.0616 -0.0468 -0.7041
19791TIP3    H180864   1.299   0.291  13.625 -0.7413 -0.2503 -2.2155
19791TIP3    H280865   1.249   0.155  13.579  0.4684 -1.4447 -0.1295
19792TIP3   OH280866   6.364   5.011   2.548 -0.1088  0.3739 -0.4120
19792TIP3    H180867   6.310   5.052   2.480 -0.9576  0.3371  0.2372
19792TIP3    H280868   6.453   5.042   2.528 -0.5367  1.4849 -0.7185
19793TIP3   OH280869   4.266   0.776  14.763 -0.1331  0.3265 -0.2906
19793TIP3    H180870   4.325   0.792  14.837 -0.9790  1.8617  0.1147
19793TIP3    H280871   4.180   0.805  14.795 -0.6898  0.1390 -1.5692
19794TIP3   OH280872   3.984   0.539  12.621 -0.1607  1.1180  0.2115
19794TIP3    H180873   3.994   0.571  12.531 -1.0298  0.9641  0.0578
19794TIP3    H280874   3.906   0.484  12.619  1.4018 -1.2320  0.4324
19795TIP3   OH280875   0.678   2.399   2.410 -0.3972  0.3055  0.4535
19795TIP3    H180876   0.749   2.463   2.419  0.1139 -0.0343 -0.8187
19795TIP3    H280877   0.606   2.448   2.371  0.0272  0.1088 -0.6111
19796TIP3   OH280878   6.710   4.849  10.658  0.1476 -0.3652 -0.0934
19796TIP3    H180879   6.695   4.803  10.740 -1.8055 -0.5511 -0.5002
19796TIP3    H280880   6.695   4.783  10.590  2.9169 -0.5386 -0.6479
19797TIP3   OH280881   1.044   4.393   1.289 -0.3431  0.0375 -0.3504
19797TIP3    H180882   1.106   4.402   1.361  0.6754  1.3654 -1.3305
19797TIP3    H280883   1.097   4.404   1.210 -1.3463 -1.8532 -1.3499
19798TIP3   OH280884   5.806   6.589  14.440  0.0401  0.2971 -0.2530
19798TIP3    H180885   5.876   6.525  14.448 -0.4473 -0.2656 -0.4268
19798TIP3    H280886   5.773   6.600  14.529  0.3392  0.5601 -0.1721
19799TIP3   OH280887   3.239   2.250  14.733 -0.0139  0.6661  0.0829
19799TIP3    H180888   3.218   2.315  14.800  0.9091  2.1149 -0.9868
19799TIP3    H280889   3.208   2.290  14.651  0.2631 -0.4004 -0.5565
19800TIP3   OH280890   1.101   0.676   3.733  0.0571 -0.0699 -0.3255
19800TIP3    H180891   1.020   0.693   3.780  0.6248 -0.5907  0.9028
19800TIP3    H280892   1.099   0.582   3.715  2.0498 -1.0034  3.2205
19801TIP3   OH280893   3.674   1.684  16.555  0.2744  0.0282  0.2732
19801TIP3    H180894   3.733   1.608  16.562 -0.5820 -0.6683  0.1096
19801TIP3    H280895   3.590   1.652  16.588 -0.6079  0.3398 -1.5639
19802TIP3   OH280896   0.090   2.897   1.016  0.2091  0.3750 -0.3918
19802TIP3    H180897   0.113   2.893   1.109 -2.5655  1.5963  0.4566
19802TIP3    H280898   0.132   2.977   0.984  5.0272 -2.2323 -1.5859
19803TIP3   OH280899   3.385   2.608   3.031 -0.3120  0.2732  0.1585
19803TIP3    H180900   3.353   2.658   3.106 -0.3631  1.8794 -0.8679
19803TIP3    H280901   3.307   2.592   2.977 -0.2575 -0.7499  0.3755
19804TIP3   OH280902   6.336   6.004   5.045  0.0763  0.1889 -0.0225
19804TIP3    H180903   6.425   6.016   5.012 -0.7711 -0.4820 -2.8308
19804TIP3    H280904   6.309   6.092   5.072  1.6511  0.3464  1.2420
19805TIP3   OH280905   4.070   4.064  13.091  0.0278  0.2807 -0.4257
19805TIP3    H180906   4.085   4.151  13.054  0.6914 -0.1509 -1.2069
19805TIP3    H280907   4.000   4.027  13.037  0.0658  0.1611 -0.3929
19806TIP3   OH280908   5.979   5.184   0.880  0.0698 -0.3390 -0.4158
19806TIP3    H180909   5.884   5.190   0.878  0.0548 -0.5901 -0.4810
19806TIP3    H280910   6.005   5.232   0.958 -0.1801 -1.1489  0.1787
19807TIP3   OH280911   1.619   0.303  14.396 -0.0497 -0.2587  0.0800
19807TIP3    H180912   1.685   0.372  14.395 -0.3571  0.0481  0.5531
19807TIP3    H280913   1.665   0.225  14.365 -0.1214  0.5297 -2.2451
19808TIP3   OH280914   3.240   5.058   3.059 -0.5770  0.1939 -0.3514
19808TIP3    H180915   3.321   5.010   3.074  0.2407  1.1516 -1.5104
19808TIP3    H280916   3.268   5.149   3.044 -1.9886  0.8445  0.7072
19809TIP3   OH280917   5.825   2.435   6.467 -0.3694 -0.2653 -0.2512
19809TIP3    H180918   5.743   2.453   6.513 -0.5500  0.4488 -0.8316
19809TIP3    H280919   5.886   2.503   6.497  0.1572 -1.0577  0.5158
19810TIP3   OH280920   1.795   5.869  16.479 -0.3457  0.1016 -0.5352
19810TIP3    H180921   1.765   5.893  16.391  0.3199 -1.0401 -1.0967
19810TIP3    H280922   1.791   5.773  16.480  0.1352  0.0839  0.5146
19811TIP3   OH280923   4.779   0.390   1.436 -0.1428  0.5530 -0.3077
19811TIP3    H180924   4.746   0.474   1.404  0.0692  0.9711  0.5481
19811TIP3    H280925   4.760   0.391   1.529  0.5854 -0.0024 -0.1470
19812TIP3   OH280926   1.430   5.774  14.080 -0.6872  0.0741  0.2538
19812TIP3    H180927   1.483   5.694  14.079  1.1043  1.2161 -0.1761
19812TIP3    H280928   1.342   5.744  14.101  0.1076 -1.9133  0.9967
19813TIP3   OH280929   1.677   2.429   0.922  0.7144  0.5060  0.0805
19813TIP3    H180930   1.713   2.514   0.895  0.6166  0.5686  0.1457
19813TIP3    H280931   1.588   2.449   0.952  0.4325  0.2670 -0.5774
19814TIP3   OH280932   0.097   1.875  12.904  0.1711  0.1401  0.4454
19814TIP3    H180933   0.176   1.907  12.860 -0.1428 -0.2867 -0.4450
19814TIP3    H280934   0.027   1.887  12.840 -0.1940 -1.0439  0.5914
19815TIP3   OH280935   2.139   4.189   2.055  0.0764  0.0593  0.2090
19815TIP3    H180936   2.228   4.207   2.027 -0.4268  0.0934 -1.5086
19815TIP3    H280937   2.112   4.269   2.101 -0.0859  1.4268 -2.0447
19816TIP3   OH280938   2.319   1.173   5.311 -0.3508 -0.0270  0.0210
19816TIP3    H180939   2.228   1.152   5.329 -0.1559 -0.2160  0.8508
19816TIP3    H280940   2.316   1.236   5.239 -1.1906  0.6895  0.6605
19817TIP3   OH280941   6.794   4.136   0.586 -0.5594 -0.5067  0.0238
19817TIP3    H180942   6.853   4.165   0.656 -0.6227 -0.0928 -0.0954
19817TIP3    H280943   6.741   4.067   0.627  0.5691 -1.4782 -0.1075
19818TIP3   OH280944   3.509   4.717  15.868 -0.2044  0.2986  0.2480
19818TIP3    H180945   3.477   4.730  15.779 -2.0984 -0.0756  0.8211
19818TIP3    H280946   3.440   4.753  15.923  0.8743  0.3955  1.5796
19819TIP3   OH280947   5.205   5.850  11.541 -0.5560 -0.1816 -0.6457
19819TIP3    H180948   5.239   5.786  11.479  1.3148  0.9269 -0.8505
19819TIP3    H280949   5.206   5.933  11.493 -0.0051  0.5243  0.5227
19820TIP3   OH280950   5.822   0.283   2.123  0.0893  0.0146  0.3246
19820TIP3    H180951   5.900   0.292   2.178 -0.2868 -0.7465  1.0115
19820TIP3    H280952   5.789   0.372   2.112  1.0057  0.3431  0.0749
19821TIP3   OH280953   5.906   3.668  14.522 -0.2407 -0.1280 -0.9780
19821TIP3    H180954   5.968   3.596  14.537 -2.2417 -1.8101 -0.3419
19821TIP3    H280955   5.883   3.698  14.610 -1.0510 -0.1864 -1.1651
19822TIP3   OH280956   6.153   0.327   5.502 -0.6506  0.3821 -0.3237
19822TIP3    H180957   6.202   0.395   5.549 -1.0393 -0.9306  2.1455
19822TIP3    H280958   6.089   0.375   5.450  1.7312  2.0542 -1.9756
19823TIP3   OH280959   2.050   1.271   0.812  0.2595 -0.1096  0.1350
19823TIP3    H180960   2.010   1.357   0.827 -0.2109 -0.1781 -0.7133
19823TIP3    H280961   2.045   1.228   0.898  1.9789  1.2930  1.0175
19824TIP3   OH280962   0.560   0.357   0.841 -0.0328 -0.5112  0.4668
19824TIP3    H180963   0.490   0.415   0.809  0.1860  0.4204  1.6090
19824TIP3    H280964   0.513   0.281   0.874 -0.4573 -0.2466  0.4929
19825TIP3   OH280965   6.365   5.621   5.722 -0.1082  0.0348 -0.0576
19825TIP3    H180966   6.397   5.616   5.632  0.1186  0.5567 -0.0126
19825TIP3    H280967   6.270   5.625   5.714 -0.0632  0.8075 -0.3170
19826TIP3   OH280968   4.446   2.106   4.595  0.0850  0.4495 -0.0450
19826TIP3    H180969   4.422   2.022   4.556  0.9392  0.3105 -0.2777
19826TIP3    H280970   4.386   2.169   4.555 -0.7822 -0.0830  0.3695
19827TIP3   OH280971   6.689   2.531   0.751  0.0461 -0.2599  0.7105
19827TIP3    H180972   6.746   2.588   0.802  3.5291 -1.6029 -1.3331
19827TIP3    H280973   6.693   2.446   0.795  1.2302 -0.8306 -0.4153
19828TIP3   OH280974   4.096   6.322  11.630  0.0532  0.2068 -0.5176
19828TIP3    H180975   4.158   6.262  11.673  1.1146 -0.3239 -2.6545
19828TIP3    H280976   4.081   6.391  11.695  2.3396 -0.0364  0.3618
19829TIP3   OH280977   4.511   4.163   1.251  0.0705 -0.0384 -0.3769
19829TIP3    H180978   4.509   4.238   1.191 -0.2475 -0.7036 -1.2250
19829TIP3    H280979   4.491   4.200   1.337 -3.3194  0.4657 -1.2430
19830TIP3   OH280980   6.679   0.991  14.715  0.0192  0.2476 -0.1788
19830TIP3    H180981   6.662   0.946  14.798 -0.6303  0.9613  0.0869
19830TIP3    H280982   6.770   1.019  14.721  0.0121  0.1810  0.2407
19831TIP3   OH280983   1.620   6.368  16.916  0.2759  0.3085 -0.8925
19831TIP3    H180984   1.580   6.452  16.940  0.4017 -0.1567  1.0237
19831TIP3    H280985   1.549   6.320  16.872 -0.4346  0.6265 -0.1252
19832TIP3   OH280986   2.130   4.018  17.052  0.4128  0.3627  0.5140
19832TIP3    H180987   2.133   4.009  17.147 -0.2598 -0.0138  0.5031
19832TIP3    H280988   2.218   3.995  17.023 -0.2335 -2.8120  0.7678
19833TIP3   OH280989   3.990   5.667  13.035 -0.0029 -0.0148  0.4334
19833TIP3    H180990   3.994   5.724  12.958 -0.0987  1.0853  1.2157
19833TIP3    H280991   4.041   5.590  13.011  1.8176  1.2404  0.0212
19834TIP3   OH280992   5.676   1.266   1.734 -0.3924  0.2424  0.1585
19834TIP3    H180993   5.738   1.200   1.765  0.0163  0.6809  0.3081
19834TIP3    H280994   5.728   1.347   1.731 -1.0382  0.6862  0.5791
19835TIP3   OH280995   0.436   4.992   5.952 -0.2753  0.1761 -0.4354
19835TIP3    H180996   0.406   4.949   6.032  1.2732 -0.2586 -0.0641
19835TIP3    H280997   0.366   5.055   5.932 -3.2107 -3.0742 -1.5783
19836TIP3   OH280998   3.072   2.217   3.586 -0.0363  0.5163  0.7551
19836TIP3    H180999   3.119   2.146   3.542 -1.1268  0.2846 -0.0784
19836TIP3    H281000   3.044   2.179   3.669  0.4287  0.3612  0.8439
19837TIP3   OH281001   4.525   2.669  12.041 -0.1589 -0.3781 -0.1442
19837TIP3    H181002   4.495   2.661  12.131  0.4146  1.6785  0.2992
19837TIP3    H281003   4.518   2.581  12.005 -1.1502 -1.0948  1.6580
19838TIP3   OH281004   0.355   2.300  12.346 -0.4516  0.2394 -0.5129
19838TIP3    H181005   0.315   2.291  12.432 -0.8336  1.4764 -0.5468
19838TIP3    H281006   0.419   2.371  12.356  1.2752 -1.2293 -0.6395
19839TIP3   OH281007   0.318   5.237  16.650  0.4199 -0.2958 -0.0931
19839TIP3    H181008   0.408   5.238  16.680  0.2216  1.0888  0.5437
19839TIP3    H281009   0.294   5.329  16.642 -1.5520 -0.5551  1.7476
19840TIP3   OH281010   0.887   4.986   4.566  0.3189 -0.0437  0.1583
19840TIP3    H181011   0.792   4.996   4.565  0.4173  0.9545 -0.0242
19840TIP3    H281012   0.901   4.891   4.576 -0.6833 -0.2701 -0.4415
19841TIP3   OH281013   4.347   5.927  12.550  0.0938 -0.5165  0.5739
19841TIP3    H181014   4.350   6.018  12.522  2.1290 -0.4818  0.7532
19841TIP3    H281015   4.346   5.877  12.468 -0.8244 -0.3683  0.4772
19842TIP3   OH281016   1.105   4.171   0.298 -0.4106  0.4468 -0.3631
19842TIP3    H181017   1.118   4.153   0.205 -1.2845 -0.7272 -0.2834
19842TIP3    H281018   1.188   4.148   0.340 -0.4097 -0.1699 -0.7067
19843TIP3   OH281019   1.812   4.005  11.245 -0.4156 -0.4465  0.0227
19843TIP3    H181020   1.773   4.008  11.157 -1.7720 -1.1762  0.5784
19843TIP3    H281021   1.860   4.087  11.252  1.9542 -1.4746 -2.3868
19844TIP3   OH281022   0.185   0.128   2.823 -0.0676  0.6714 -0.7028
19844TIP3    H181023   0.212   0.159   2.910 -0.6748  1.5282 -0.8106
19844TIP3    H281024   0.210   0.199   2.764 -0.2597  0.3727 -1.1457
19845TIP3   OH281025   1.882   6.710   4.159  0.2039 -0.2196 -0.2197
19845TIP3    H181026   1.855   6.796   4.127 -0.4075 -1.0264 -2.0352
19845TIP3    H281027   1.857   6.709   4.251 -0.9589  1.0761 -0.4874
19846TIP3   OH281028   5.118   0.534   4.614 -0.4526  0.2186  0.0781
19846TIP3    H181029   5.025   0.541   4.594 -0.6843  1.9110  1.5590
19846TIP3    H281030   5.160   0.526   4.528 -1.8043  1.4893 -0.7448
19847TIP3   OH281031   4.390   5.046  11.805  0.3518 -0.4455 -0.1232
19847TIP3    H181032   4.466   5.047  11.747  0.8525 -2.2680  0.4384
19847TIP3    H281033   4.425   5.068  11.891  0.1838 -0.8805  0.0610
19848TIP3   OH281034   6.608   0.857  13.017  0.3869 -0.3729  0.1686
19848TIP3    H181035   6.690   0.886  13.057 -0.0290  0.8270  0.2029
19848TIP3    H281036   6.545   0.856  13.089  0.3147 -1.1235  0.1076
19849TIP3   OH281037   5.162   3.153  15.170 -0.1128  0.3003 -0.6246
19849TIP3    H181038   5.227   3.177  15.105  0.9847  0.2507  0.4162
19849TIP3    H281039   5.168   3.220  15.237  0.4455 -0.8869  0.5592
19850TIP3   OH281040   2.703   3.360  11.392  0.1767 -0.1930  0.3136
19850TIP3    H181041   2.667   3.443  11.423  0.7031  1.2912 -2.6066
19850TIP3    H281042   2.790   3.383  11.358  0.9591 -2.2605  0.7718
19851TIP3   OH281043   3.243   0.355  10.997  0.5675 -0.2618 -0.4485
19851TIP3    H181044   3.158   0.316  11.014  0.6818 -1.2400 -1.9697
19851TIP3    H281045   3.305   0.296  11.041  0.4244  1.4990  2.3692
19852TIP3   OH281046   5.036   1.368   2.233 -0.5877 -0.1793 -0.2007
19852TIP3    H181047   4.974   1.355   2.305 -0.7352  0.0222 -0.2933
19852TIP3    H281048   5.105   1.303   2.250  1.0889  2.0084  1.9732
19853TIP3   OH281049   6.554   5.334  13.138 -0.0462 -0.3387  0.1281
19853TIP3    H181050   6.605   5.256  13.118  0.6648  0.4486 -1.2985
19853TIP3    H281051   6.609   5.407  13.109 -1.3321  0.6158 -0.0033
19854TIP3   OH281052   2.044   2.959   1.660  0.3118  0.0097  0.2918
19854TIP3    H181053   1.976   2.913   1.710 -0.9325 -1.1406 -2.2557
19854TIP3    H281054   2.117   2.898   1.657  0.3786  0.0700  0.6644
19855TIP3   OH281055   4.967   5.902   3.560  0.5872 -0.3659 -0.1609
19855TIP3    H181056   5.010   5.937   3.638 -2.4959  0.1630  1.4414
19855TIP3    H281057   4.970   5.807   3.571  1.3971 -0.3430 -0.1346
19856TIP3   OH281058   1.395   3.561   0.748  0.0147  0.0835  0.5202
19856TIP3    H181059   1.413   3.577   0.656 -1.7464 -1.8181 -0.2313
19856TIP3    H281060   1.452   3.622   0.795  2.0809  0.0297 -1.7543
19857TIP3   OH281061   4.146   2.252   5.675  0.2337 -0.2926 -0.0235
19857TIP3    H181062   4.240   2.269   5.676  0.4838 -1.5960  1.2941
19857TIP3    H281063   4.132   2.188   5.744 -1.4339 -1.1791 -1.1008
19858TIP3   OH281064   1.023   4.244   4.747  0.2612 -0.2584  0.3159
19858TIP3    H181065   1.032   4.217   4.838  1.2481 -0.5203  0.1548
19858TIP3    H281066   1.073   4.326   4.741 -2.1554  1.3449  0.6488
19859TIP3   OH281067   4.286   1.200   3.049  0.1564 -0.1845  0.3342
19859TIP3    H181068   4.334   1.240   2.976  0.0290 -0.2011  0.2414
19859TIP3    H281069   4.220   1.145   3.007 -1.3995  1.5113  0.4258
19860TIP3   OH281070   2.137   4.434  13.481  0.0988  0.1994 -0.4249
19860TIP3    H181071   2.152   4.402  13.392 -0.8176  0.3524 -0.6441
19860TIP3    H281072   2.170   4.363  13.537 -0.2297 -0.3393 -0.8934
19861TIP3   OH281073   6.235   4.027  11.331 -0.1927  0.7166  0.4247
19861TIP3    H181074   6.297   3.963  11.365  0.2549  0.2810 -1.1210
19861TIP3    H281075   6.277   4.062  11.253 -0.3226  3.1073  1.3312
19862TIP3   OH281076   3.911   3.711  12.614  0.4102  0.2378 -0.3016
19862TIP3    H181077   3.953   3.770  12.551 -1.8699 -0.3926 -2.5565
19862TIP3    H281078   3.972   3.637  12.622  1.7846  1.3543  0.0766
19863TIP3   OH281079   0.317   0.872  12.039 -0.4165  0.2664 -0.1046
19863TIP3    H181080   0.285   0.815  12.109 -0.7916 -0.4679 -0.8587
19863TIP3    H281081   0.240   0.920  12.011 -0.8236 -1.1885 -1.6270
19864TIP3   OH281082   6.130   5.708   1.186 -0.3493 -0.2925 -0.2097
19864TIP3    H181083   6.174   5.657   1.117  0.7120  1.5069 -0.9342
19864TIP3    H281084   6.191   5.706   1.260 -0.5107 -0.4300 -0.0794
19865TIP3   OH281085   3.168   2.969  11.668  0.1331  0.5123  0.0592
19865TIP3    H181086   3.257   2.996  11.688 -0.0567  1.7967 -0.7464
19865TIP3    H281087   3.146   2.904  11.736  1.7568 -0.0224  0.1043
19866TIP3   OH281088   0.473   4.525   3.766 -0.6570  0.2731 -0.1491
19866TIP3    H181089   0.410   4.569   3.823 -0.7142 -1.7685  1.4874
19866TIP3    H281090   0.473   4.435   3.796  1.5808 -0.2268 -1.4439
19867TIP3   OH281091   0.704   5.224  15.296 -0.4404 -0.4946 -0.0813
19867TIP3    H181092   0.700   5.129  15.307  0.0076 -0.5747 -0.5891
19867TIP3    H281093   0.734   5.237  15.206 -1.0409  0.1343 -0.2024
19868TIP3   OH281094   4.859   4.674   6.448  0.3829  0.5390 -0.7700
19868TIP3    H181095   4.766   4.689   6.461  0.4311  1.1099 -1.0592
19868TIP3    H281096   4.863   4.603   6.383  0.1258  1.9230 -2.3704
19869TIP3   OH281097   4.907   6.339  11.542  0.0346 -0.0186 -0.4998
19869TIP3    H181098   4.879   6.332  11.633  1.2300 -1.9585 -0.2128
19869TIP3    H281099   4.835   6.301  11.491  0.2370 -0.9136 -0.1456
19870TIP3   OH281100   2.723   4.065   1.044  0.2332 -0.2680  0.2185
19870TIP3    H181101   2.815   4.062   1.068 -0.1803  0.5505  2.0805
19870TIP3    H281102   2.723   4.079   0.950  2.0310  1.6423  0.4404
19871TIP3   OH281103   4.294   6.458   0.165 -0.2091 -0.1220 -0.5115
19871TIP3    H181104   4.355   6.509   0.111  0.4416  0.5496  0.8089
19871TIP3    H281105   4.224   6.519   0.186  0.5091  0.2476  0.9677
19872TIP3   OH281106   4.612   6.384  16.246  0.0765  0.4079 -0.3467
19872TIP3    H181107   4.586   6.308  16.298  1.4308 -0.4475 -0.8534
19872TIP3    H281108   4.557   6.456  16.278 -0.2627 -0.4663  1.1098
19873TIP3   OH281109   0.637   6.618   1.928  0.3183  0.1436 -1.1451
19873TIP3    H181110   0.671   6.587   1.844  0.3316  1.8089 -1.7926
19873TIP3    H281111   0.543   6.629   1.913 -0.2142 -2.1639 -0.0677
19874TIP3   OH281112   2.799   5.116  16.576  0.3446  0.6464  0.3243
19874TIP3    H181113   2.710   5.090  16.598 -0.5771  0.6480 -2.9048
19874TIP3    H281114   2.834   5.155  16.657 -1.0322 -3.0548  2.9723
19875TIP3   OH281115   1.855   4.724  10.611 -0.2103 -0.0247  0.0619
19875TIP3    H181116   1.824   4.746  10.698  1.1642  1.6829  0.1767
19875TIP3    H281117   1.827   4.797  10.556  3.0837  1.4491  0.1115
19876TIP3   OH281118   4.320   1.753  16.477  0.7011 -0.6871  0.9350
19876TIP3    H181119   4.225   1.760  16.488  0.6204  0.6602 -0.2507
19876TIP3    H281120   4.332   1.702  16.397  0.8381  1.3458 -0.4409
19877TIP3   OH281121   6.324   4.996  16.025  0.1620  0.0373 -0.6020
19877TIP3    H181122   6.416   5.013  16.005 -0.0316 -0.2986 -1.8746
19877TIP3    H281123   6.297   4.932  15.958 -1.2200  0.7676 -0.7663
19878TIP3   OH281124   4.270   5.786  12.113  1.0552 -0.6297 -0.0775
19878TIP3    H181125   4.175   5.780  12.102  1.1468 -0.3704 -1.1644
19878TIP3    H281126   4.293   5.872  12.076  1.9661 -1.6513 -2.0640
19879TIP3   OH281127   2.647   2.922   0.447  0.0339 -0.3390  0.2775
19879TIP3    H181128   2.582   2.881   0.505 -0.4892  0.2924  0.1412
19879TIP3    H281129   2.728   2.876   0.467 -0.7402 -2.2268 -0.6370
19880TIP3   OH281130   6.410   3.317  11.981  0.1421 -0.3112 -0.2305
19880TIP3    H181131   6.393   3.368  12.060  1.3813 -2.0421  1.2380
19880TIP3    H281132   6.391   3.227  12.006  4.8331 -1.5793 -0.3646
19881TIP3   OH281133   5.417   2.800   2.173  0.0774 -0.3488  0.1746
19881TIP3    H181134   5.443   2.709   2.186 -1.0787 -0.7287 -0.0467
19881TIP3    H281135   5.322   2.797   2.160 -0.4757  1.1665  2.9338
19882TIP3   OH281136   1.879   3.618  17.117 -0.7515 -0.4569 -0.4258
19882TIP3    H181137   1.897   3.705  17.155 -0.0426 -1.3616  1.4368
19882TIP3    H281138   1.941   3.610  17.045  0.7631 -0.2647  0.7989
19883TIP3   OH281139   2.159   1.796  13.694 -0.6548  0.2835 -0.1501
19883TIP3    H181140   2.065   1.784  13.681 -0.5537 -0.9953  0.1962
19883TIP3    H281141   2.165   1.850  13.774 -1.0999 -1.6023  1.2314
19884TIP3   OH281142   1.900   0.659   4.900  0.0272  0.4775 -0.0849
19884TIP3    H181143   1.910   0.595   4.970 -2.4947  1.8913  1.7490
19884TIP3    H281144   1.875   0.740   4.945  1.5560  2.3837 -2.4083
19885TIP3   OH281145   4.712   4.576   4.712  0.3129 -0.8108 -0.0165
19885TIP3    H181146   4.674   4.662   4.696 -1.3078 -1.4431  0.2703
19885TIP3    H281147   4.806   4.588   4.694 -0.1775  0.4629 -2.1800
19886TIP3   OH281148   2.180   2.632   0.525  0.5486  0.3237 -0.3348
19886TIP3    H181149   2.182   2.727   0.517  2.1815  0.3193 -0.3428
19886TIP3    H281150   2.132   2.615   0.606 -1.7637  1.0269 -1.4638
19887TIP3   OH281151   4.320   3.821  13.018 -0.5084  0.2187 -0.1778
19887TIP3    H181152   4.382   3.751  13.038 -0.5134  0.4666  0.8028
19887TIP3    H281153   4.238   3.776  12.998 -1.3022 -0.1081  3.1291
19888TIP3   OH281154   1.112   5.452  11.547 -0.8373  0.2658  0.1659
19888TIP3    H181155   1.146   5.415  11.466 -0.7584 -0.9385  0.7172
19888TIP3    H281156   1.171   5.524  11.567 -0.4885  0.1822 -0.5265
19889TIP3   OH281157   0.565   1.800   3.163  0.5195  0.4101 -0.4966
19889TIP3    H181158   0.526   1.764   3.243  2.1309 -0.6801 -0.1511
19889TIP3    H281159   0.631   1.862   3.195  0.2913  0.9480 -1.0352
19890TIP3   OH281160   2.868   4.862  15.693 -0.3992 -0.5929 -0.6109
19890TIP3    H181161   2.776   4.872  15.717  0.0127 -0.6134  1.1001
19890TIP3    H281162   2.867   4.853  15.598 -2.2289 -1.3685 -0.5669
19891TIP3   OH281163   2.591   2.827  11.262 -0.1940 -0.1426 -0.4666
19891TIP3    H181164   2.610   2.882  11.339 -0.6114 -0.4978 -0.1041
19891TIP3    H281165   2.584   2.890  11.190  2.4051  0.0139 -0.6671
19892TIP3   OH281166   5.249   2.427   1.837  0.2101  0.2175 -0.5601
19892TIP3    H181167   5.226   2.374   1.761 -2.1421 -2.1253  1.5820
19892TIP3    H281168   5.344   2.438   1.831  0.2008 -0.5527 -3.3456
19893TIP3   OH281169   0.177   6.560  15.333  0.1239 -0.1520  0.0412
19893TIP3    H181170   0.099   6.596  15.290 -0.5366 -1.1194  0.4006
19893TIP3    H281171   0.144   6.521  15.414  1.3244  1.5538  1.4316
19894TIP3   OH281172   6.593   6.154   2.902  0.0656 -0.3216  0.0752
19894TIP3    H181173   6.587   6.065   2.869 -0.8842 -0.4548  0.5514
19894TIP3    H281174   6.589   6.145   2.997 -2.2116  0.3216  0.1070
19895TIP3   OH281175   5.859   1.180  11.526  0.5058  0.0609 -0.3640
19895TIP3    H181176   5.939   1.167  11.475  1.1732 -1.5033  1.0281
19895TIP3    H281177   5.852   1.102  11.581 -1.0175  0.9920  0.8408
19896TIP3   OH281178   0.554   3.691  15.363  0.2724  0.2458 -0.4972
19896TIP3    H181179   0.642   3.707  15.328  1.6128 -2.1296  1.5725
19896TIP3    H281180   0.518   3.624  15.306  0.9322 -0.7975  0.2835
19897TIP3   OH281181   3.134   1.461  16.872  0.3099 -0.0706 -0.2579
19897TIP3    H181182   3.206   1.517  16.899 -1.0836  1.5933  0.1556
19897TIP3    H281183   3.174   1.396  16.814  2.4464 -0.4222  1.4865
19898TIP3   OH281184   3.429   3.964  14.007 -0.1226  0.5577 -0.1858
19898TIP3    H181185   3.462   3.890  14.058  0.7192  1.5794  0.7884
19898TIP3    H281186   3.490   3.970  13.933 -0.3624  0.1235 -0.4287
19899TIP3   OH281187   1.981   3.934  13.248  1.0587  0.2902 -0.0952
19899TIP3    H181188   2.051   3.886  13.292  0.8975  0.2759  0.1498
19899TIP3    H281189   1.934   3.867  13.197  1.0042  0.2376  0.0242
19900TIP3   OH281190   2.134   4.749  11.279 -0.1612  0.4934  0.0457
19900TIP3    H181191   2.068   4.812  11.252 -0.7068 -0.7366 -1.6464
19900TIP3    H281192   2.130   4.749  11.374 -1.5590  1.5274  0.0148
19901TIP3   OH281193   5.849   3.136   3.324  0.5628 -0.3003  0.2650
19901TIP3    H181194   5.826   3.137   3.231 -0.5184 -0.2573  0.5200
19901TIP3    H281195   5.786   3.074   3.363  1.1099 -0.4369  0.9390
19902TIP3   OH281196   2.134   5.730  16.642 -0.1998 -0.0735 -0.5230
19902TIP3    H181197   2.097   5.795  16.582  1.0448  0.9322 -0.2450
19902TIP3    H281198   2.119   5.767  16.729  1.6964  0.5395 -0.4069
19903TIP3   OH281199   0.366   5.084   3.482 -0.6278 -0.0544 -0.4884
19903TIP3    H181200   0.454   5.113   3.506  0.9319 -0.9688 -4.3185
19903TIP3    H281201   0.310   5.159   3.502  1.1121  0.8748  1.2917
19904TIP3   OH281202   4.581   3.313   3.494  0.6464 -0.4657 -0.4178
19904TIP3    H181203   4.634   3.240   3.462  0.0732 -0.8007 -0.6196
19904TIP3    H281204   4.503   3.313   3.438 -0.8343 -1.6441  1.5112
19905TIP3   OH281205   5.923   3.749  14.112  0.3586  0.3538  0.3208
19905TIP3    H181206   5.874   3.732  14.031 -0.4428  1.0561  0.6505
19905TIP3    H281207   5.956   3.663  14.138 -0.2703 -0.0521 -0.1862
19906TIP3   OH281208   3.701   5.556  13.750  0.0162 -0.0368  0.0315
19906TIP3    H181209   3.724   5.614  13.677  0.1976  0.3727  0.4072
19906TIP3    H281210   3.636   5.496  13.713 -0.4396  0.6298 -0.2732
19907TIP3   OH281211   6.739   3.892   4.150 -0.1078  0.0322 -0.9081
19907TIP3    H181212   6.706   3.805   4.127 -1.4829  0.7873 -1.9477
19907TIP3    H281213   6.732   3.895   4.246 -1.2275 -0.5672 -0.9534
19908TIP3   OH281214   3.125   3.305  14.679 -0.8324  0.1882  0.1313
19908TIP3    H181215   3.038   3.285  14.643 -0.7971 -1.2190  0.7451
19908TIP3    H281216   3.180   3.233  14.648  0.6624  2.0917 -1.9284
19909TIP3   OH281217   6.699   6.557   5.210  0.0797  0.0896  0.0885
19909TIP3    H181218   6.639   6.617   5.167  0.2330  0.7627  0.7841
19909TIP3    H281219   6.778   6.559   5.155 -0.6766 -1.1966 -1.1155
19910TIP3   OH281220   6.270   3.108   4.207 -0.0049  0.3890 -0.5727
19910TIP3    H181221   6.281   3.202   4.218  1.6177  0.2512 -0.6769
19910TIP3    H281222   6.276   3.094   4.112  1.1105  0.0803 -0.4812
19911TIP3   OH281223   0.160   2.068   1.466 -0.3905  0.1799  0.0727
19911TIP3    H181224   0.221   2.030   1.404 -1.6241 -1.0292 -0.4684
19911TIP3    H281225   0.093   2.109   1.412 -1.1352 -0.3137  0.5872
19912TIP3   OH281226   5.558   1.295   1.092  0.2683 -0.0629 -0.5535
19912TIP3    H181227   5.601   1.223   1.047  2.3922  0.9504 -0.2679
19912TIP3    H281228   5.627   1.361   1.103 -0.7881  0.7163  2.0107
19913TIP3   OH281229   3.895   1.013   2.524  0.2375 -0.0396  0.2927
19913TIP3    H181230   3.894   1.025   2.619 -1.1411  0.1784  0.2762
19913TIP3    H281231   3.956   0.941   2.510  2.1281  1.2978  1.1407
19914TIP3   OH281232   5.977   0.221  12.809  0.1051  0.8043 -0.1448
19914TIP3    H181233   6.054   0.277  12.798  0.9827 -0.4994 -0.9202
19914TIP3    H281234   5.957   0.226  12.903  0.5364  1.9014 -0.0933
19915TIP3   OH281235   4.946   2.461   5.656 -0.2214 -0.0156  0.1732
19915TIP3    H181236   5.008   2.483   5.726 -2.5041  3.0812  1.4479
19915TIP3    H281237   4.992   2.483   5.575  1.8477 -2.0281  0.6846
19916TIP3   OH281238   1.221   2.354   2.387  0.1038 -0.5072 -0.0211
19916TIP3    H181239   1.264   2.270   2.402 -1.2011 -1.1745  0.1571
19916TIP3    H281240   1.204   2.388   2.475 -1.2261 -1.0740 -0.0282
19917TIP3   OH281241   3.634   5.604  14.488  0.6298  0.4280  0.0994
19917TIP3    H181242   3.589   5.683  14.460  0.2511 -0.2153 -1.1438
19917TIP3    H281243   3.571   5.534  14.475  1.2633 -0.2030  0.3468
19918TIP3   OH281244   2.999   0.638  16.020  0.0471 -0.3862 -0.1569
19918TIP3    H181245   3.093   0.639  15.999  0.0665 -0.1126 -0.0734
19918TIP3    H281246   2.990   0.570  16.087  0.6038  1.1736  1.6153
19919TIP3   OH281247   4.589   4.688  12.754 -0.0080 -0.3747  0.2675
19919TIP3    H181248   4.571   4.727  12.669  2.1383  2.7015  1.0495
19919TIP3    H281249   4.650   4.617  12.736 -1.4059 -1.3371 -0.9115
19920TIP3   OH281250   6.683   3.657  12.386 -0.0264  0.6070  0.1509
19920TIP3    H181251   6.675   3.744  12.346  0.2723  0.4312 -0.3091
19920TIP3    H281252   6.625   3.659  12.462 -1.7297  0.4939 -1.0821
19921TIP3   OH281253   1.238   5.211   4.554 -0.2117 -0.5806  0.3374
19921TIP3    H181254   1.201   5.148   4.491  0.2374 -1.2310  0.7129
19921TIP3    H281255   1.170   5.220   4.620  0.4062 -2.0782  1.2344
19922TIP3   OH281256   0.354   5.208   0.707 -0.3115 -0.2928  0.4857
19922TIP3    H181257   0.425   5.272   0.715 -0.5083 -0.0787  0.5182
19922TIP3    H281258   0.280   5.258   0.673 -0.0051 -0.8155 -1.0634
19923TIP3   OH281259   0.908   0.955  10.236 -0.5172 -0.7522 -0.0995
19923TIP3    H181260   0.935   0.878  10.287 -0.6974  1.1253  3.1210
19923TIP3    H281261   0.979   1.018  10.249 -2.6682  1.4561  1.9078
19924TIP3   OH281262   5.041   1.452   3.442  0.0917  0.1011 -0.3296
19924TIP3    H181263   4.963   1.400   3.460 -1.9104  2.6714 -1.0438
19924TIP3    H281264   5.061   1.495   3.525  0.1578  0.2178 -0.4068
19925TIP3   OH281265   2.106   3.501   2.950 -0.1930 -0.7848  0.3238
19925TIP3    H181266   2.065   3.426   2.993  0.9245 -1.6934 -0.1382
19925TIP3    H281267   2.140   3.466   2.867 -1.2589  0.6574 -0.7796
19926TIP3   OH281268   5.417   6.225   3.869 -0.3701 -0.2817  0.1395
19926TIP3    H181269   5.484   6.275   3.823 -0.0485  0.4701  1.3603
19926TIP3    H281270   5.343   6.285   3.877 -0.9104 -0.8476 -0.5305
19927TIP3   OH281271   2.774   0.013   3.919 -0.1208  0.0667 -0.1826
19927TIP3    H181272   2.861  -0.011   3.885  0.0225 -2.2560  1.5457
19927TIP3    H281273   2.720   0.025   3.841  1.6945  1.4722 -1.2955
19928TIP3   OH281274   2.462   5.516  14.074  0.9896  0.3409  0.3259
19928TIP3    H181275   2.458   5.424  14.100  1.4058 -0.0927 -1.0724
19928TIP3    H281276   2.554   5.539  14.085  1.0028  0.4041  0.0902
19929TIP3   OH281277   1.841   4.909  14.503  0.3905 -0.2227 -0.7944
19929TIP3    H181278   1.823   4.936  14.593  3.0839 -0.6304 -0.0391
19929TIP3    H281279   1.848   4.990  14.454 -1.4879 -0.0084 -0.7616
19930TIP3   OH281280   5.369   6.820   1.208  0.1083 -0.1689 -0.3008
19930TIP3    H181281   5.437   6.855   1.150  2.6575  0.9192  3.0465
19930TIP3    H281282   5.308   6.893   1.220 -0.4104 -0.3836 -1.4363
19931TIP3   OH281283   1.062   4.007   1.539  0.2763  0.1602 -0.2356
19931TIP3    H181284   1.138   4.064   1.524 -0.4032  1.2605  0.3042
19931TIP3    H281285   0.986   4.064   1.521 -0.4216 -0.7108 -0.0946
19932TIP3   OH281286   0.648   5.151   1.637  0.2117  0.4370  0.3912
19932TIP3    H181287   0.643   5.238   1.676  0.3450  0.5865  0.0829
19932TIP3    H281288   0.597   5.095   1.695  0.5996  0.6082  0.9042
19933TIP3   OH281289   2.620   2.877  14.350 -0.0001 -0.3040 -0.9469
19933TIP3    H181290   2.647   2.856  14.440 -1.0024 -0.1107 -0.5902
19933TIP3    H281291   2.533   2.915  14.359  0.6751  1.5721 -1.8188
19934TIP3   OH281292   1.243   4.055  16.188 -0.2044 -0.1133 -0.5186
19934TIP3    H181293   1.318   3.996  16.190 -0.6510 -0.7172 -1.3548
19934TIP3    H281294   1.278   4.139  16.221  0.5819 -0.6556  0.0695
19935TIP3   OH281295   2.301   3.107   4.928  0.4194 -0.0526  0.0186
19935TIP3    H181296   2.390   3.073   4.928  0.8311  0.9313 -1.2734
19935TIP3    H281297   2.260   3.069   5.006  1.2817 -2.2791 -0.5419
19936TIP3   OH281298   5.441   0.749  12.209 -0.8440 -0.3007 -0.2609
19936TIP3    H181299   5.421   0.659  12.234 -0.6516 -0.3765 -0.3822
19936TIP3    H281300   5.445   0.796  12.292 -2.2629 -0.1310 -0.2615
19937TIP3   OH281301   4.807   2.174   0.030 -0.0404 -0.3768 -0.0061
19937TIP3    H181302   4.789   2.249   0.087  3.0881  0.1666  0.4706
19937TIP3    H281303   4.902   2.164   0.033 -0.0928 -2.6768 -2.2542
19938TIP3   OH281304   5.279   5.438  16.916 -0.2143 -0.0125  0.6837
19938TIP3    H181305   5.225   5.458  16.992 -1.6548 -0.1690 -0.2576
19938TIP3    H281306   5.282   5.519  16.866 -1.8240 -0.6808 -0.5864
19939TIP3   OH281307   6.560   6.078  16.991 -0.0363  0.5273 -0.3374
19939TIP3    H181308   6.581   5.991  16.960  3.2076  1.2295 -0.4495
19939TIP3    H281309   6.567   6.072  17.086 -1.8653  0.2602 -0.1807
19940TIP3   OH281310   3.721   1.442   4.989  0.2557  0.9710 -0.3977
19940TIP3    H181311   3.692   1.370   4.934  0.0925  1.9386 -1.6240
19940TIP3    H281312   3.805   1.414   5.024 -0.4478 -0.3707  0.2725
19941TIP3   OH281313   4.626   6.004  11.885 -0.4952  0.2423 -0.1615
19941TIP3    H181314   4.539   5.991  11.846 -0.2980 -2.6468  0.1261
19941TIP3    H281315   4.610   6.005  11.979 -0.1736 -1.0152 -0.0825
19942TIP3   OH281316   2.826   5.071   3.104 -0.3072  0.5492  0.2949
19942TIP3    H181317   2.868   5.103   3.024  0.1529  0.5893  0.5501
19942TIP3    H281318   2.896   5.070   3.169  0.5377 -3.7711 -0.4013
19943TIP3   OH281319   1.283   1.863   1.343 -0.1901 -0.0300  0.1042
19943TIP3    H181320   1.324   1.934   1.294 -2.0440  0.5587 -0.7149
19943TIP3    H281321   1.226   1.820   1.279 -1.2155 -0.4626  1.2639
19944TIP3   OH281322   5.562   2.477  11.932 -0.2742 -0.4217  0.0635
19944TIP3    H181323   5.645   2.496  11.975  0.2898  0.7217 -1.4524
19944TIP3    H281324   5.505   2.445  12.003  1.2474 -0.6448  1.2318
19945TIP3   OH281325   6.223   1.235  13.553  0.5230 -0.7104  0.0477
19945TIP3    H181326   6.139   1.277  13.534  0.6159 -0.7520 -0.4684
19945TIP3    H281327   6.201   1.166  13.616  0.0484 -1.1761 -0.5978
19946TIP3   OH281328   1.363   2.708   1.417 -0.4004 -0.3376 -0.0688
19946TIP3    H181329   1.412   2.757   1.352 -0.2074 -0.2977  0.1062
19946TIP3    H281330   1.278   2.693   1.376 -1.3130  2.1359  0.7486
19947TIP3   OH281331   5.864   4.895  13.236 -0.1377  0.1801 -0.3344
19947TIP3    H181332   5.825   4.981  13.222 -0.5571 -0.0990 -0.8683
19947TIP3    H281333   5.958   4.913  13.241 -0.3365  0.9895  1.9382
19948TIP3   OH281334   2.023   5.533   6.376  0.0341 -0.4485 -0.1634
19948TIP3    H181335   2.011   5.591   6.451  0.6381 -0.2260 -0.2297
19948TIP3    H281336   2.083   5.465   6.407  1.0618  0.1708 -0.6929
19949TIP3   OH281337   3.127   3.251  11.445 -0.0562  0.2377  0.1291
19949TIP3    H181338   3.198   3.312  11.465 -0.9880  0.9969  1.3144
19949TIP3    H281339   3.079   3.243  11.528 -1.1976 -0.4451 -0.5791
19950TIP3   OH281340   0.571   1.452   0.643  0.1688 -0.5841  0.0186
19950TIP3    H181341   0.509   1.442   0.571 -0.7857  0.0771  0.7346
19950TIP3    H281342   0.572   1.367   0.687  1.4056 -1.2678 -1.2583
19951TIP3   OH281343   4.500   4.742   4.966  0.2277 -0.0092  0.3774
19951TIP3    H181344   4.488   4.809   4.899 -0.6785 -0.0298  0.5062
19951TIP3    H281345   4.569   4.776   5.023  1.0861 -0.0336 -0.6017
19952TIP3   OH281346   6.406   5.446   3.386  0.5594 -0.6287 -0.0930
19952TIP3    H181347   6.425   5.504   3.459  1.5687 -0.7702 -0.2371
19952TIP3    H281348   6.403   5.504   3.309  0.0647 -0.5619 -0.0272
19953TIP3   OH281349   0.207   5.981  17.179  0.2567  0.2211 -0.7012
19953TIP3    H181350   0.206   6.077  17.189  0.7585  0.1480  0.1373
19953TIP3    H281351   0.122   5.953  17.211  0.2936  0.3508 -0.4849
19954TIP3   OH281352   1.398   6.060   3.460  0.3972 -0.4193 -0.1766
19954TIP3    H181353   1.395   6.138   3.405 -1.3641 -0.5026 -0.2731
19954TIP3    H281354   1.490   6.050   3.483  0.6375  1.8242  0.0568
19955TIP3   OH281355   3.156   4.912  11.470  0.0845 -0.1741  0.3387
19955TIP3    H181356   3.081   4.953  11.427 -1.4037 -1.4731  1.5808
19955TIP3    H281357   3.174   4.834  11.419  0.6509  0.1604  0.0142
19956TIP3   OH281358   3.929   2.067  15.517  0.3515  0.6707  0.0197
19956TIP3    H181359   4.015   2.027  15.530 -0.4466 -0.8335  1.0401
19956TIP3    H281360   3.924   2.137  15.583  0.0271 -0.6360  1.4558
19957TIP3   OH281361   6.561   6.165  12.763 -0.4302  0.0481  0.0800
19957TIP3    H181362   6.474   6.166  12.803 -1.1717 -0.6572 -1.4294
19957TIP3    H281363   6.620   6.136  12.833 -1.7939 -2.0382  0.4472
19958TIP3   OH281364   1.826   3.347  14.328 -0.3148 -0.0482 -0.0167
19958TIP3    H181365   1.819   3.361  14.234  1.2285  2.6756  0.1663
19958TIP3    H281366   1.736   3.332  14.357 -0.6409 -2.7505 -2.0705
19959TIP3   OH281367   4.829   4.365  10.924 -0.1842  0.4221  0.1399
19959TIP3    H181368   4.741   4.354  10.960  0.4985  0.4229  1.9286
19959TIP3    H281369   4.848   4.281  10.883 -1.9269  1.2116 -2.5999
19960TIP3   OH281370   3.662   1.017   3.732 -0.1076 -0.2290  0.6249
19960TIP3    H181371   3.672   1.106   3.767  0.3523 -0.2553  0.5740
19960TIP3    H281372   3.674   1.027   3.637  0.6637 -0.4413  0.6928
19961TIP3   OH281373   1.369   0.024  12.732  0.1460 -0.0929  0.1479
19961TIP3    H181374   1.321  -0.054  12.760 -1.8294  1.2481  0.7570
19961TIP3    H281375   1.353   0.088  12.801  2.7472  0.5328  0.2713
19962TIP3   OH281376   3.671   4.532   4.352 -0.3307 -0.3749 -0.2288
19962TIP3    H181377   3.632   4.602   4.405  1.0873  0.4022 -0.1770
19962TIP3    H281378   3.702   4.576   4.273 -0.2594 -1.1109 -0.6172
19963TIP3   OH281379   5.567   6.822  16.794  0.0952 -0.3306 -0.2051
19963TIP3    H181380   5.662   6.832  16.803  0.2708 -3.1126  3.4923
19963TIP3    H281381   5.557   6.752  16.729  0.4287  1.0094 -1.7464
19964TIP3   OH281382   3.566   6.160   3.339  0.1646  0.5074  0.5930
19964TIP3    H181383   3.522   6.168   3.424 -0.0525 -0.0219  0.5341
19964TIP3    H281384   3.515   6.216   3.281  0.7139  1.4033  0.9607
19965TIP3   OH281385   6.755   6.400   2.978  0.6452 -0.5045 -0.4102
19965TIP3    H181386   6.841   6.418   2.941  0.7304 -0.3283 -0.1265
19965TIP3    H281387   6.722   6.326   2.927 -0.1727  1.0999 -2.3416
19966TIP3   OH281388   6.199   0.737   0.432  0.0571 -0.0917  0.5369
19966TIP3    H181389   6.209   0.655   0.384 -1.8963  1.9345 -3.9602
19966TIP3    H281390   6.287   0.760   0.460  1.0393 -2.4338 -0.4250
19967TIP3   OH281391   2.208   6.303   5.012 -0.1107  0.2121  0.6989
19967TIP3    H181392   2.251   6.287   5.096 -0.5437  1.4627  1.1817
19967TIP3    H281393   2.250   6.383   4.979 -1.5552  1.0805  0.8726
19968TIP3   OH281394   5.365   0.722  15.415 -0.9043  0.5115 -0.0896
19968TIP3    H181395   5.433   0.754  15.356  0.5308 -0.5083  0.9196
19968TIP3    H281396   5.322   0.651  15.367 -0.9665  0.8673 -0.5677
19969TIP3   OH281397   0.568   6.730  13.791  0.3095 -0.1500 -0.3006
19969TIP3    H181398   0.526   6.720  13.706  1.1838  0.3947 -0.8163
19969TIP3    H281399   0.572   6.824  13.805 -0.6893 -0.2479  0.8045
19970TIP3   OH281400   2.793   2.761   3.775  0.1211  0.5229  0.3924
19970TIP3    H181401   2.803   2.676   3.732 -0.5448  0.1790  0.9028
19970TIP3    H281402   2.820   2.745   3.866 -1.3853  0.4655  0.8702
19971TIP3   OH281403   3.736   2.688  10.497  0.2257  0.4016  0.0569
19971TIP3    H181404   3.777   2.721  10.577  2.2906  1.0623 -1.2043
19971TIP3    H281405   3.744   2.759  10.434  1.5102 -1.1581 -1.6576
19972TIP3   OH281406   5.652   1.117   3.889 -0.9575 -0.0066 -0.5290
19972TIP3    H181407   5.688   1.121   3.978 -0.4501  0.4421 -0.7496
19972TIP3    H281408   5.560   1.141   3.900 -1.2712 -1.3582  0.0711
19973TIP3   OH281409   5.631   1.220   3.403 -0.4394  0.6056 -0.0785
19973TIP3    H181410   5.695   1.254   3.465 -1.5123  1.8310  0.3930
19973TIP3    H281411   5.613   1.131   3.433  1.6952 -0.1176 -0.7621
19974TIP3   OH281412   6.015   2.175  11.596  0.1742  0.2112 -0.1105
19974TIP3    H181413   6.108   2.197  11.596  0.3879 -0.3616  2.6756
19974TIP3    H281414   6.013   2.080  11.590 -0.3388  0.2901 -1.6178
19975TIP3   OH281415   0.826   6.258  13.600  0.1164 -0.1092 -0.6001
19975TIP3    H181416   0.775   6.315  13.658 -2.0026 -1.6982 -0.7833
19975TIP3    H281417   0.852   6.315  13.527  1.9352  1.6672  1.2859
19976TIP3   OH281418   5.628   2.489  12.800 -0.0783 -0.2208 -0.5176
19976TIP3    H181419   5.659   2.536  12.878  0.7148  0.6809 -1.3383
19976TIP3    H281420   5.588   2.556  12.746  1.1597 -0.4262 -1.7618
19977TIP3   OH281421   3.660   3.810   5.187  0.6049  0.6055  0.2505
19977TIP3    H181422   3.718   3.783   5.259  1.3740  1.7365  0.0899
19977TIP3    H281423   3.715   3.865   5.132 -0.1700  0.2914 -0.8571
19978TIP3   OH281424   3.401   3.387   5.622 -0.3231  0.0910 -0.2696
19978TIP3    H181425   3.416   3.436   5.703  2.1351  0.4480 -0.8650
19978TIP3    H281426   3.420   3.296   5.644 -0.4958  0.0580 -0.2519
19979TIP3   OH281427   0.448   2.543   6.403  0.4920  0.0621  0.5604
19979TIP3    H181428   0.517   2.494   6.449 -0.0114 -0.6109  0.6242
19979TIP3    H281429   0.367   2.517   6.448  0.1522  0.5120  0.2145
19980TIP3   OH281430   3.134   4.482   4.715  0.5802  0.4663  0.3789
19980TIP3    H181431   3.123   4.473   4.810  1.9414  1.1790  0.6277
19980TIP3    H281432   3.045   4.495   4.682  0.2334  2.0299  1.7769
19981TIP3   OH281433   2.803   1.277  11.390  0.2600 -0.1890  0.1216
19981TIP3    H181434   2.730   1.218  11.406 -2.2732  1.6809 -3.1235
19981TIP3    H281435   2.851   1.237  11.318  1.3096 -0.4785  0.9695
19982TIP3   OH281436   3.081   2.884  14.326  0.0750 -0.2536 -0.1170
19982TIP3    H181437   2.999   2.841  14.302 -0.4471  0.3846  0.4785
19982TIP3    H281438   3.062   2.978  14.319  0.9716 -0.0987 -0.6769
19983TIP3   OH281439   1.628   2.308   3.848  0.2449 -1.0368  0.0065
19983TIP3    H181440   1.634   2.379   3.912 -0.8810 -2.2525  1.5477
19983TIP3    H281441   1.602   2.232   3.900  0.2956 -2.3211 -1.7734
19984TIP3   OH281442   6.029   5.874   2.074  0.2241 -0.0464  0.0384
19984TIP3    H181443   5.950   5.923   2.053 -0.3192 -0.8537  0.1761
19984TIP3    H281444   6.029   5.800   2.014  0.2910 -0.6509  0.7639
19985TIP3   OH281445   6.442   6.095   3.119  0.0749 -0.0031  0.2341
19985TIP3    H181446   6.350   6.068   3.126 -0.5084  1.6801 -0.4933
19985TIP3    H281447   6.453   6.163   3.185  0.8817 -0.3460  0.4702
19986TIP3   OH281448   5.971   4.255   1.837 -0.1911  0.3013  0.5172
19986TIP3    H181449   5.969   4.347   1.865 -0.2940  0.0910  1.2145
19986TIP3    H281450   5.914   4.252   1.760  0.6667  1.0325 -0.1815
19987TIP3   OH281451   2.598   2.152   2.575  0.5391  0.3381  0.0073
19987TIP3    H181452   2.668   2.160   2.511 -1.8255  1.4288 -2.6585
19987TIP3    H281453   2.584   2.057   2.583  1.4909  0.1574 -0.3545
19988TIP3   OH281454   2.339   2.274   4.205  0.1894 -0.0574 -0.3735
19988TIP3    H181455   2.338   2.203   4.269 -2.6177  0.0573 -0.1456
19988TIP3    H281456   2.343   2.229   4.120  1.2058 -0.3325 -0.1904
19989TIP3   OH281457   3.110   0.422   2.856 -0.2960  0.3807  0.0338
19989TIP3    H181458   3.141   0.496   2.909 -1.3957  0.9000 -0.0228
19989TIP3    H281459   3.043   0.460   2.799  0.1771 -0.3691 -1.0486
19990TIP3   OH281460   3.717   3.432   3.996  0.8157  0.0593 -0.1305
19990TIP3    H181461   3.668   3.488   4.055  0.6887 -0.2852  0.0965
19990TIP3    H281462   3.759   3.368   4.053 -0.5911 -1.2653 -0.5195
19991TIP3   OH281463   2.675   5.525   1.403  0.0338 -0.1062  0.2733
19991TIP3    H181464   2.710   5.578   1.332 -0.8609  1.3836  0.9080
19991TIP3    H281465   2.581   5.541   1.403 -0.5240 -2.8332 -0.4027
19992TIP3   OH281466   5.666   3.805  12.284  0.5313 -0.1103 -0.2195
19992TIP3    H181467   5.619   3.843  12.210  1.2478 -1.9141 -1.6669
19992TIP3    H281468   5.711   3.729  12.248  2.3573 -0.0378  1.7003
19993TIP3   OH281469   3.153   5.487  14.430 -0.3275  0.7718 -0.2333
19993TIP3    H181470   3.110   5.462  14.347 -1.2148  1.1564  0.0982
19993TIP3    H281471   3.146   5.408  14.484  2.5855 -0.4104 -1.3798
19994TIP3   OH281472   4.317   2.912  14.680  0.2354 -0.1159 -0.8090
19994TIP3    H181473   4.332   2.922  14.586  0.1575 -1.5397 -0.9874
19994TIP3    H281474   4.251   2.843  14.687 -0.4861  0.6442  0.2601
19995TIP3   OH281475   1.318   5.295  12.057 -0.0722  0.1100 -0.4421
19995TIP3    H181476   1.313   5.388  12.035 -0.3858  0.0018 -0.8323
19995TIP3    H281477   1.319   5.293  12.153  1.8505  0.6101 -0.4218
19996TIP3   OH281478   5.094   1.252  15.574  0.3839 -0.0091  0.1689
19996TIP3    H181479   5.005   1.283  15.556  0.7420  0.7004 -0.4150
19996TIP3    H281480   5.082   1.163  15.608 -0.5613  0.1651  0.3199
19997TIP3   OH281481   4.236   6.021  14.881  0.4030 -0.4471 -0.0943
19997TIP3    H181482   4.286   6.001  14.802 -0.6346  0.5663 -1.0345
19997TIP3    H281483   4.145   6.004  14.858 -0.0570  1.1312  0.4235
19998TIP3   OH281484   6.618   3.675   3.030  0.9657 -0.9246 -0.1706
19998TIP3    H181485   6.646   3.627   2.953  2.0527 -0.9099  0.2019
19998TIP3    H281486   6.697   3.720   3.061 -0.7036  5.4374 -3.4124
19999TIP3   OH281487   1.699   6.135   2.206  0.1242 -0.6635 -0.3034
19999TIP3    H181488   1.741   6.220   2.222 -0.3276 -0.6205  0.7759
19999TIP3    H281489   1.606   6.155   2.197  0.0451 -1.0116 -0.2875
20000TIP3   OH281490   2.400   2.877  14.885 -0.0794  0.1746  0.8271
20000TIP3    H181491   2.439   2.964  14.895  0.0920 -0.0077  1.8269
20000TIP3    H281492   2.414   2.835  14.970  0.0497 -0.9173  0.2792
20001TIP3   OH281493   5.373   5.827   0.649  0.2871 -0.2900  0.6103
20001TIP3    H181494   5.292   5.878   0.660 -0.7040 -1.4039 -1.0002
20001TIP3    H281495   5.410   5.858   0.566 -0.8751 -2.7077 -0.9585
20002TIP3   OH281496   4.128   6.232   1.916  0.4628  1.1332  0.3118
20002TIP3    H181497   4.175   6.233   1.833 -1.2531  1.7801 -0.7139
20002TIP3    H281498   4.164   6.306   1.965  2.0784  0.2388  0.5273
20003TIP3   OH281499   3.750   0.168  13.325 -0.6194  0.6798 -0.0049
20003TIP3    H181500   3.716   0.141  13.411 -0.4492  0.0502 -0.1274
20003TIP3    H281501   3.845   0.162  13.334 -0.6048  0.4892 -0.2740
20004TIP3   OH281502   5.094   4.669  13.745  0.5554  0.0063  0.4419
20004TIP3    H181503   5.147   4.593  13.768  1.9033  0.7930  0.0208
20004TIP3    H281504   5.148   4.719  13.684 -1.5388 -0.2890 -1.8130
20005TIP3   OH281505   5.853   5.575   2.219  0.0566  0.4733  0.1997
20005TIP3    H181506   5.872   5.582   2.125 -1.7795 -0.6708 -0.3105
20005TIP3    H281507   5.802   5.494   2.227  0.8458  0.1306  2.3145
20006TIP3   OH281508   5.948   4.091   1.283  0.7485 -0.1700  0.1089
20006TIP3    H181509   6.015   4.122   1.222  0.0754 -0.8768 -1.0295
20006TIP3    H281510   5.887   4.165   1.291 -0.2224 -0.7334 -1.6675
20007TIP3   OH281511   1.875   2.773   5.263 -0.3706 -0.0946  0.6229
20007TIP3    H181512   1.879   2.868   5.253 -2.4859  0.0581  0.7643
20007TIP3    H281513   1.950   2.740   5.213 -0.2071  1.5950 -0.3061
20008TIP3   OH281514   0.661   2.343   5.022 -0.6051 -0.1478 -0.0265
20008TIP3    H181515   0.598   2.298   5.078 -1.2091  0.6493 -0.0381
20008TIP3    H281516   0.634   2.435   5.025 -0.2642  0.0055 -1.1165
20009TIP3   OH281517   0.678   1.376  15.708  0.3914 -0.7460 -0.0880
20009TIP3    H181518   0.627   1.443  15.753 -0.2411 -1.9742  1.0874
20009TIP3    H281519   0.756   1.422  15.678 -0.3544  0.6703  0.0591
20010TIP3   OH281520   5.787   3.278  16.960 -0.3590  0.0231  0.3062
20010TIP3    H181521   5.736   3.199  16.939 -0.4006  0.2782 -0.6228
20010TIP3    H281522   5.737   3.321  17.029 -1.6341  0.4630 -0.8452
20011TIP3   OH281523   2.969   1.270  16.186  0.0996  0.0637 -0.0508
20011TIP3    H181524   3.016   1.187  16.175 -2.0262 -1.1945 -0.4310
20011TIP3    H281525   2.918   1.279  16.105 -0.3955  1.2775  0.3716
20012TIP3   OH281526   1.299   3.686  12.197 -0.7059 -0.0731 -0.3230
20012TIP3    H181527   1.223   3.708  12.250 -0.6791 -1.5475  0.3802
20012TIP3    H281528   1.281   3.598  12.164  1.1612 -0.9609  0.8290
20013TIP3   OH281529   5.869   4.863   5.357  0.3912 -0.3395 -0.0684
20013TIP3    H181530   5.935   4.830   5.418 -0.1547  0.8015  1.1893
20013TIP3    H281531   5.788   4.821   5.385  0.2997 -0.5517 -0.6388
20014TIP3   OH281532   3.030   2.976   1.765  0.5848 -0.6278  0.3465
20014TIP3    H181533   3.106   2.954   1.818  1.0047  0.3722  0.1797
20014TIP3    H281534   2.955   2.954   1.821  1.0144  0.5144  1.4334
20015TIP3   OH281535   6.164   5.105  12.910  0.1680  0.4107  0.3191
20015TIP3    H181536   6.148   5.171  12.978  1.1275  1.5632 -0.5326
20015TIP3    H281537   6.076   5.079  12.882 -0.3269  2.8695 -0.7417
20016TIP3   OH281538   2.604   0.097   0.274 -0.6074  0.8276  0.0729
20016TIP3    H181539   2.684   0.065   0.233 -0.2297 -1.9824  2.6865
20016TIP3    H281540   2.615   0.192   0.277  1.5348  0.7050 -1.6880
20017TIP3   OH281541   0.300   1.650   0.587  0.2269  0.1615 -0.0426
20017TIP3    H181542   0.280   1.562   0.620  1.4954 -0.3075 -0.4320
20017TIP3    H281543   0.252   1.656   0.504 -1.6113  0.6969  1.0129
20018TIP3   OH281544   3.391   5.792  16.861  0.2535  0.4923  0.1592
20018TIP3    H181545   3.399   5.819  16.770 -0.8404  2.5963  0.6262
20018TIP3    H281546   3.390   5.874  16.911  1.5257 -0.6145  2.1489
20019TIP3   OH281547   1.019   5.399  14.226  0.2727  0.2679  0.4520
20019TIP3    H181548   1.083   5.348  14.176 -0.8045 -1.8129  1.0869
20019TIP3    H281549   1.067   5.427  14.305  0.5856 -0.7952  0.6578
20020TIP3   OH281550   5.173   4.636  16.632  0.4200  0.0397  0.1970
20020TIP3    H181551   5.082   4.664  16.643 -0.0019  0.4919 -3.3905
20020TIP3    H281552   5.167   4.544  16.609  0.9439 -0.1000  0.6090
20021TIP3   OH281553   2.390   4.071  14.745 -0.8512  0.0702 -0.3222
20021TIP3    H181554   2.432   4.157  14.748 -0.1966 -0.1955 -1.3998
20021TIP3    H281555   2.348   4.068  14.659  0.3708 -1.2305 -0.9195
20022TIP3   OH281556   0.682   3.473   4.882  0.3477  0.0215  0.2459
20022TIP3    H181557   0.678   3.510   4.793  1.3034  1.8458  0.9120
20022TIP3    H281558   0.721   3.543   4.935  0.1822 -1.1889  2.0315
20023TIP3   OH281559   4.819   4.340   5.651  0.5882 -0.0750 -0.2697
20023TIP3    H181560   4.829   4.432   5.627 -1.1610  0.7646  1.8797
20023TIP3    H281561   4.907   4.313   5.677  1.1287  0.9708 -0.9173
20024TIP3   OH281562   6.183   4.957   0.001  0.5086  0.4172 -0.9040
20024TIP3    H181563   6.242   4.899  -0.047  0.0440 -0.1366 -0.8189
20024TIP3    H281564   6.223   4.964   0.088 -1.1892 -2.6721  0.2969
20025TIP3   OH281565   4.581   4.563  11.460  0.0556 -0.1630 -0.2822
20025TIP3    H181566   4.521   4.618  11.510  0.8433  2.0995 -1.6757
20025TIP3    H281567   4.666   4.606  11.470  0.5166 -0.5715 -2.2014
20026TIP3   OH281568   0.365   3.684   0.893  0.0187  0.3890  0.0629
20026TIP3    H181569   0.441   3.648   0.847  0.4563 -0.2024  1.2263
20026TIP3    H281570   0.309   3.717   0.822  0.0563 -1.6937 -1.0429
20027TIP3   OH281571   6.583   1.274  11.764 -0.0315  0.0880  0.1333
20027TIP3    H181572   6.520   1.232  11.705  1.5401 -0.2596 -1.3978
20027TIP3    H281573   6.664   1.226  11.750  1.1150  1.8352  0.4564
20028TIP3   OH281574   0.656   3.780  17.206 -0.3133 -0.2657 -0.0140
20028TIP3    H181575   0.603   3.705  17.183 -0.6291 -0.6697  1.8611
20028TIP3    H281576   0.607   3.856  17.173 -0.8122 -0.7744 -0.4491
20029TIP3   OH281577   1.353   0.715   0.700 -0.2672 -0.0170  0.3144
20029TIP3    H181578   1.422   0.779   0.716 -0.2280 -0.4553  2.1376
20029TIP3    H281579   1.397   0.643   0.656 -0.3666  1.2491 -2.0253
20030TIP3   OH281580   1.472   2.905  11.254 -0.5535  0.2274 -0.4409
20030TIP3    H181581   1.526   2.935  11.181  1.7504 -0.4248  0.8894
20030TIP3    H281582   1.470   2.979  11.315 -0.4554 -0.0244 -0.1274
20031TIP3   OH281583   0.234   0.587   2.832 -0.3763 -0.0677 -0.7115
20031TIP3    H181584   0.170   0.649   2.866 -0.6875 -0.1730 -1.0934
20031TIP3    H281585   0.289   0.638   2.772  1.4041  0.5781  1.3431
20032TIP3   OH281586   1.913   2.582   1.297  0.1520 -0.3015 -0.2503
20032TIP3    H181587   2.001   2.580   1.334 -0.1016 -0.4771  0.3640
20032TIP3    H281588   1.924   2.620   1.210  0.3925  3.0369  1.0880
20033TIP3   OH281589   1.949   3.364   4.312  0.6456 -0.2903  0.2202
20033TIP3    H181590   1.894   3.348   4.236 -0.8258  0.6711  1.0364
20033TIP3    H281591   2.002   3.440   4.288 -2.0019  2.0116  1.1677
20034TIP3   OH281592   4.586   3.395   3.767 -0.8515 -0.3372 -0.0770
20034TIP3    H181593   4.553   3.365   3.682  0.3325  1.1279 -1.1206
20034TIP3    H281594   4.570   3.489   3.766 -0.7926 -0.2953  1.3426
20035TIP3   OH281595   4.692   5.598   0.372  0.2129  0.1206 -0.1181
20035TIP3    H181596   4.633   5.566   0.440  0.4800  1.5176  0.8091
20035TIP3    H281597   4.654   5.566   0.290  0.4252 -2.4513  0.6812
20036TIP3   OH281598   6.403   5.218   1.482 -0.0123  0.3714  0.3297
20036TIP3    H181599   6.461   5.152   1.445 -0.9238 -0.2073 -0.1034
20036TIP3    H281600   6.327   5.169   1.511 -1.0126  1.2932 -0.6315
20037TIP3   OH281601   6.319   5.410   4.934  0.2873 -0.1474 -0.2109
20037TIP3    H181602   6.259   5.354   4.885  0.1813  0.3549 -0.6565
20037TIP3    H281603   6.377   5.349   4.980  0.1451 -0.6243 -0.6625
20038TIP3   OH281604   1.803   3.970  15.853 -0.3929  0.0897  0.3080
20038TIP3    H181605   1.878   3.926  15.894 -1.4863 -2.0773  0.1139
20038TIP3    H281606   1.834   4.059  15.837  1.4626 -0.1588  2.0432
20039TIP3   OH281607   1.171   2.097  14.587  0.4358  0.3477 -0.4173
20039TIP3    H181608   1.137   2.041  14.657  1.5353 -0.7972 -0.7753
20039TIP3    H281609   1.266   2.098  14.601  0.8091 -0.7705 -2.4962
20040TIP3   OH281610   5.082   6.783   0.755  0.1267 -0.1604 -0.4576
20040TIP3    H181611   5.096   6.693   0.726  1.1184  0.2632 -1.3404
20040TIP3    H281612   5.117   6.786   0.844 -0.1792 -0.7085 -0.3124
20041TIP3   OH281613   2.063   2.725   2.422 -0.2661  0.4316  0.7319
20041TIP3    H181614   2.093   2.636   2.404 -0.3079  0.2367  1.5875
20041TIP3    H281615   2.144   2.776   2.434 -0.2478  0.2977  1.2034
20042TIP3   OH281616   3.456   5.229  11.732  0.6885 -0.1426 -0.0465
20042TIP3    H181617   3.480   5.320  11.714  1.3901 -0.4118 -0.5089
20042TIP3    H281618   3.363   5.233  11.754  0.9131  0.8002  0.8030
20043TIP3   OH281619   5.429   3.945   3.800  0.3666  0.3352  0.2429
20043TIP3    H181620   5.424   3.929   3.706  0.3815  0.8217  0.1602
20043TIP3    H281621   5.388   4.030   3.813  1.6947  0.9679  0.4838
20044TIP3   OH281622   0.932   5.051  11.306  0.6072 -0.3459 -0.2865
20044TIP3    H181623   0.951   5.021  11.395  0.1672  1.0690  0.3194
20044TIP3    H281624   0.887   4.977  11.265  1.3308 -1.2318  0.4579
20045TIP3   OH281625   3.866   4.208  14.725  0.1951  0.0890 -0.2705
20045TIP3    H181626   3.933   4.216  14.657  0.8709 -3.0910 -0.1274
20045TIP3    H281627   3.860   4.114  14.742 -2.6703  0.4575  1.4028
20046TIP3   OH281628   1.233   2.269   4.547 -0.0213 -0.0660 -0.1521
20046TIP3    H181629   1.325   2.254   4.572  0.6313 -0.5361 -2.5450
20046TIP3    H281630   1.205   2.186   4.509 -0.8535  0.6002 -1.0588
20047TIP3   OH281631   5.724   2.942  14.205 -0.2077  0.0963 -0.7457
20047TIP3    H181632   5.653   2.969  14.264  0.2470 -2.7933  1.3815
20047TIP3    H281633   5.802   2.944  14.260  0.7009 -0.2507 -1.9972
20048TIP3   OH281634   0.610   1.723  16.267 -0.1336 -0.3245  0.5005
20048TIP3    H181635   0.611   1.641  16.316  1.0793 -0.3756  0.4310
20048TIP3    H281636   0.633   1.698  16.178  0.4629  0.0980  0.5246
20049TIP3   OH281637   5.097   3.085  11.886 -0.0152  0.6856 -0.0742
20049TIP3    H181638   5.030   3.124  11.831  0.0545  3.0331  1.3811
20049TIP3    H281639   5.049   3.023  11.941 -0.9665  1.9747  0.6142
20050TIP3   OH281640   2.410   6.594   0.605  0.1641 -0.3361  0.4958
20050TIP3    H181641   2.393   6.550   0.521  1.4670  0.4318 -0.2060
20050TIP3    H281642   2.389   6.529   0.671 -1.9715 -0.6089 -0.3618
20051TIP3   OH281643   2.693   5.577   1.692 -0.7376 -0.4440 -0.4530
20051TIP3    H181644   2.708   5.504   1.632  3.3979 -1.1820  1.1509
20051TIP3    H281645   2.697   5.655   1.637 -0.7813 -1.2359 -1.6075
20052TIP3   OH281646   3.770   0.269  14.373  0.0249  0.0280 -0.6033
20052TIP3    H181647   3.752   0.298  14.463  0.7751  1.8920 -1.0068
20052TIP3    H281648   3.750   0.176  14.374  1.8199 -0.4511  2.0294
20053TIP3   OH281649   4.260   2.802  10.742 -0.2027 -0.6773  0.1096
20053TIP3    H181650   4.205   2.770  10.670 -0.8445 -0.5005  0.5202
20053TIP3    H281651   4.199   2.825  10.811  0.4642 -2.0051  1.2000
20054TIP3   OH281652   4.944   1.767   2.169 -0.0284  0.1413 -0.3211
20054TIP3    H181653   4.983   1.767   2.081 -0.9876  1.7487 -0.7854
20054TIP3    H281654   4.855   1.734   2.155  0.3927 -1.4086  0.3904
20055TIP3   OH281655   6.551   3.865   1.107 -0.3350  0.0991 -0.0445
20055TIP3    H181656   6.463   3.845   1.075 -0.8629 -0.5325  1.6782
20055TIP3    H281657   6.546   3.851   1.202  1.6599 -0.0656  0.0840
20056TIP3   OH281658   3.073   1.094  13.885 -0.3754 -0.2625 -0.4837
20056TIP3    H181659   3.024   1.037  13.944 -0.7198 -0.2629 -0.7697
20056TIP3    H281660   3.073   1.179  13.929  0.9388 -0.6749  0.4011
20057TIP3   OH281661   3.443   3.950  10.645  0.0935  0.2686 -0.1860
20057TIP3    H181662   3.461   3.891  10.572 -2.2982 -0.9226  0.1082
20057TIP3    H281663   3.506   4.022  10.633 -0.2537  0.1843 -3.4716
20058TIP3   OH281664   1.567   4.073  16.704  0.6631  0.5198  0.6556
20058TIP3    H181665   1.645   4.027  16.673  1.1866  1.9174 -0.1599
20058TIP3    H281666   1.582   4.165  16.681 -1.9194  0.6245 -1.0182
20059TIP3   OH281667   1.786   4.290  15.758  0.3475 -0.3615  0.4782
20059TIP3    H181668   1.735   4.368  15.784  1.2759  0.3308  0.2700
20059TIP3    H281669   1.848   4.278  15.830  2.6413  1.3012 -1.0719
20060TIP3   OH281670   6.579   4.899  17.242  0.2162  0.0189  0.3191
20060TIP3    H181671   6.618   4.859  17.164  1.0103 -0.3189  0.8806
20060TIP3    H281672   6.577   4.993  17.223 -0.3154 -0.1253 -0.4134
20061TIP3   OH281673   1.772   3.641  12.509  0.5826  0.2932 -0.2621
20061TIP3    H181674   1.852   3.606  12.549  0.5848  0.9242  0.2993
20061TIP3    H281675   1.779   3.736  12.521 -0.2909  0.3461 -0.1565
20062TIP3   OH281676   3.614   2.747  10.805  0.5003 -0.0313 -0.3537
20062TIP3    H181677   3.698   2.780  10.774 -0.4868  1.5603 -1.5020
20062TIP3    H281678   3.578   2.697  10.732 -0.5475  1.2881 -0.8018
20063TIP3   OH281679   5.118   5.685  15.436 -0.1768  0.0922  0.2242
20063TIP3    H181680   5.039   5.644  15.470 -0.2423  0.0583  0.0375
20063TIP3    H281681   5.115   5.666  15.342 -0.9890  1.7754 -0.1297
20064TIP3   OH281682   5.274   3.670  16.806 -0.0224 -0.5769 -0.5062
20064TIP3    H181683   5.195   3.636  16.848  0.5832 -1.1988  0.1637
20064TIP3    H281684   5.310   3.595  16.760  0.8561 -0.6321  0.2494
20065TIP3   OH281685   2.163   0.305   5.372 -0.2268 -0.2020  0.8163
20065TIP3    H181686   2.249   0.263   5.362 -0.9098 -1.5198  0.2906
20065TIP3    H281687   2.145   0.343   5.286 -0.4681 -0.5152  0.7271
20066TIP3   OH281688   3.495   0.525  16.396  0.3036 -0.5141 -0.1126
20066TIP3    H181689   3.491   0.486  16.484  0.4936 -0.4333 -0.0662
20066TIP3    H281690   3.585   0.559  16.390  0.2300 -0.3492 -0.2649
20067TIP3   OH281691   5.002   4.144   3.254 -0.3299  0.2015  0.2026
20067TIP3    H181692   4.926   4.196   3.281  1.2069  1.2058  3.0343
20067TIP3    H281693   5.016   4.083   3.327  0.7887 -0.9023 -0.8911
20068TIP3   OH281694   6.514   4.140  12.170  0.0301 -0.2838 -0.1457
20068TIP3    H181695   6.439   4.166  12.117  0.3794 -1.1113 -1.0798
20068TIP3    H281696   6.479   4.132  12.259 -0.8834 -0.2452 -0.4929
20069TIP3   OH281697   5.788   3.126   3.064  0.0876  0.4692 -0.3406
20069TIP3    H181698   5.697   3.099   3.075  0.0157  0.5548 -0.7261
20069TIP3    H281699   5.819   3.080   2.986  1.2472 -1.7916  1.3498
20070TIP3   OH281700   5.459   5.316   5.947  0.1680 -0.4454  0.1096
20070TIP3    H181701   5.375   5.287   5.981 -0.1720  0.6918  0.2806
20070TIP3    H281702   5.520   5.303   6.019  0.6525 -3.3539 -0.7015
20071TIP3   OH281703   1.388   0.017  16.149  0.0233 -0.6277  0.2366
20071TIP3    H181704   1.429   0.046  16.230  0.6390 -1.5099  0.2624
20071TIP3    H281705   1.357  -0.072  16.168 -0.9636 -0.3647 -0.1130
20072TIP3   OH281706   5.825   6.780  10.492 -0.5035 -0.4393 -0.1033
20072TIP3    H181707   5.737   6.744  10.503 -1.1869  0.8983 -1.0087
20072TIP3    H281708   5.821   6.866  10.533  0.5832 -0.6295  0.4256
20073TIP3   OH281709   1.032   2.856   5.405  0.1093  0.1402 -0.0264
20073TIP3    H181710   1.072   2.773   5.430 -0.5646 -0.8271 -1.9412
20073TIP3    H281711   1.104   2.920   5.408  0.3532 -0.1410  2.8062
20074TIP3   OH281712   4.095   6.639   4.164 -0.1087 -0.3764  0.1917
20074TIP3    H181713   4.134   6.688   4.235  0.2052 -1.0725  0.5006
20074TIP3    H281714   4.165   6.629   4.099 -0.6413  1.0548 -0.6496
20075TIP3   OH281715   4.430   0.910   1.097 -0.2860 -0.5363 -0.6210
20075TIP3    H181716   4.388   0.883   1.016  0.8741 -1.5798 -0.8942
20075TIP3    H281717   4.429   1.006   1.094 -0.2378 -0.5638 -1.8653
20076TIP3   OH281718   5.908   2.955  11.726 -0.0076 -0.1371  0.2387
20076TIP3    H181719   5.987   2.994  11.687 -1.1122  2.7026  0.6100
20076TIP3    H281720   5.848   2.945  11.652 -0.0423 -0.3050  0.2903
20077TIP3   OH281721   0.340   5.452  14.419 -0.4758  0.7281  0.1452
20077TIP3    H181722   0.425   5.464  14.378  0.1962  0.6568  1.4773
20077TIP3    H281723   0.352   5.379  14.480 -1.5943  0.4649  0.0803
20078TIP3   OH281724   5.848   2.038   3.629  0.0800  0.6406 -0.4814
20078TIP3    H181725   5.873   1.956   3.586  1.3408  0.6683  0.1433
20078TIP3    H281726   5.869   2.023   3.722 -0.1633  1.4868 -0.2811
20079TIP3   OH281727   6.207   4.811  13.681  0.3501 -0.3502  0.0297
20079TIP3    H181728   6.155   4.755  13.622  1.0258  0.0286 -0.9536
20079TIP3    H281729   6.223   4.890  13.629 -1.4549  1.2466  1.7333
20080TIP3   OH281730   2.586   6.039   3.615 -0.4101  0.3418  0.3017
20080TIP3    H181731   2.581   5.960   3.669 -0.9321 -0.0692 -0.3343
20080TIP3    H281732   2.646   6.097   3.662 -1.3208  0.2395  1.6542
20081TIP3   OH281733   3.268   0.186  16.843  0.2689  0.1185  0.7641
20081TIP3    H181734   3.203   0.246  16.806 -0.1258 -1.8763 -2.1331
20081TIP3    H281735   3.351   0.232  16.835 -0.3206  1.2225  0.8767
20082TIP3   OH281736   1.413   3.053   0.483  1.2182  0.1279 -0.0762
20082TIP3    H181737   1.386   3.136   0.443 -0.5180 -0.4585 -0.2122
20082TIP3    H281738   1.392   3.062   0.576  1.6409  0.0699  0.0287
20083TIP3   OH281739   4.575   3.858  13.975 -0.1256  0.0815  0.4991
20083TIP3    H181740   4.493   3.907  13.973 -0.8650 -1.0837 -2.2299
20083TIP3    H281741   4.637   3.917  14.017 -1.3988  2.6640 -0.9971
20084TIP3   OH281742   0.307   2.921   5.032  0.3245  0.6335 -0.4967
20084TIP3    H181743   0.283   2.984   5.100 -0.1969  1.2017 -1.1940
20084TIP3    H281744   0.380   2.872   5.070 -1.6896 -0.9615  1.5788
20085TIP3   OH281745   3.166   0.838  16.809 -0.0202 -0.0920 -0.0721
20085TIP3    H181746   3.114   0.817  16.887  0.1119  1.6192  0.5096
20085TIP3    H281747   3.124   0.916  16.772 -0.3087 -1.0726 -1.9681
20086TIP3   OH281748   6.127   2.393  14.453  0.5817  0.5915  0.3689
20086TIP3    H181749   6.051   2.450  14.461  0.8159  1.0705 -0.6197
20086TIP3    H281750   6.202   2.451  14.469  0.8384  0.6709 -0.9837
20087TIP3   OH281751   6.474   1.494  14.888 -0.0432 -0.3692  0.3288
20087TIP3    H181752   6.510   1.405  14.888  0.2587 -0.3226 -2.4430
20087TIP3    H281753   6.402   1.491  14.825  0.8651  1.6336 -0.8999
20088TIP3   OH281754   1.457   0.901   4.971 -0.7048  0.1420  0.2065
20088TIP3    H181755   1.529   0.952   4.932 -1.0526  0.8258  0.4458
20088TIP3    H281756   1.475   0.902   5.065 -1.4115  0.9341  0.3407
20089TIP3   OH281757   2.427   1.906  11.069  0.0225 -0.1244  0.0675
20089TIP3    H181758   2.358   1.914  11.134  1.0778  0.7970  1.1318
20089TIP3    H281759   2.381   1.899  10.985 -1.3510 -0.4172  0.8166
20090TIP3   OH281760   6.216   1.415  16.069  0.3147  0.1663  0.1563
20090TIP3    H181761   6.230   1.419  15.975 -1.7097 -0.1469 -0.2040
20090TIP3    H281762   6.209   1.321  16.088 -1.9806  0.2653  0.1032
20091TIP3   OH281763   4.781   1.218   0.897  0.6997  0.6380 -0.4089
20091TIP3    H181764   4.875   1.219   0.878  1.0370  0.0854  1.1236
20091TIP3    H281765   4.769   1.141   0.953 -0.7372  0.4991 -0.8671
20092TIP3   OH281766   3.071   2.634   3.546 -0.5698  0.4297  0.4074
20092TIP3    H181767   2.987   2.667   3.578 -0.6985  0.4006  0.1017
20092TIP3    H281768   3.053   2.602   3.458  0.2355  2.5476 -0.5939
20093TIP3   OH281769   6.446   3.842  11.447 -0.2072 -0.1963 -0.7106
20093TIP3    H181770   6.496   3.790  11.383 -1.8925 -0.0051 -2.2660
20093TIP3    H281771   6.502   3.916  11.466  0.3601 -0.2577 -1.9996
20094TIP3   OH281772   0.348   4.987   3.241 -0.1272  0.1754  0.4922
20094TIP3    H181773   0.430   4.970   3.194  0.3684  1.9034  0.6298
20094TIP3    H281774   0.373   4.988   3.333 -0.7512 -1.4239  0.7032
20095TIP3   OH281775   5.187   3.768   5.179 -0.3348  0.3777 -0.2050
20095TIP3    H181776   5.179   3.796   5.088  1.9115  0.9004 -0.3038
20095TIP3    H281777   5.213   3.676   5.173  0.5725  0.6154 -0.1562
20096TIP3   OH281778   1.332   6.402   0.546  0.4459  0.0882  0.0468
20096TIP3    H181779   1.240   6.373   0.546  0.8904 -1.3945 -0.0578
20096TIP3    H281780   1.382   6.321   0.536  1.7766  0.8771  0.2055
20097TIP3   OH281781   3.254   6.468  15.833 -0.3523  0.6911 -0.1526
20097TIP3    H181782   3.236   6.375  15.843  0.8484  0.5276  0.8558
20097TIP3    H281783   3.348   6.476  15.850 -0.3531  2.0286 -0.6417
20098TIP3   OH281784   5.699   0.846   3.047 -0.2357  0.2780 -0.0040
20098TIP3    H181785   5.794   0.850   3.035 -0.1878  3.4270  0.5395
20098TIP3    H281786   5.671   0.771   2.994  2.5335 -0.9021  0.0158
20099TIP3   OH281787   0.093   0.603  13.987  0.5573 -0.7338  0.2970
20099TIP3    H181788   0.136   0.668  14.042  0.4630  1.5893 -2.1953
20099TIP3    H281789   0.165   0.548  13.955  0.8253 -0.8941  1.1349
20100TIP3   OH281790   3.043   3.907   1.888 -0.2587  0.2597  0.2223
20100TIP3    H181791   2.993   3.965   1.944 -0.2525 -0.5735  1.1148
20100TIP3    H281792   2.982   3.838   1.862  0.2673 -0.5028  0.9339
20101TIP3   OH281793   5.707   3.977   3.415 -0.0043 -0.1373  0.4608
20101TIP3    H181794   5.637   4.038   3.438  1.5899  1.4192  1.3808
20101TIP3    H281795   5.706   3.912   3.486 -0.8406 -0.4631  0.1706
20102TIP3   OH281796   3.101   0.082  13.728  0.0994  0.2725  0.1447
20102TIP3    H181797   3.090   0.067  13.634 -0.3323  0.0455  0.2298
20102TIP3    H281798   3.028   0.140  13.751 -1.1984 -1.5429  0.7894
20103TIP3   OH281799   4.146   6.572  15.567 -0.2151  0.2740 -0.2427
20103TIP3    H181800   4.202   6.596  15.641 -0.1503 -0.0409 -0.1911
20103TIP3    H281801   4.073   6.524  15.606 -0.2546  0.2317 -0.3681
20104TIP3   OH281802   2.508   6.646   1.106  0.9339 -0.1906  0.0437
20104TIP3    H181803   2.575   6.715   1.110  1.1716 -0.4757  1.3882
20104TIP3    H281804   2.558   6.566   1.089  0.8458 -0.2947  0.2840
20105TIP3   OH281805   1.041   3.080   0.993 -0.1495  0.1423  0.1237
20105TIP3    H181806   0.997   2.996   0.981 -0.9329  0.3440  1.3526
20105TIP3    H281807   1.017   3.107   1.082 -1.3180  2.4548 -0.7926
20106TIP3   OH281808   4.051   0.431  15.581  0.2889 -0.4073 -0.0506
20106TIP3    H181809   4.127   0.409  15.635 -1.2253 -1.6285  1.7041
20106TIP3    H281810   3.993   0.480  15.641 -0.9403 -0.7796 -0.8992
20107TIP3   OH281811   6.297   5.978   1.426 -0.5641  0.3624  0.0685
20107TIP3    H181812   6.236   5.910   1.455 -1.0693  1.2268  1.0971
20107TIP3    H281813   6.336   5.943   1.346 -2.3461 -0.2434 -0.5676
20108TIP3   OH281814   5.632   0.016   5.236 -0.3968  0.5096  0.1202
20108TIP3    H181815   5.619  -0.073   5.203  1.1686 -0.0597  0.9217
20108TIP3    H281816   5.550   0.061   5.217 -0.5722 -0.5587 -1.9862
20109TIP3   OH281817   4.351   0.593  16.404  0.1993 -0.3444 -0.2814
20109TIP3    H181818   4.276   0.533  16.397  0.3237 -0.5529  0.1755
20109TIP3    H281819   4.424   0.538  16.432  0.2562  0.0592  0.3931
20110TIP3   OH281820   0.011   0.456  15.854  0.0743  0.2896 -0.4170
20110TIP3    H181821  -0.002   0.538  15.807  0.5824  0.8124  0.3261
20110TIP3    H281822   0.104   0.437  15.846  0.3642  0.9016  1.1612
20111TIP3   OH281823   3.791   4.974  14.796 -0.3161 -0.4130 -0.8289
20111TIP3    H181824   3.709   4.960  14.845 -0.3887 -0.7631 -1.0477
20111TIP3    H281825   3.857   4.986  14.864 -0.5123 -0.3293 -0.6478
20112TIP3   OH281826   0.663   6.706  14.800 -0.6649 -0.3049  0.3759
20112TIP3    H181827   0.599   6.747  14.859  0.4452  1.8442  0.1719
20112TIP3    H281828   0.633   6.728  14.712  0.1141  0.3660  0.2702
20113TIP3   OH281829   4.107   2.135  15.770 -0.6470  0.0568  0.3386
20113TIP3    H181830   4.066   2.193  15.706  0.7168 -0.2156 -0.8424
20113TIP3    H281831   4.200   2.133  15.745 -0.2501 -0.8139  1.7559
20114TIP3   OH281832   2.064   4.841   2.776  0.2053  0.7851 -0.8780
20114TIP3    H181833   2.019   4.924   2.757 -1.4424 -0.2936 -1.9832
20114TIP3    H281834   2.036   4.819   2.865  1.0555  1.6376 -0.3825
20115TIP3   OH281835   3.880   5.689  16.641 -0.4762  0.0185  0.7011
20115TIP3    H181836   3.839   5.763  16.687 -0.3595  1.1504 -0.8997
20115TIP3    H281837   3.819   5.616  16.655  0.0503 -0.0049  3.4103
20116TIP3   OH281838   4.732   2.725  11.620 -0.0276 -0.3389 -0.0366
20116TIP3    H181839   4.792   2.738  11.547 -0.9740  0.4312 -0.6985
20116TIP3    H281840   4.647   2.753  11.587 -1.1201 -2.8877  0.3346
20117TIP3   OH281841   3.078   0.262  13.043  0.5843  0.3630 -0.3659
20117TIP3    H181842   2.988   0.266  13.076  0.1126 -0.6560 -1.4287
20117TIP3    H281843   3.108   0.353  13.041  0.1402  0.5835  1.4474
20118TIP3   OH281844   1.030   2.763   0.095  0.3037 -1.0877 -0.6044
20118TIP3    H181845   0.993   2.769   0.007  3.3977 -0.2546 -1.9811
20118TIP3    H281846   1.041   2.669   0.110  2.6122 -1.2063 -2.5218
20119TIP3   OH281847   3.053   3.798  12.413  0.0180  0.2907 -0.4625
20119TIP3    H181848   3.059   3.716  12.460 -0.2499  0.4968 -0.0662
20119TIP3    H281849   2.998   3.779  12.337 -1.5078  0.5154  0.5519
20120TIP3   OH281850   2.773   0.514   0.984  0.9574  0.4738  0.4732
20120TIP3    H181851   2.784   0.609   0.983 -0.3754  0.6685 -1.0756
20120TIP3    H281852   2.830   0.482   0.914  1.2061  0.1649  0.8163
20121TIP3   OH281853   3.524   2.035   5.159  0.5851  0.4012  0.4837
20121TIP3    H181854   3.525   2.068   5.069  2.7560 -2.4462 -0.6796
20121TIP3    H281855   3.554   2.108   5.212 -0.4846  2.0747 -1.1078
20122TIP3   OH281856   5.672   2.555  13.059  0.0162 -0.2584 -0.3246
20122TIP3    H181857   5.728   2.481  13.081  0.8280  0.4891  0.2267
20122TIP3    H281858   5.599   2.549  13.121 -0.5467 -1.2533 -1.0653
20123TIP3   OH281859   6.446   2.168   2.037  0.3080  0.5630 -0.0285
20123TIP3    H181860   6.508   2.240   2.040 -0.2003  0.9689  1.1873
20123TIP3    H281861   6.449   2.137   1.946  0.8872  1.7868 -0.4395
20124TIP3   OH281862   4.825   5.190   3.755  0.3564  0.7328 -0.1141
20124TIP3    H181863   4.798   5.102   3.727  1.2563  0.1766  0.6649
20124TIP3    H281864   4.823   5.243   3.675  1.9368 -0.5524 -1.0732
20125TIP3   OH281865   6.256   2.440  15.768 -0.5386 -0.1866  0.4639
20125TIP3    H181866   6.231   2.410  15.680 -0.0118  0.4402  0.0886
20125TIP3    H281867   6.337   2.394  15.786 -0.0333  0.5575  0.1283
20126TIP3   OH281868   2.997   0.786  16.307 -0.1813 -0.2249  0.0571
20126TIP3    H181869   3.043   0.704  16.289 -1.0713 -0.8067  0.3870
20126TIP3    H281870   2.971   0.779  16.399  0.5950  0.8694  0.3840
20127TIP3   OH281871   3.561   2.876  15.698 -0.3145 -0.1637  0.0780
20127TIP3    H181872   3.652   2.877  15.729  0.7149  0.6430 -2.7149
20127TIP3    H281873   3.527   2.962  15.723 -0.3422 -0.4575  1.1102
20128TIP3   OH281874   5.324   4.119  13.271 -0.5901  0.7205  0.2328
20128TIP3    H181875   5.366   4.036  13.295  0.0813  1.1037  0.3816
20128TIP3    H281876   5.248   4.124  13.330 -0.7533  0.1212  0.0878
20129TIP3   OH281877   0.245   4.403  16.136  0.0829  0.7048  0.0960
20129TIP3    H181878   0.239   4.318  16.178 -3.6095  0.7670  0.0204
20129TIP3    H281879   0.271   4.463  16.206 -1.8088  0.1555  1.3342
20130TIP3   OH281880   5.640   6.072  12.492 -0.3093  0.4036  0.1181
20130TIP3    H181881   5.560   6.062  12.441  0.6775  0.6794 -1.5842
20130TIP3    H281882   5.690   6.139  12.445  0.6615  0.6846  1.4817
20131TIP3   OH281883   3.666   1.042  15.674 -0.2481  0.3507  0.3098
20131TIP3    H181884   3.633   0.979  15.610 -0.7125  1.3515 -0.4691
20131TIP3    H281885   3.757   1.015  15.689 -0.6276 -0.8892  0.5108
20132TIP3   OH281886   6.582   5.990  14.252  0.6191  0.5595  0.2812
20132TIP3    H181887   6.635   6.055  14.205 -0.7672  0.1766 -1.9790
20132TIP3    H281888   6.492   6.017  14.236  0.0532 -0.7684  1.0781
20133TIP3   OH281889   0.023   2.246   2.096  0.7443  0.1580  0.6086
20133TIP3    H181890  -0.015   2.165   2.132 -0.5792 -0.7075 -2.3843
20133TIP3    H281891  -0.051   2.307   2.094 -0.0849 -0.7567 -3.0419
20134TIP3   OH281892   3.460   4.430   1.236 -0.7724 -0.4781  0.2346
20134TIP3    H181893   3.426   4.343   1.213  0.2616 -0.6230 -0.8746
20134TIP3    H281894   3.478   4.471   1.151  0.2610  0.1935  0.7613
20135TIP3   OH281895   5.075   2.595  11.588  0.5187 -0.0574 -0.1305
20135TIP3    H181896   5.028   2.666  11.632  0.8997 -0.1032  0.3654
20135TIP3    H281897   5.104   2.631  11.505  1.0552  0.5007  0.2897
20136TIP3   OH281898   1.588   0.381  12.345  0.3560  0.2473  0.9202
20136TIP3    H181899   1.497   0.377  12.375  0.0874  1.9043  0.4356
20136TIP3    H281900   1.631   0.307  12.389 -0.9216  0.2034  2.1810
20137TIP3   OH281901   6.292   0.688  15.847  0.4082 -0.0434 -0.0542
20137TIP3    H181902   6.245   0.612  15.812  2.9793 -0.9445 -1.8457
20137TIP3    H281903   6.346   0.654  15.917 -0.9909  0.8695  1.5534
20138TIP3   OH281904   3.262   4.749  13.696 -0.0068 -0.1076 -0.3946
20138TIP3    H181905   3.231   4.659  13.709  1.8276 -0.8691 -0.9693
20138TIP3    H281906   3.192   4.804  13.732 -0.4062 -1.7949  1.6103
20139TIP3   OH281907   4.433   4.121  12.169 -0.0572  0.3377  0.1916
20139TIP3    H181908   4.360   4.104  12.229 -0.3477  3.3134  0.8444
20139TIP3    H281909   4.396   4.108  12.082 -0.6370 -0.6166  0.5628
20140TIP3   OH281910   0.865   6.759  12.143 -0.3331  0.6394 -0.0139
20140TIP3    H181911   0.891   6.737  12.232  0.0479  0.1246 -0.2476
20140TIP3    H281912   0.903   6.690  12.089 -1.8518  0.0680 -0.4042
20141TIP3   OH281913   2.819   1.133  14.664  0.0990 -0.1380 -0.1442
20141TIP3    H181914   2.800   1.084  14.744  0.3158  0.3560  0.2164
20141TIP3    H281915   2.913   1.119  14.649 -0.0137 -0.5247 -0.5204
20142TIP3   OH281916   4.416   2.158  11.754 -0.2658 -0.0955  0.1876
20142TIP3    H181917   4.412   2.079  11.700 -0.1000  0.5540 -0.7972
20142TIP3    H281918   4.476   2.135  11.825 -1.9707 -1.6109  1.2287
20143TIP3   OH281919   1.006   2.614  14.293 -0.3113 -0.2892  0.1183
20143TIP3    H181920   1.046   2.637  14.209  0.2179 -1.1351  0.1282
20143TIP3    H281921   1.074   2.565  14.339 -1.4176 -1.9582  0.0603
20144TIP3   OH281922   5.448   3.827   3.562  0.2758  0.2618 -0.1667
20144TIP3    H181923   5.510   3.785   3.502 -1.5060 -0.9343 -1.2525
20144TIP3    H281924   5.398   3.755   3.600 -0.0636  1.1567  1.1647
20145TIP3   OH281925   2.460   6.323  12.936  0.4749  0.1050 -0.9530
20145TIP3    H181926   2.406   6.307  12.859 -1.5344  0.5553  0.2944
20145TIP3    H281927   2.497   6.410  12.921  0.3861  0.0477 -1.5488
20146TIP3   OH281928   6.312   2.948  15.368 -0.2352  0.4637 -0.3151
20146TIP3    H181929   6.239   2.904  15.410 -0.4188  1.0989  0.0526
20146TIP3    H281930   6.386   2.936  15.428 -0.5491  1.5512  0.3223
20147TIP3   OH281931   5.968   6.430  10.932 -0.3286  0.0293 -0.5604
20147TIP3    H181932   5.877   6.402  10.928  0.0359 -1.6767  1.1686
20147TIP3    H281933   6.017   6.359  10.889  0.1184  1.9566 -3.5474
20148TIP3   OH281934   5.555   0.545   1.632  0.3395 -0.1012  0.2773
20148TIP3    H181935   5.632   0.489   1.628  0.3084 -0.0750 -1.5030
20148TIP3    H281936   5.567   0.596   1.712  1.5129 -1.0112  0.7120
20149TIP3   OH281937   5.044   5.204   4.036 -0.1970 -0.0692  0.0019
20149TIP3    H181938   5.082   5.163   3.958  0.5646 -0.1968  0.4246
20149TIP3    H281939   4.994   5.278   4.002 -0.8636 -0.8096 -0.6996
20150TIP3   OH281940   1.084   0.012  12.445 -0.2267  0.1975  0.2059
20150TIP3    H181941   1.035   0.091  12.421 -0.5188  0.1364  0.6048
20150TIP3    H281942   1.040  -0.059  12.397  1.4496  0.5677 -2.0436
20151TIP3   OH281943   3.426   3.323   4.893  0.4318  0.2832  0.0128
20151TIP3    H181944   3.406   3.234   4.924  0.9114 -0.1221 -0.8280
20151TIP3    H281945   3.424   3.376   4.973  0.6327 -0.5656  0.6054
20152TIP3   OH281946   3.374   3.806   4.492  0.1195  0.4569 -0.3096
20152TIP3    H181947   3.333   3.886   4.459  0.8083  1.2414  0.6691
20152TIP3    H281948   3.331   3.789   4.576 -0.1952 -0.3535 -0.6253
20153TIP3   OH281949   2.263   4.826  15.408  0.5613  0.2463  1.0302
20153TIP3    H181950   2.295   4.909  15.444  0.1633  0.3914  1.0659
20153TIP3    H281951   2.226   4.780  15.483 -1.0565  0.9251  0.6916
20154TIP3   OH281952   0.209   5.232   6.266 -0.1784  0.0343  0.0893
20154TIP3    H181953   0.122   5.204   6.295  0.1474 -0.6279  0.4551
20154TIP3    H281954   0.235   5.300   6.329 -0.8149  0.9298 -0.5810
20155TIP3   OH281955   0.255   3.193  14.706 -0.4630 -0.4358  0.2108
20155TIP3    H181956   0.201   3.152  14.639 -0.6817 -0.0289  0.1342
20155TIP3    H281957   0.326   3.131  14.721 -0.4312 -0.5456 -0.3682
20156TIP3   OH281958   0.305   6.578   3.194 -0.3888 -0.0759 -0.0601
20156TIP3    H181959   0.230   6.548   3.141 -1.0931 -0.1031  0.9335
20156TIP3    H281960   0.266   6.616   3.272  0.6255  0.5579  0.1589
20157TIP3   OH281961   5.178   5.908   5.814  0.3927  0.2382  0.0967
20157TIP3    H181962   5.200   5.866   5.897  0.0793 -1.6442 -0.7420
20157TIP3    H281963   5.100   5.960   5.834  1.3630  1.2852  1.3802
20158TIP3   OH281964   2.114   5.853   4.265 -0.6265 -0.0841  0.5984
20158TIP3    H181965   2.061   5.779   4.235  0.7383 -0.6882 -0.3987
20158TIP3    H281966   2.063   5.930   4.240 -1.8893 -0.6435  1.3089
20159TIP3   OH281967   0.983   0.180   4.522  0.1970  0.6349 -0.5487
20159TIP3    H181968   0.918   0.249   4.531 -1.3817 -0.8357 -0.0254
20159TIP3    H281969   0.965   0.142   4.436 -0.8452 -0.8825  0.2909
20160TIP3   OH281970   6.252   5.037  11.171 -0.1216  0.1294  0.2452
20160TIP3    H181971   6.169   5.086  11.164  0.0867  0.5565  0.6726
20160TIP3    H281972   6.228   4.955  11.213 -0.3570  0.1959  0.2441
20161TIP3   OH281973   2.984   5.580  14.713  0.2238 -0.1289 -0.3037
20161TIP3    H181974   2.967   5.652  14.774  0.9207  1.3156 -1.7279
20161TIP3    H281975   3.079   5.568  14.718  0.3602  0.3527 -1.4240
20162TIP3   OH281976   0.503   0.759  11.862 -0.3257  0.4758  0.5261
20162TIP3    H181977   0.536   0.677  11.826 -0.4307 -0.4108  2.3602
20162TIP3    H281978   0.407   0.750  11.859 -0.3378  0.1395  1.5197
20163TIP3   OH281979   5.757   3.483   2.170  0.0525 -0.4371 -0.0988
20163TIP3    H181980   5.775   3.393   2.197  1.6672 -0.5157 -1.3029
20163TIP3    H281981   5.734   3.528   2.251  2.6364 -1.1383  1.1383
20164TIP3   OH281982   3.100   3.020   3.637  0.6981  0.0758 -0.1952
20164TIP3    H181983   3.108   3.053   3.548  0.5373  1.9907  0.4295
20164TIP3    H281984   3.181   2.972   3.653  0.3421 -1.0605 -1.6347
20165TIP3   OH281985   3.229   5.170  16.333  0.4833 -0.3466 -0.7736
20165TIP3    H181986   3.274   5.219  16.264  0.3798 -1.0150 -1.3371
20165TIP3    H281987   3.191   5.095  16.287 -1.3147  0.2601 -0.3476
20166TIP3   OH281988   5.104   6.463  14.754 -0.5212  0.0630 -0.0039
20166TIP3    H181989   5.169   6.479  14.822  1.5239  0.4385 -1.9313
20166TIP3    H281990   5.131   6.381  14.714 -1.2014  0.2601 -0.9042
20167TIP3   OH281991   0.855   3.818   0.838  0.4988  0.3144 -0.1961
20167TIP3    H181992   0.912   3.882   0.795 -0.3417  0.0685 -1.7897
20167TIP3    H281993   0.896   3.802   0.922  2.5922  0.3927 -1.1281
20168TIP3   OH281994   3.204   1.472  14.529 -0.2609  0.0712  0.2552
20168TIP3    H181995   3.207   1.541  14.596  2.1726  0.0949  0.2233
20168TIP3    H281996   3.232   1.393  14.576 -1.9373 -0.7105  0.0227
20169TIP3   OH281997   5.520   3.703   5.568 -0.3561  0.5037 -0.3127
20169TIP3    H181998   5.543   3.695   5.660  0.2678 -0.9591 -0.5756
20169TIP3    H281999   5.499   3.614   5.540 -0.7882  0.9558 -1.5248
20170TIP3   OH282000   3.769   3.849   1.930 -0.0657 -0.1779  0.0019
20170TIP3    H182001   3.753   3.757   1.910  1.3215 -0.1984 -1.2085
20170TIP3    H282002   3.766   3.893   1.845  1.8227  0.4502  0.2205
20171TIP3   OH282003   6.455   5.430   2.303  0.2244 -0.5546  0.3174
20171TIP3    H182004   6.389   5.499   2.298  0.8987  0.4504  3.1608
20171TIP3    H282005   6.473   5.421   2.397  1.4672 -3.3885 -0.0958
20172TIP3   OH282006   5.576   3.515  15.685 -0.0544 -0.0607  0.6982
20172TIP3    H182007   5.538   3.594  15.645 -1.2916 -1.3596 -0.8195
20172TIP3    H282008   5.578   3.451  15.615 -0.7084 -1.9414  2.3031
20173TIP3   OH282009   2.410   5.829  15.982 -0.5644 -0.3100 -0.1766
20173TIP3    H182010   2.430   5.735  15.974  1.4221  0.0470  0.1608
20173TIP3    H282011   2.490   5.868  16.016 -2.0032  1.2501  1.6599
20174TIP3   OH282012   2.640   0.717  16.440 -0.4459  0.1442  0.0420
20174TIP3    H182013   2.632   0.811  16.452 -0.4553  0.2527 -0.7727
20174TIP3    H282014   2.735   0.701  16.439 -0.3368  0.5261 -2.4153
20175TIP3   OH282015   6.597   2.073   4.311 -0.2104 -0.1096 -0.1458
20175TIP3    H182016   6.629   2.002   4.255  1.3534  0.4652 -0.0405
20175TIP3    H282017   6.504   2.057   4.320  0.0661 -2.0220 -0.3198
20176TIP3   OH282018   6.401   3.813   2.269  0.3039 -0.2481  0.3578
20176TIP3    H182019   6.370   3.873   2.201  1.4452  0.2933  0.2833
20176TIP3    H282020   6.489   3.845   2.290 -0.9475  1.2364  4.0126
20177TIP3   OH282021   2.034   1.086  15.022  0.1011  0.4989 -0.0009
20177TIP3    H182022   1.982   1.087  15.102 -0.0861  2.4107 -0.1006
20177TIP3    H282023   2.017   1.000  14.983 -1.2867  0.2666  1.0513
20178TIP3   OH282024   3.250   2.106  13.024 -0.3826  0.3216 -0.3400
20178TIP3    H182025   3.198   2.051  12.965 -1.0952 -0.1457  0.7011
20178TIP3    H282026   3.313   2.045  13.064 -0.0699  0.5854 -0.4303
20179TIP3   OH282027   2.413   5.780  10.896 -0.1648 -1.0296  0.4069
20179TIP3    H182028   2.357   5.852  10.868  0.0208 -0.6706  0.9600
20179TIP3    H282029   2.358   5.702  10.886 -0.1553 -0.9011 -0.8187
20180TIP3   OH282030   2.571   2.640   2.383  0.1739  0.5810  0.8551
20180TIP3    H182031   2.660   2.632   2.351 -0.2557 -0.2892 -0.1657
20180TIP3    H282032   2.580   2.635   2.478  0.9171 -3.2464  0.7121
20181TIP3   OH282033   5.075   3.466   2.895  0.2769 -0.5921  0.9908
20181TIP3    H182034   5.158   3.512   2.892  0.0938 -0.2987 -0.0720
20181TIP3    H282035   5.081   3.409   2.971  0.8386  0.5541  1.8239
20182TIP3   OH282036   1.754   2.433   1.898 -0.6044  0.4561  0.2398
20182TIP3    H182037   1.740   2.463   1.988 -1.4865  1.6343 -0.2733
20182TIP3    H282038   1.671   2.393   1.872  0.7431 -3.4436  1.1876
20183TIP3   OH282039   4.710   5.613  15.303 -0.0757 -0.1155  0.0036
20183TIP3    H182040   4.743   5.681  15.245 -1.4089  1.0952  0.5861
20183TIP3    H282041   4.663   5.553  15.244 -1.3403  1.0477 -0.2396
20184TIP3   OH282042   2.612   2.311   5.012  0.3010 -0.0511 -0.5782
20184TIP3    H182043   2.699   2.322   5.052  0.1430  0.7612 -0.4279
20184TIP3    H282044   2.587   2.221   5.033  0.8063 -0.0666 -0.0080
20185TIP3   OH282045   6.458   2.039   0.378  0.5541 -0.0323  0.0511
20185TIP3    H182046   6.523   2.108   0.391 -0.8462  1.4243 -0.4639
20185TIP3    H282047   6.392   2.078   0.322 -0.3280 -1.7813 -0.1837
20186TIP3   OH282048   6.741   5.424   1.800  0.5135 -0.2669  0.1759
20186TIP3    H182049   6.688   5.350   1.771 -0.7674  0.2224  1.1697
20186TIP3    H282050   6.706   5.499   1.752  0.5253  0.0067  0.5905
20187TIP3   OH282051   2.341   5.388  14.893 -0.0804 -0.6449 -0.3163
20187TIP3    H182052   2.333   5.455  14.961 -1.7718 -0.5412 -0.5963
20187TIP3    H282053   2.313   5.431  14.813 -0.3740 -1.4448 -0.6531
20188TIP3   OH282054   3.734   6.197  13.671 -0.3157 -0.5761 -0.3025
20188TIP3    H182055   3.728   6.119  13.616 -0.5539  0.2086 -1.4176
20188TIP3    H282056   3.828   6.214  13.678 -0.3011 -0.3975 -0.8908
20189TIP3   OH282057   0.554   2.481   5.973  0.1213  0.3013  0.4591
20189TIP3    H182058   0.601   2.416   6.024 -0.5007 -1.3904 -1.0119
20189TIP3    H282059   0.488   2.516   6.033 -0.5738 -1.6055  0.8828
20190TIP3   OH282060   6.045   2.136  11.883 -0.0522  0.4452 -0.1505
20190TIP3    H182061   6.022   2.144  11.790  0.1333 -0.8206 -0.3171
20190TIP3    H282062   5.968   2.169  11.929  0.2208  1.9894 -0.7440
20191TIP3   OH282063   4.507   3.052  12.127  0.1742  0.3941  0.2077
20191TIP3    H182064   4.520   3.140  12.092 -2.8360  1.6283  1.8885
20191TIP3    H282065   4.437   3.015  12.073 -0.8712  0.3418  1.5419
20192TIP3   OH282066   3.221   3.969   2.885  0.0728  0.1177 -0.5389
20192TIP3    H182067   3.295   4.030   2.885  2.1562 -2.2410 -1.8984
20192TIP3    H282068   3.221   3.932   2.973  1.7309 -1.1845 -1.0513
20193TIP3   OH282069   3.166   1.162  15.398  0.7650  0.1034  0.3416
20193TIP3    H182070   3.158   1.101  15.324 -0.4023 -0.6283  1.0413
20193TIP3    H282071   3.257   1.151  15.427  1.2103  0.3069 -0.8814
20194TIP3   OH282072   3.877   1.922   4.578  0.1918  0.1830 -0.1062
20194TIP3    H182073   3.971   1.913   4.593  0.6619  1.0791 -2.1516
20194TIP3    H282074   3.840   1.928   4.666  1.6658 -2.9859  0.8970
20195TIP3   OH282075   3.480   5.033   3.455 -0.3945  0.1755 -0.3298
20195TIP3    H182076   3.472   4.950   3.503  0.3339 -1.2388 -2.5000
20195TIP3    H282077   3.551   5.079   3.499 -0.2630 -0.7146  0.4295
20196TIP3   OH282078   1.706   4.032   4.698 -0.0334 -0.4775  0.1845
20196TIP3    H182079   1.611   4.038   4.701  0.0039 -0.0376  2.6812
20196TIP3    H282080   1.730   3.978   4.774  1.7023 -0.6834 -0.4554
20197TIP3   OH282081   6.606   3.248  16.756  0.3030  0.1054  0.2517
20197TIP3    H182082   6.667   3.309  16.715  0.3619  0.8305  1.3519
20197TIP3    H282083   6.588   3.182  16.689  1.5926  0.3736 -0.3959
20198TIP3   OH282084   1.668   1.548   4.689 -0.0845 -0.1719 -0.1260
20198TIP3    H182085   1.749   1.545   4.639  0.7167 -2.2337  1.1719
20198TIP3    H282086   1.690   1.507   4.773 -2.0038  0.9244  0.9826
20199TIP3   OH282087   2.185   3.755  11.368  0.0503  0.7476 -0.4344
20199TIP3    H182088   2.145   3.833  11.407 -0.2040 -0.9932  3.1222
20199TIP3    H282089   2.112   3.694  11.358  0.9921 -1.0123  2.3453
20200TIP3   OH282090   0.454   1.086  16.861  0.1420  0.2583  0.2906
20200TIP3    H182091   0.419   0.998  16.846  1.8265 -0.1692 -1.3715
20200TIP3    H282092   0.414   1.139  16.792 -0.2164  0.6340  0.7796
20201TIP3   OH282093   6.305   6.523  10.993  0.0591 -0.2213  0.5557
20201TIP3    H182094   6.232   6.556  10.940 -0.3840 -1.3510  0.4345
20201TIP3    H282095   6.324   6.593  11.055 -1.5230 -0.1361  0.9679
20202TIP3   OH282096   0.986   2.229   4.767 -0.4975 -0.0465  0.0903
20202TIP3    H182097   0.894   2.253   4.777 -1.0713 -2.3849  1.0010
20202TIP3    H282098   1.033   2.295   4.819 -1.7285  0.5839  0.4511
20203TIP3   OH282099   0.817   2.014  11.135 -0.1437 -1.2184  0.7265
20203TIP3    H182100   0.746   2.060  11.179  0.4639 -2.4559  3.1831
20203TIP3    H282101   0.855   2.080  11.077 -2.3421 -0.1180  0.4166
20204TIP3   OH282102   5.929   6.242  16.762  0.1504 -0.2979 -0.0729
20204TIP3    H182103   5.847   6.248  16.713 -0.3745 -1.8298  0.5562
20204TIP3    H282104   5.993   6.289  16.709 -0.7621 -0.5583 -1.4371
20205TIP3   OH282105   3.584   1.341   0.976  0.2021  0.3168 -0.2702
20205TIP3    H182106   3.489   1.350   0.969  0.0971 -1.2359 -1.3158
20205TIP3    H282107   3.618   1.378   0.895  0.2823 -1.3769 -1.0490
20206TIP3   OH282108   0.898   5.836  11.306 -0.2411  0.2104 -0.4150
20206TIP3    H182109   0.990   5.816  11.287  0.2670  1.4408  0.5663
20206TIP3    H282110   0.881   5.917  11.258 -0.5351  0.4577  0.0982
20207TIP3   OH282111   5.441   2.692  12.690  0.7550 -0.3561 -0.5776
20207TIP3    H182112   5.392   2.774  12.704 -0.9996 -1.5191  0.5230
20207TIP3    H282113   5.421   2.667  12.600 -1.3200 -1.1351  0.0352
20208TIP3   OH282114   5.121   6.727  15.521  0.5195  0.3843 -0.1937
20208TIP3    H182115   5.088   6.670  15.452  1.5608  1.1754 -1.4112
20208TIP3    H282116   5.061   6.715  15.594 -1.0019 -0.0251 -1.4517
20209TIP3   OH282117   3.886   2.877   2.116  0.1195  0.4215 -0.1721
20209TIP3    H182118   3.814   2.937   2.139 -1.5260 -1.9970  1.4610
20209TIP3    H282119   3.893   2.818   2.191  2.9248 -0.3062 -0.9114
20210TIP3   OH282120   0.191   2.526   6.577  0.2855 -0.0441  0.0323
20210TIP3    H182121   0.267   2.526   6.636  0.6885 -0.4519 -0.4818
20210TIP3    H282122   0.126   2.580   6.622  1.4589  1.6750 -0.2463
20211TIP3   OH282123   4.796   3.793  12.841  0.5756 -0.9035  0.0126
20211TIP3    H182124   4.816   3.767  12.931  0.2989 -1.3241 -0.0458
20211TIP3    H282125   4.702   3.814  12.843  0.4318 -1.5090 -0.3181
20212TIP3   OH282126   3.068   5.622  16.524 -0.2121  0.3659 -0.1084
20212TIP3    H182127   3.107   5.624  16.611  0.9965  1.2530 -0.6530
20212TIP3    H282128   3.033   5.533  16.516  0.6207 -0.0715  0.8690
20213TIP3   OH282129   1.989   0.352  11.970 -0.4008  0.2574 -0.6097
20213TIP3    H182130   1.982   0.339  11.876 -0.7357  0.0483 -0.5585
20213TIP3    H282131   2.082   0.341  11.989 -0.5077 -1.0149 -0.7340
20214TIP3   OH282132   1.413   1.806  14.681 -0.1804 -0.1541  0.1357
20214TIP3    H182133   1.429   1.753  14.759 -0.4203 -1.3125 -0.5707
20214TIP3    H282134   1.328   1.848  14.697 -0.1030 -0.1690  0.6059
20215TIP3   OH282135   1.555   5.003   2.372  0.2663  0.1111 -0.3493
20215TIP3    H182136   1.599   4.963   2.297 -0.7426  0.6477 -1.2545
20215TIP3    H282137   1.507   5.077   2.335 -0.1090  0.4987  0.8627
20216TIP3   OH282138   5.528   4.689  15.607 -0.0699 -0.0619  0.7088
20216TIP3    H182139   5.532   4.668  15.701 -1.0577  1.8969  1.2353
20216TIP3    H282140   5.465   4.626  15.572  0.1629 -0.6932  1.3812
20217TIP3   OH282141   5.079   5.963  14.182 -0.1292  0.1528 -0.2294
20217TIP3    H182142   5.083   6.037  14.122 -0.7340  0.7676  0.4685
20217TIP3    H282143   5.126   5.893  14.137 -0.9479  0.4523 -1.6303
20218TIP3   OH282144   0.559   1.773   1.260  0.3728 -0.6063  0.1925
20218TIP3    H182145   0.589   1.723   1.184  0.3708  0.8427 -0.7978
20218TIP3    H282146   0.468   1.795   1.240  0.3926 -0.1582  0.5740
20219TIP3   OH282147   3.545   0.351   5.617  0.2710 -0.1183  0.3269
20219TIP3    H182148   3.535   0.278   5.556  0.3718  0.4448 -0.3631
20219TIP3    H282149   3.614   0.322   5.677  0.0805 -0.7258  0.2618
20220TIP3   OH282150   0.524   6.046  16.480 -0.0347 -0.8710 -0.8210
20220TIP3    H182151   0.465   5.992  16.532 -0.8675  0.1066 -0.7033
20220TIP3    H282152   0.487   6.134  16.487  0.6493 -0.4789 -1.9099
20221TIP3   OH282153   0.476   0.037  14.992  0.2606 -0.0410 -0.5248
20221TIP3    H182154   0.431  -0.006  15.065  1.7067  0.5497  0.7857
20221TIP3    H282155   0.513   0.116  15.030 -0.9205  1.5492 -2.4985
20222TIP3   OH282156   0.407   4.552   5.270 -0.7257 -0.2443  0.3336
20222TIP3    H182157   0.397   4.504   5.187  2.5015  1.0979 -1.0404
20222TIP3    H282158   0.434   4.486   5.333  1.4503 -0.7005 -0.9680
20223TIP3   OH282159   5.739   2.335  11.346 -0.3183 -0.4596 -0.2748
20223TIP3    H182160   5.732   2.241  11.364  1.2678 -0.5533  0.0096
20223TIP3    H282161   5.650   2.368  11.358 -0.9942 -1.9772 -0.7401
20224TIP3   OH282162   0.808   4.277   0.613 -0.4116  0.2063 -0.0340
20224TIP3    H182163   0.769   4.359   0.642 -2.4465 -0.6888 -0.0527
20224TIP3    H282164   0.816   4.285   0.518 -0.1852  0.5467  0.0144
20225TIP3   OH282165   2.026   1.083  12.456  0.0480  0.2446 -0.0026
20225TIP3    H182166   2.094   1.018  12.473 -0.3719  0.3106  2.3810
20225TIP3    H282167   2.069   1.167  12.472  0.0594  0.4566 -1.0715
20226TIP3   OH282168   4.167   0.711  15.155  0.4086  0.1356  0.2007
20226TIP3    H182169   4.087   0.760  15.134 -0.5761 -1.5160 -0.0815
20226TIP3    H282170   4.145   0.662  15.234  1.1237 -0.3780  0.0899
20227TIP3   OH282171   5.585   2.825  13.326  0.2451  0.4674 -0.1446
20227TIP3    H182172   5.538   2.841  13.244 -0.4777  1.1569  0.3841
20227TIP3    H282173   5.584   2.730  13.336 -1.3017  0.4616 -0.0225
20228TIP3   OH282174   6.068   1.741  15.789 -0.0774 -0.0427  0.0985
20228TIP3    H182175   6.013   1.750  15.867 -0.6922  1.6218 -0.4833
20228TIP3    H282176   6.156   1.764  15.819  0.0771 -1.3666  0.7234
20229TIP3   OH282177   0.434   6.340  15.819 -0.1968  0.1643 -0.3941
20229TIP3    H182178   0.374   6.294  15.761 -0.1504 -1.5046  0.8030
20229TIP3    H282179   0.521   6.312  15.790 -0.0191  1.3774 -1.1394
20230TIP3   OH282180   4.292   6.015   0.613 -0.2357  0.5969  0.2126
20230TIP3    H182181   4.221   6.055   0.563  0.3834  1.1212 -0.2704
20230TIP3    H282182   4.342   5.965   0.548 -1.8579 -2.3306  1.0310
20231TIP3   OH282183   0.875   6.171   2.092 -0.3195  0.1452  0.4327
20231TIP3    H182184   0.874   6.110   2.019 -1.4457  0.6539  0.0056
20231TIP3    H282185   0.794   6.152   2.141 -1.4196  2.1569 -0.4721
20232TIP3   OH282186   6.044   5.785  13.547  0.3118 -0.0410 -0.0347
20232TIP3    H182187   6.021   5.757  13.458 -1.7662  0.0515  0.4119
20232TIP3    H282188   6.130   5.825  13.538 -0.5078  1.4159 -2.3103
20233TIP3   OH282189   4.369   5.255   1.851 -0.7182  0.0226 -0.1584
20233TIP3    H182190   4.291   5.199   1.849 -0.6875 -0.0036 -1.7421
20233TIP3    H282191   4.435   5.207   1.802  0.0887  0.3687  0.5553
20234TIP3   OH282192   3.191   1.978   4.506  0.6122  0.1117 -0.1777
20234TIP3    H182193   3.269   1.954   4.456  0.4525  0.4023 -0.5750
20234TIP3    H282194   3.118   1.946   4.453  0.4985 -2.4089  1.3912
20235TIP3   OH282195   4.027   2.473   5.795 -0.2112 -0.0354 -0.3848
20235TIP3    H182196   4.089   2.409   5.761 -0.5499  0.5253 -2.1415
20235TIP3    H282197   4.025   2.542   5.729 -0.2769  1.5366  1.1851
20236TIP3   OH282198   6.738   2.416  15.960  0.1594  0.7255  0.1523
20236TIP3    H182199   6.785   2.333  15.968 -1.2512 -0.2433 -1.0039
20236TIP3    H282200   6.720   2.442  16.051 -0.0366 -0.6485  0.5312
20237TIP3   OH282201   1.771   0.756   3.027  0.1930 -0.7221 -0.3009
20237TIP3    H182202   1.738   0.669   3.045  0.2977 -0.8965 -0.9457
20237TIP3    H282203   1.713   0.815   3.075  0.9131 -1.2144  1.2251
20238TIP3   OH282204   1.939   6.375  12.794  0.2352  0.3425  0.5126
20238TIP3    H182205   1.852   6.413  12.784  0.3134 -0.0391 -3.3902
20238TIP3    H282206   1.999   6.443  12.763  1.2048 -0.0106  1.5434
20239TIP3   OH282207   0.082   1.718  15.407 -0.1951  0.4949  0.0453
20239TIP3    H182208   0.015   1.696  15.342  0.0498  0.4032 -0.1809
20239TIP3    H282209   0.107   1.808  15.386  0.8369  0.0311 -0.8526
20240TIP3   OH282210   6.173   5.364  17.197 -0.8705 -0.5984  0.2061
20240TIP3    H182211   6.126   5.295  17.150 -0.7295 -0.5272 -0.0466
20240TIP3    H282212   6.207   5.321  17.275  0.3701 -1.1782 -0.6184
20241TIP3   OH282213   6.691   4.960   4.651  0.5580  0.4691  0.1035
20241TIP3    H182214   6.690   4.922   4.564  1.1733  0.3887  0.1240
20241TIP3    H282215   6.746   4.901   4.702  0.6992  0.8415  0.3910
20242TIP3   OH282216   6.632   2.630  15.825 -0.1259 -0.1790 -0.3575
20242TIP3    H182217   6.683   2.711  15.825 -0.4678  0.1426  2.2455
20242TIP3    H282218   6.678   2.574  15.888  0.2198 -2.1466 -2.2478
20243TIP3   OH282219   6.278   6.643  12.790 -0.4384  0.0966 -0.1433
20243TIP3    H182220   6.353   6.586  12.806  0.3639  1.1876  0.0104
20243TIP3    H282221   6.309   6.706  12.725 -1.1210  0.7643  0.1727
20244TIP3   OH282222   6.302   6.166  14.631  0.0771 -0.3028  0.0715
20244TIP3    H182223   6.382   6.120  14.606 -0.6330 -1.5654  0.0128
20244TIP3    H282224   6.234   6.124  14.579 -0.6506  0.6407  0.2390
20245TIP3   OH282225   5.997   3.127   1.652  0.1005 -0.0767 -0.3898
20245TIP3    H182226   5.938   3.053   1.649 -0.2466  0.0145  2.0621
20245TIP3    H282227   5.942   3.203   1.635  0.0099 -0.2043 -0.6607
20246TIP3   OH282228   2.982   0.555  13.019 -0.4390  0.0431  0.3804
20246TIP3    H182229   3.008   0.568  13.110 -0.6370  0.7372  0.3461
20246TIP3    H282230   2.887   0.549  13.023 -0.5520  1.3340  0.0945
20247TIP3   OH282231   1.690   6.108   5.724 -0.6084  0.1499  0.0015
20247TIP3    H182232   1.744   6.040   5.764 -1.0314  0.1878  0.6689
20247TIP3    H282233   1.627   6.060   5.670 -1.6101 -0.0974  1.3246
20248TIP3   OH282234   6.101   3.859  10.950 -0.2167  0.3246 -0.3248
20248TIP3    H182235   6.017   3.816  10.935 -0.1255  0.3520 -0.9369
20248TIP3    H282236   6.165   3.803  10.906  0.0615  0.4211 -0.0515
20249TIP3   OH282237   2.242   5.848   5.359 -0.3412  0.0502 -0.1183
20249TIP3    H182238   2.254   5.826   5.267 -1.0861  0.1323 -0.2469
20249TIP3    H282239   2.293   5.783   5.407  1.4280  1.0069 -0.6178
20250TIP3   OH282240   5.786   5.447  16.732  0.3891  0.1174 -0.4782
20250TIP3    H182241   5.763   5.487  16.649 -0.1307 -0.2223 -0.5040
20250TIP3    H282242   5.869   5.487  16.756  0.1682  0.7681 -0.7881
20251TIP3   OH282243   3.431   1.209  17.225  0.2318  0.1938 -0.2473
20251TIP3    H182244   3.342   1.173  17.217 -0.3907  1.8901 -1.5537
20251TIP3    H282245   3.471   1.159  17.296 -0.9509 -2.2479 -1.1776
20252TIP3   OH282246   3.116   0.508  16.641 -0.2053 -0.4240 -0.1877
20252TIP3    H182247   3.137   0.416  16.656  1.3517 -0.1200 -0.3252
20252TIP3    H282248   3.048   0.528  16.706 -0.8627 -1.7696 -0.4485
20253TIP3   OH282249   1.861   0.432  14.332  0.0651  0.3186  0.0586
20253TIP3    H182250   1.931   0.398  14.277 -0.5560 -0.9244 -0.0041
20253TIP3    H282251   1.906   0.485  14.399  0.9426  0.5346 -0.6857
20254TIP3   OH282252   1.433   4.860  11.827 -0.3514 -0.5463 -0.2231
20254TIP3    H182253   1.388   4.935  11.865  1.1167 -0.0871  0.7110
20254TIP3    H282254   1.419   4.868  11.733 -2.0293 -0.3397  0.0218
20255TIP3   OH282255   2.602   6.462  11.989  0.1797  0.1416 -0.2116
20255TIP3    H182256   2.519   6.471  11.942  0.6925 -0.3309 -1.2428
20255TIP3    H282257   2.615   6.367  11.995 -1.3661 -0.0046  3.6305
20256TIP3   OH282258   4.875   4.277  16.820 -0.5967 -0.4299 -0.0283
20256TIP3    H182259   4.786   4.312  16.833 -1.6914 -2.5283 -1.2942
20256TIP3    H282260   4.863   4.182  16.822  1.6366 -0.7554 -0.3503
20257TIP3   OH282261   0.045   5.174   3.714  0.3474 -0.2415 -0.0470
20257TIP3    H182262   0.117   5.195   3.654 -1.3249  1.3279 -1.6296
20257TIP3    H282263   0.014   5.258   3.745 -0.0853 -0.9585  1.5635
20258TIP3   OH282264   2.857   4.869   2.191 -0.1135 -0.2405 -0.2875
20258TIP3    H182265   2.938   4.833   2.227  0.1964  0.0221 -0.7199
20258TIP3    H282266   2.886   4.941   2.134 -0.6476 -0.1569 -0.4550
20259TIP3   OH282267   0.827   5.012   2.305 -0.2831 -0.6222 -0.4611
20259TIP3    H182268   0.785   5.039   2.387 -0.2698 -0.0874 -0.6244
20259TIP3    H282269   0.756   5.012   2.241 -0.1824 -0.4726 -0.5731
20260LIG      O82270   3.147   3.563   6.831  0.1142 -0.3804 -0.8136
20260LIG      N82271   2.964   3.802   6.824 -0.9799  0.6377  0.4918
20260LIG     C182272   3.073   3.339   6.778  0.3922 -0.3187  0.4317
20260LIG     C282273   3.060   3.491   6.746 -0.1486  1.0793  0.1716
20260LIG     C382274   3.215   3.284   6.721  0.4228 -0.0708  0.1191
20260LIG     C482275   3.054   3.306   6.928  0.2697 -0.8029 -0.0213
20260LIG     C582276   2.927   3.554   6.773  0.3061 -0.1884 -0.1382
20260LIG     C682277   3.251   3.148   6.770 -0.2382  0.4686  0.1106
20260LIG     C782278   3.092   3.164   6.959  0.7030  0.3290 -0.1005
20260LIG     C882279   3.237   3.134   6.925 -0.4743 -0.2499 -0.0148
20260LIG     C982280   2.903   3.699   6.731 -0.2601  0.7965 -0.4587
20260LIG    C1082281   3.105   3.506   6.594  0.5996 -0.0742 -0.4803
20260LIG    C1182282   2.942   3.939   6.786  0.4984  0.1140 -0.1315
20260LIG    C1282283   2.948   3.775   6.963  0.4487  0.1944 -0.5235
20260LIG    C1382284   2.789   3.971   6.813  0.2315 -0.0845 -0.2178
20260LIG    C1482285   2.800   3.800   7.010 -0.2707  0.5588  0.1668
20260LIG    C1582286   2.745   3.930   6.961 -1.0282 -0.7626 -0.2520
20260LIG    C1682287   3.021   3.452   6.497 -0.0701  0.3739 -0.2284
20260LIG    C1782288   3.231   3.565   6.560  0.3363  0.0950 -0.3188
20260LIG    C1882289   3.065   3.451   6.365 -0.1267 -0.3449  0.0743
20260LIG    C1982290   3.278   3.552   6.432 -0.0818  0.2412  0.9268
20260LIG    C2082291   3.191   3.500   6.327 -0.1294 -0.0897  0.1836
20260LIG     H182292   2.990   3.292   6.721  1.2532 -1.4838  0.1053
20260LIG     H282293   3.287   3.363   6.752  1.2802 -0.7144 -0.1909
20260LIG     H382294   3.230   3.279   6.611  2.4664 -2.0553  0.4233
20260LIG     H482295   2.949   3.335   6.948  0.5630 -1.2820  2.6557
20260LIG     H582296   3.118   3.365   6.998  1.7568 -1.5118 -0.7290
20260LIG     H682297   2.890   3.522   6.873  0.1301 -2.0696 -0.7760
20260LIG     H782298   2.859   3.492   6.712 -1.2464 -0.2259  1.5501
20260LIG     H882299   3.356   3.121   6.743 -1.2741 -2.6113 -1.2443
20260LIG     H982300   3.192   3.065   6.727  3.8292 -2.0916 -1.1234
20260LIG    H1082301   3.022   3.107   6.895  2.0098 -0.3636 -0.9686
20260LIG    H1182302   3.066   3.146   7.065  0.2588  1.2072 -0.0506
20260LIG    H1282303   3.316   3.189   6.981 -0.1989 -0.4258 -0.2269
20260LIG    H1382304   3.255   3.027   6.948 -1.1884 -0.4692 -0.4604
20260LIG    H1482305   2.944   3.717   6.629  1.0084  0.7349  0.0220
20260LIG    H1582306   2.794   3.710   6.711 -1.0796 -1.3733  2.2016
20260LIG    H1682307   2.952   3.951   6.676  2.5778  0.7151  0.0792
20260LIG    H1782308   3.021   3.996   6.840  0.6964 -0.1130 -0.1819
20260LIG    H1882309   3.016   3.846   7.016 -1.3594  2.1784 -0.7385
20260LIG    H1982310   2.993   3.677   6.989  1.8764  0.1822 -2.7910
20260LIG    H2082311   3.114   3.653   6.816  1.8677  0.1744 -1.5458
20260LIG    H2182312   2.726   3.915   6.741  0.9981 -0.2017 -0.8133
20260LIG    H2282313   2.774   4.080   6.797  0.4008 -0.0649 -0.2453
20260LIG    H2382314   2.781   3.791   7.119 -1.1788  0.5838  0.0218
20260LIG    H2482315   2.740   3.723   6.958 -2.0092 -0.0808  2.9069
20260LIG    H2582316   2.635   3.920   6.957 -0.9767 -2.5715  1.5236
20260LIG    H2682317   2.778   4.011   7.031  1.1590 -1.1661 -0.7306
20260LIG    H2782318   2.919   3.428   6.522 -0.1365 -0.4417 -1.2404
20260LIG    H2882319   3.300   3.606   6.631  1.7895 -0.8443 -1.1172
20260LIG    H2982320   3.011   3.392   6.292  1.1062  0.5345 -1.6354
20260LIG    H3082321   3.374   3.599   6.419  0.4063 -0.8850  0.3740
20260LIG    H3182322   3.230   3.475   6.230  1.0335  1.1351  0.3116
   6.82541   6.82541  17.30579
